Control file title. For DL_FIELD 4.10
49852
    1MOL     C1    1   5.212   0.412   1.020  0.5316 -0.3965 -0.7247
    1MOL     C2    2   5.145   0.365   1.153  0.6006  0.1492 -0.2978
    1MOL     C3    3   5.079   0.225   1.122  0.6595 -0.1540  0.2003
    1MOL     C4    4   5.254   0.325   1.254 -0.8439 -0.1299  0.0531
    1MOL     O5    5   5.366   0.293   1.219  0.1570 -0.1437 -0.0537
    1MOL     O6    6   5.216   0.329   1.386 -0.0487  0.6704 -0.2186
    1MOL     H7    7   5.274   0.335   0.976 -0.8305 -0.9519 -1.6937
    1MOL     H8    8   5.266   0.505   1.040  0.9815 -0.1434 -3.0503
    1MOL     H9    9   5.002   0.235   1.046 -1.0308 -0.3799  1.8456
    1MOL    H10   10   5.029   0.193   1.214  1.3957  1.0416  1.0346
    1MOL    H11   11   5.158   0.156   1.090  1.1034  0.9836 -1.2012
    1MOL    H12   12   5.293   0.326   1.441 -0.3441  0.0196  0.1586
    1MOL    H13   13   5.140   0.429   0.940  1.0548  0.2764 -1.0590
    1MOL    C14   14   5.035   0.453   1.223 -0.4243 -0.6233  0.8965
    1MOL    C15   15   5.035   0.607   1.244  0.3852  0.6998 -0.8106
    1MOL    C16   16   5.033   0.677   1.101 -0.1355  0.1096  0.1643
    1MOL    C17   17   4.910   0.649   1.315  0.8197  0.6812  0.9896
    1MOL    O18   18   4.820   0.709   1.253  0.1053 -0.7001 -0.1303
    1MOL    O19   19   4.892   0.597   1.436 -0.3747 -0.4094  0.1067
    1MOL    H20   20   4.943   0.439   1.166 -0.3161 -0.9766  0.8104
    1MOL    H21   21   5.018   0.406   1.320 -2.6815  0.1640  0.9105
    1MOL    H22   22   5.134   0.690   1.063 -0.1917  2.1209  0.6823
    1MOL    H23   23   4.976   0.768   1.082  1.1301  0.5111 -1.8575
    1MOL    H24   24   4.983   0.608   1.032  0.7846  0.0638 -0.4548
    1MOL    H25   25   4.974   0.554   1.457  0.0186  1.2113  2.0078
    1MOL    C26   26   5.164   0.642   1.322  0.1232  0.6390 -0.3755
    1MOL    C27   27   5.189   0.781   1.399  0.2259  0.4527  0.2285
    1MOL    C28   28   5.122   0.776   1.537  0.8831 -0.5093 -0.9443
    1MOL    C29   29   5.347   0.783   1.422  0.0211  0.0331 -0.0854
    1MOL    O30   30   5.397   0.818   1.530 -0.4336 -0.3608 -0.0674
    1MOL    O31   31   5.426   0.757   1.314 -0.0887  0.3323 -0.2553
    1MOL    H32   32   5.179   0.570   1.403  3.6274  0.5452 -1.0206
    1MOL    H33   33   5.249   0.629   1.256 -1.4294 -0.0841 -2.2716
    1MOL    H34   34   5.126   0.676   1.582  1.3009  0.6035  1.6193
    1MOL    H35   35   5.022   0.819   1.538  0.8931 -0.2475  3.6610
    1MOL    H36   36   5.166   0.848   1.605 -0.2999 -0.2216 -0.4650
    1MOL    H37   37   5.517   0.760   1.338  0.2892 -1.1750 -1.4177
    1MOL    C38   38   5.153   0.908   1.313 -0.4265 -0.0782 -0.1051
    1MOL    C39   39   5.198   1.058   1.348  0.2985 -0.2831 -0.4004
    1MOL    C40   40   5.174   1.083   1.499  0.1638 -0.9650 -0.4526
    1MOL    C41   41   5.345   1.082   1.324 -0.2718 -0.2157 -0.4843
    1MOL    O42   42   5.428   1.110   1.413  0.1434  0.6932  0.2173
    1MOL    O43   43   5.387   1.074   1.196  0.3782  0.0802 -0.0979
    1MOL    H44   44   5.188   0.887   1.211 -0.4749 -0.0550 -0.1259
    1MOL    H45   45   5.045   0.898   1.301 -0.3062  0.2087 -1.5578
    1MOL    H46   46   5.242   1.026   1.562  1.4589 -0.9910 -1.8194
    1MOL    H47   47   5.069   1.071   1.523 -0.0627  1.0225 -0.3571
    1MOL    H48   48   5.196   1.189   1.516  0.1935 -0.9583 -0.5320
    1MOL    H49   49   5.470   1.119   1.193  0.4930  0.0016  1.4085
    1MOL    C50   50   5.096   1.141   1.259 -0.4503 -0.8087 -0.0564
    1MOL    C51   51   5.078   1.299   1.277 -0.1137 -0.5545 -0.6066
    1MOL    C52   52   4.977   1.317   1.400  0.4805  0.1708 -0.2737
    1MOL    C53   53   5.211   1.372   1.303  0.0788 -0.2489 -0.4374
    1MOL    O54   54   5.231   1.430   1.410 -0.3305 -0.0668  0.0703
    1MOL    O55   55   5.292   1.383   1.196  0.5007  0.7428  0.6986
    1MOL    H56   56   5.129   1.110   1.160  0.1348  0.7667 -0.3704
    1MOL    H57   57   4.997   1.094   1.261  0.6111 -3.1511 -1.0974
    1MOL    H58   58   5.012   1.286   1.498  0.9634  2.6192  0.3661
    1MOL    H59   59   4.881   1.267   1.382  1.0153 -1.2069  0.6882
    1MOL    H60   60   4.964   1.422   1.427  1.5159  0.2860 -0.2224
    1MOL    H61   61   5.269   1.322   1.129 -1.1342 -0.9425  2.7041
    1MOL    C62   62   5.019   1.352   1.148 -0.1322  0.2075  0.0907
    1MOL    C63   63   4.939   1.485   1.121 -0.4114  0.2780 -0.4965
    1MOL    C64   64   4.792   1.474   1.189 -0.2399 -1.0851  0.1353
    1MOL    C65   65   5.005   1.613   1.184  0.3256  0.5377 -0.2826
    1MOL    O66   66   4.939   1.693   1.250  0.1181  0.4335  0.0116
    1MOL    O67   67   5.129   1.630   1.145  0.2887  0.0389  0.5112
    1MOL    H68   68   5.094   1.339   1.070  2.4087  0.0003  2.4890
    1MOL    H69   69   4.950   1.272   1.124  0.4849 -0.1308 -0.5693
    1MOL    H70   70   4.796   1.494   1.296 -1.0730  0.9126 -0.1896
    1MOL    H71   71   4.763   1.370   1.202  1.1334 -1.6313 -0.9624
    1MOL    H72   72   4.715   1.531   1.138 -1.4634 -1.9290  1.0073
    1MOL    H73   73   5.162   1.712   1.179  0.0029 -0.3284  1.7058
    1MOL    C74   74   4.928   1.506   0.964 -0.1167 -0.6161  0.1084
    1MOL    C75   75   4.873   1.402   0.850  0.3923 -0.8231 -1.1613
    1MOL    C76   76   4.852   1.477   0.717 -0.9022 -0.4011  0.2005
    1MOL    C77   77   4.973   1.294   0.833  0.0946 -0.3581  0.2496
    1MOL    O78   78   4.966   1.187   0.896  0.0569  0.3685 -0.2718
    1MOL    O79   79   5.077   1.324   0.748 -0.3039  0.5902  0.2899
    1MOL    H80   80   4.869   1.597   0.952  0.5577 -0.4912 -2.6176
    1MOL    H81   81   5.026   1.537   0.926  0.2476 -1.6964  0.1472
    1MOL    H82   82   4.773   1.549   0.738  0.8587  1.5362  0.4486
    1MOL    H83   83   4.840   1.408   0.634  0.4502 -0.2019 -0.1857
    1MOL    H84   84   4.945   1.533   0.704 -1.5399  0.4693 -0.6754
    1MOL    H85   85   5.123   1.242   0.750 -2.0804 -0.4023  2.2589
    1MOL    C86   86   4.742   1.338   0.912 -0.0782 -0.0303 -0.4027
    1MOL    C87   87   4.620   1.276   0.830 -0.4723  0.1254 -0.4529
    1MOL    C88   88   4.538   1.393   0.772  0.5994 -0.6407  0.4644
    1MOL    C89   89   4.662   1.193   0.706 -0.2407 -0.5365  0.0358
    1MOL    O90   90   4.773   1.160   0.676  0.3343 -0.1662 -0.2181
    1MOL    O91   91   4.561   1.175   0.616  0.2285  0.4131 -0.4310
    1MOL    H92   92   4.758   1.271   0.996 -3.5064 -0.5123 -0.0555
    1MOL    H93   93   4.695   1.429   0.950  0.3859  1.2305 -2.7515
    1MOL    H94   94   4.580   1.440   0.683  0.1179  2.2389  1.6966
    1MOL    H95   95   4.519   1.473   0.844 -1.1885 -0.4752 -0.1664
    1MOL    H96   96   4.443   1.353   0.738  1.7033 -2.2751 -0.8006
    1MOL    H97   97   4.598   1.107   0.563 -0.1386 -0.8637  0.9050
    1MOL    C98   98   4.515   1.193   0.924  0.1772  0.0179  0.2027
    1MOL    C99   99   4.550   1.050   0.993 -0.2005  0.1641  0.1483
    1MOL   C100  100   4.694   1.041   1.045  0.3733 -0.7148 -0.1784
    1MOL   C101  101   4.452   1.017   1.109  0.1200  0.2711  0.1074
    1MOL   O102  102   4.493   0.952   1.203  0.5708  0.2244  0.3218
    1MOL   O103  103   4.321   1.052   1.092  0.1372 -0.4104  0.7220
    1MOL   H104  104   4.488   1.259   1.007  0.9526 -0.1091  0.5696
    1MOL   H105  105   4.418   1.185   0.876  0.4440 -1.2205 -0.1602
    1MOL   H106  106   4.764   1.048   0.962  1.1300 -1.5808  0.3739
    1MOL   H107  107   4.726   0.953   1.100  1.0174  0.0332  0.6617
    1MOL   H108  108   4.719   1.119   1.117 -1.3847 -0.9640  0.7299
    1MOL   H109  109   4.266   1.015   1.160 -0.2823  0.0316  0.6291
    1MOL   C110  110   4.534   0.938   0.879 -0.1622 -0.0205 -0.5244
    1MOL   C111  111   4.516   0.780   0.891 -0.3304 -0.0243 -0.2943
    1MOL   C112  112   4.629   0.726   0.984  0.2315 -0.1220 -0.1112
    1MOL   C113  113   4.380   0.747   0.957 -0.0997  0.1409 -1.1734
    1MOL   O114  114   4.374   0.676   1.054  0.5167  0.0422  0.1038
    1MOL   O115  115   4.266   0.807   0.911 -0.0360 -0.2018 -0.1840
    1MOL   H116  116   4.447   0.973   0.823 -0.4945 -0.4258 -0.2641
    1MOL   H117  117   4.612   0.949   0.803 -1.5894  0.2166 -1.9734
    1MOL   H118  118   4.729   0.762   0.961  0.3026 -0.3708 -0.1833
    1MOL   H119  119   4.641   0.620   0.964  0.3811 -0.0134 -0.5992
    1MOL   H120  120   4.612   0.752   1.089  1.3188  0.5697 -0.1014
    1MOL   H121  121   4.194   0.775   0.963 -0.4315 -1.0045 -1.2049
    1MOL   C122  122   4.543   0.714   0.749  0.1634  0.0339 -0.2379
    1MOL   C123  123   4.439   0.649   0.653 -0.5956 -0.0743  0.6640
    1MOL   C124  124   4.409   0.516   0.723  0.0786 -0.0087  0.6389
    1MOL   C125  125   4.307   0.730   0.630  0.9073 -0.8124 -1.1806
    1MOL   O126  126   4.195   0.677   0.602 -0.7333  0.1177 -0.4445
    1MOL   O127  127   4.324   0.865   0.646 -0.2012 -0.4592 -0.0813
    1MOL   H128  128   4.602   0.784   0.691 -3.1342  2.1284 -1.1622
    1MOL   H129  129   4.621   0.639   0.763 -0.4768 -0.5519  0.2342
    1MOL   H130  130   4.495   0.462   0.761 -0.4164 -1.6878 -0.5607
    1MOL   H131  131   4.346   0.453   0.659  1.7441  0.0733 -1.1126
    1MOL   H132  132   4.341   0.536   0.806 -1.3771  0.5995 -0.6740
    1MOL   H133  133   4.237   0.900   0.635 -0.4746 -1.2084 -0.3426
    1MOL   C134  134   4.514   0.612   0.513 -0.5472  0.7740 -0.6062
    1MOL   C135  135   4.598   0.711   0.425  0.2532 -0.3511 -0.1828
    1MOL   C136  136   4.515   0.841   0.414 -0.6931 -0.3014  0.2798
    1MOL   C137  137   4.743   0.737   0.479 -0.3560  0.1786  0.4665
    1MOL   O138  138   4.834   0.653   0.494 -0.2131 -0.2026  0.3392
    1MOL   O139  139   4.762   0.862   0.525  1.3682 -0.0211 -0.8124
    1MOL   H140  140   4.568   0.519   0.530 -1.2152  0.1213 -2.0401
    1MOL   H141  141   4.431   0.578   0.452  0.0294  0.2715 -1.1134
    1MOL   H142  142   4.522   0.892   0.510 -0.1284 -1.6341  0.9675
    1MOL   H143  143   4.414   0.826   0.377  0.0565 -2.7217 -0.8808
    1MOL   H144  144   4.562   0.925   0.363  0.1080 -1.6692 -1.2739
    1MOL   H145  145   4.842   0.848   0.573  0.1592 -0.9710  0.9724
    1MOL   C146  146   4.608   0.648   0.280  0.0680  0.2632 -0.1046
    1MOL   C147  147   4.704   0.705   0.160  0.8325 -0.1337 -0.0911
    1MOL   C148  148   4.625   0.675   0.025 -0.4001 -0.0722 -0.3329
    1MOL   C149  149   4.707   0.859   0.166 -0.0639  0.4525  0.4865
    1MOL   O150  150   4.793   0.920   0.225  0.4660 -0.5093  0.0852
    1MOL   O151  151   4.589   0.916   0.121 -0.2704 -0.1785 -0.5107
    1MOL   H152  152   4.638   0.544   0.277  1.4117  0.6744 -1.5473
    1MOL   H153  153   4.508   0.630   0.242  0.0714  0.3264 -0.1429
    1MOL   H154  154   4.619   0.568   0.006 -0.4721 -0.1214 -0.0496
    1MOL   H155  155   4.675   0.721   7.707  0.6652 -1.0938 -0.2665
    1MOL   H156  156   4.524   0.715   0.031 -1.2594 -2.0779 -1.1797
    1MOL   H157  157   4.599   1.009   0.135  0.3796 -0.2728 -0.2772
    1MOL   C158  158   4.851   0.644   0.154 -0.8265 -0.8091  0.1734
    1MOL   C159  159   4.894   0.506   0.103 -0.1270 -0.4249 -0.4159
    1MOL   C160  160   4.812   0.392   0.163  0.0980 -0.3580  0.0030
    1MOL   C161  161   4.883   0.496   7.714  0.2553 -0.0078 -0.0561
    1MOL   O162  162   4.828   0.404   7.655  0.4392  0.4430  0.8817
    1MOL   O163  163   4.927   0.612   7.661 -0.1232 -0.4884  0.1931
    1MOL   H164  164   4.902   0.721   0.096 -1.6036 -1.2284 -1.1069
    1MOL   H165  165   4.904   0.657   0.248 -0.2432 -1.0077 -0.1279
    1MOL   H166  166   4.854   0.293   0.145  2.5675  1.0414 -2.1972
    1MOL   H167  167   4.706   0.392   0.138 -0.1002  1.0742  0.7655
    1MOL   H168  168   4.818   0.405   0.271 -1.6203 -2.3432  0.3746
    1MOL   H169  169   4.918   0.613   7.567  2.0602 -0.4969 -0.0443
    1MOL   C170  170   5.045   0.503   0.138 -0.2012  0.0298 -0.3751
    1MOL   C171  171   5.146   0.389   0.109 -0.0614 -0.0662  0.4127
    1MOL   C172  172   5.106   0.253   0.164  0.2200  0.4888 -0.0080
    1MOL   C173  173   5.177   0.374   7.725 -0.3706  0.6603 -0.2947
    1MOL   O174  174   5.139   0.280   7.657 -0.3070 -0.7632  0.8761
    1MOL   O175  175   5.241   0.479   7.677 -0.0087  0.1549  0.1997
    1MOL   H176  176   5.087   0.602   0.120 -1.5460  1.0250  1.7373
    1MOL   H177  177   5.034   0.495   0.246  0.2360 -2.6505 -0.4938
    1MOL   H178  178   5.060   0.265   0.262  0.2722  0.6628 -0.0062
    1MOL   H179  179   5.190   0.183   0.164 -1.0998 -1.1580 -0.9291
    1MOL   H180  180   5.039   0.198   0.097  1.8316 -1.9872  0.3255
    1MOL   H181  181   5.262   0.455   7.588  0.7008 -1.2483  0.7254
    1MOL   C182  182   5.285   0.429   0.185 -0.2856  0.1237 -0.4697
    1MOL   C183  183   5.416   0.342   0.207 -0.7282  0.4121  0.0163
    1MOL   C184  184   5.404   0.259   0.342 -0.2482  0.4122 -0.1498
    1MOL   C185  185   5.446   0.246   0.089  0.7124 -0.7844  0.9098
    1MOL   O186  186   5.410   0.129   0.085 -0.6676 -0.3948 -0.2442
    1MOL   O187  187   5.518   0.303   7.756 -0.2652  0.2424  0.4184
    1MOL   H188  188   5.307   0.519   0.128 -1.8667  0.1059 -1.1337
    1MOL   H189  189   5.257   0.469   0.282  0.8901  1.8623 -0.8386
    1MOL   H190  190   5.411   0.318   0.433 -2.1986 -1.2072  1.0620
    1MOL   H191  191   5.464   0.168   0.352 -1.7499 -0.6678 -0.7272
    1MOL   H192  192   5.308   0.210   0.354 -0.8486  1.4554 -0.7029
    1MOL   H193  193   5.528   0.232   7.695 -1.0416 -3.1679  4.0726
    1MOL   C194  194   5.539   0.445   0.230  1.2036 -0.3855 -0.1640
    1MOL   C195  195   5.693   0.406   0.276  0.4069 -0.3434 -0.3505
    1MOL   C196  196   5.693   0.351   0.421 -0.2417 -0.0279  0.4443
    1MOL   C197  197   5.774   0.308   0.183 -0.1451  0.2376  0.1233
    1MOL   O198  198   5.834   0.208   0.225  0.4086 -0.5229 -0.4051
    1MOL   O199  199   5.784   0.354   0.059 -0.1587  0.1847  0.2181
    1MOL   H200  200   5.538   0.502   0.137 -1.6994  3.4449  2.0460
    1MOL   H201  201   5.503   0.524   0.296 -0.0198 -1.3292  0.3013
    1MOL   H202  202   5.791   0.319   0.459 -1.1416 -1.8420  1.3038
    1MOL   H203  203   5.639   0.257   0.433 -0.7680  0.2089 -0.0860
    1MOL   H204  204   5.651   0.423   0.491  0.1599  0.7406 -0.1064
    1MOL   H205  205   5.721   0.421   0.035  0.2253  0.6074  0.3715
    1MOL   C206  206   5.781   0.539   0.289  0.1688  0.1837  0.4320
    1MOL   C207  207   5.765   0.672   0.203 -0.1661 -0.1187 -0.0059
    1MOL   C208  208   5.774   0.640   0.052 -1.1448 -0.0297 -0.6496
    1MOL   C209  209   5.637   0.754   0.226  0.4164  0.5077  0.3821
    1MOL   O210  210   5.578   0.806   0.136  0.5088 -0.6913  0.1497
    1MOL   O211  211   5.604   0.774   0.357  0.0288 -0.2324  0.0067
    1MOL   H212  212   5.777   0.569   0.393  1.3470  1.5706  0.0888
    1MOL   H213  213   5.887   0.513   0.280  0.3120  0.8067  0.2714
    1MOL   H214  214   5.784   0.729   7.758  0.9719  0.9155  0.9618
    1MOL   H215  215   5.688   0.583   0.018  0.2539 -1.2943 -2.1084
    1MOL   H216  216   5.870   0.591   0.034  0.3726  2.6478 -0.2357
    1MOL   H217  217   5.531   0.834   0.361 -0.2185 -0.6600  2.2638
    1MOL   C218  218   5.895   0.763   0.244  0.8288 -0.4091  0.9068
    1MOL   C219  219   5.920   0.919   0.227 -0.6927 -0.5486 -0.0359
    1MOL   C220  220   5.837   1.005   0.333 -0.1190 -0.7316  0.3901
    1MOL   C221  221   6.061   0.958   0.274  0.1095  0.3448 -0.2491
    1MOL   O222  222   6.155   1.001   0.202  0.5466  0.6449  0.1880
    1MOL   O223  223   6.083   0.934   0.405 -0.0486 -0.0554 -0.0695
    1MOL   H224  224   5.907   0.755   0.352 -0.7751 -1.2593  1.0304
    1MOL   H225  225   5.979   0.715   0.193 -1.0473 -1.9035 -0.8228
    1MOL   H226  226   5.868   1.104   0.364  2.1535 -1.1247 -0.5290
    1MOL   H227  227   5.815   0.950   0.425  0.1567 -0.0282  0.8752
    1MOL   H228  228   5.743   1.018   0.279  0.7527 -0.1949 -1.0270
    1MOL   H229  229   6.006   0.909   0.453 -0.6781  1.2310 -0.3749
    1MOL   C230  230   5.885   0.959   0.076  0.0475 -0.2884 -0.3616
    1MOL   C231  231   5.907   1.112   0.040 -0.6360 -0.2188 -0.1423
    1MOL   C232  232   6.005   1.123   7.687 -0.3857  1.1574  0.0575
    1MOL   C233  233   5.787   1.194   0.007 -0.0911  0.4934 -0.1404
    1MOL   O234  234   5.711   1.180   7.678 -0.6820 -0.0132 -0.1217
    1MOL   O235  235   5.759   1.278   0.113 -0.2779  0.0890 -0.7299
    1MOL   H236  236   5.943   0.903   0.003  0.4566  0.9684 -1.0055
    1MOL   H237  237   5.780   0.937   0.053  0.6671 -2.7093 -1.0710
    1MOL   H238  238   6.102   1.081   7.714 -0.7936 -1.0095 -1.7976
    1MOL   H239  239   6.014   1.228   7.659  0.3257  1.1339  0.1826
    1MOL   H240  240   5.973   1.057   7.607  1.2791 -0.2698  0.5634
    1MOL   H241  241   5.683   1.333   0.099 -1.9454 -1.9733 -0.1040
    1MOL   H242  242   5.947   1.158   0.130 -1.6422  0.7423 -0.1815
    2MOL     C1  243   1.319   3.354   7.106  0.1518 -0.6951  0.6169
    2MOL     C2  244   1.342   3.491   7.178 -0.2811 -0.3655 -0.0414
    2MOL     C3  245   1.491   3.518   7.150 -0.6484  0.8040 -0.5655
    2MOL     C4  246   1.269   3.607   7.113 -0.2409  0.6286  0.1169
    2MOL     O5  247   1.222   3.702   7.173  0.1085 -0.0344  0.2536
    2MOL     O6  248   1.255   3.586   6.981  0.1520 -0.3504 -0.7594
    2MOL     H7  249   1.220   3.317   7.134 -2.0641  3.2367 -1.5224
    2MOL     H8  250   1.402   3.286   7.123  0.9366 -0.2761 -1.3828
    2MOL     H9  251   1.510   3.498   7.044  0.2302  0.7888 -0.4051
    2MOL    H10  252   1.565   3.454   7.198 -1.8965  0.0082  0.3113
    2MOL    H11  253   1.527   3.620   7.168 -0.5377  0.7259 -0.3497
    2MOL    H12  254   1.200   3.662   6.966 -1.7669 -1.5642 -0.0782
    2MOL    H13  255   1.330   3.358   6.997 -1.7319 -1.1001  0.3981
    2MOL    C14  256   1.316   3.497   7.335 -0.5253  0.3457 -0.2158
    2MOL    C15  257   1.188   3.436   7.402 -0.9597 -0.4884  0.7007
    2MOL    C16  258   1.063   3.478   7.316  0.8072 -0.3218 -0.5312
    2MOL    C17  259   1.197   3.280   7.398  0.3105 -0.0331 -0.1187
    2MOL    O18  260   1.298   3.217   7.364  0.3908 -0.2610  0.3594
    2MOL    O19  261   1.087   3.218   7.445 -0.7145 -0.3258 -0.5625
    2MOL    H20  262   1.399   3.443   7.379  0.3694  0.7317 -1.4035
    2MOL    H21  263   1.328   3.604   7.354 -0.6956  0.3073  0.1117
    2MOL    H22  264   1.065   3.437   7.215  0.6323  0.0055 -0.6695
    2MOL    H23  265   1.041   3.585   7.310 -0.7647 -0.7529 -2.9973
    2MOL    H24  266   0.985   3.426   7.372  0.3267 -0.1331 -1.0227
    2MOL    H25  267   1.103   3.125   7.446  2.3671  0.1273  2.4372
    2MOL    C26  268   1.164   3.493   7.553 -0.0700  0.2842  0.5307
    2MOL    C27  269   1.272   3.512   7.670 -0.4224  0.6964  0.5710
    2MOL    C28  270   1.190   3.565   0.033  1.4786 -0.3731  0.1609
    2MOL    C29  271   1.339   3.370   7.704  0.3883  0.0144 -0.1579
    2MOL    O30  272   1.282   3.275   7.762 -0.2674  0.1159  1.1134
    2MOL    O31  273   1.468   3.355   7.671  0.5424  0.2755 -0.1413
    2MOL    H32  274   1.119   3.592   7.556  1.0377  0.8013  0.5062
    2MOL    H33  275   1.092   3.426   7.600 -0.0049 -0.2867 -0.1840
    2MOL    H34  276   1.101   3.502   0.035 -0.4595  2.2993  1.4936
    2MOL    H35  277   1.161   3.669   0.027  2.0820 -0.1980  0.1933
    2MOL    H36  278   1.252   3.551   0.122  0.3271  1.1963  1.2441
    2MOL    H37  279   1.491   3.271   7.709 -1.8483  0.9374  2.9965
    2MOL    C38  280   1.397   3.610   7.642 -0.1048 -0.0178  0.0292
    2MOL    C39  281   1.373   3.769   7.616  0.6614  0.0199  0.3418
    2MOL    C40  282   1.238   3.801   7.541  0.7135  0.6733 -0.2945
    2MOL    C41  283   1.378   3.841   7.749  0.4174 -0.0131 -0.2394
    2MOL    O42  284   1.475   3.845   0.055 -0.5359  0.1801 -0.1442
    2MOL    O43  285   1.266   3.903   0.014  0.2001  0.0903 -0.3308
    2MOL    H44  286   1.470   3.605   7.723 -0.8683  0.8251  0.7742
    2MOL    H45  287   1.445   3.562   7.557 -1.2908 -2.1164  0.5003
    2MOL    H46  288   1.245   3.766   7.438  0.5687  0.3666 -0.2023
    2MOL    H47  289   1.220   3.908   7.541 -0.3910  0.5011  0.0807
    2MOL    H48  290   1.149   3.771   7.596  0.9685 -1.0718 -0.7861
    2MOL    H49  291   1.292   3.948   0.093  0.0585  1.0012 -0.7882
    2MOL    C50  292   1.494   3.813   7.536 -0.7906  0.4495 -0.4186
    2MOL    C51  293   1.529   3.957   7.478  0.9490  0.4848  0.4768
    2MOL    C52  294   1.462   4.071   7.548  0.1926  0.5441  0.3518
    2MOL    C53  295   1.682   3.957   7.490  0.1671  0.2940  0.8263
    2MOL    O54  296   1.757   3.867   7.451 -0.3344  0.6052  0.1142
    2MOL    O55  297   1.726   4.072   7.549 -0.8690  0.0741  0.3613
    2MOL    H56  298   1.578   3.769   7.589 -1.7811  0.9144  1.5932
    2MOL    H57  299   1.500   3.743   7.452  0.7055  0.7961 -0.6090
    2MOL    H58  300   1.354   4.083   7.546  0.0204 -0.8252  0.8654
    2MOL    H59  301   1.494   4.172   7.523 -2.5979  1.0913 -1.1634
    2MOL    H60  302   1.473   4.060   7.656 -0.5935 -0.5812  0.3259
    2MOL    H61  303   1.821   4.074   7.550 -0.8184 -1.5137 -0.9232
    2MOL    C62  304   1.498   3.959   7.324 -0.0048  0.1699  0.3841
    2MOL    C63  305   1.501   4.081   7.229  0.2204 -0.1505  0.3201
    2MOL    C64  306   1.622   4.178   7.247  0.5492  0.2590 -0.3608
    2MOL    C65  307   1.516   4.024   7.085 -0.6889  0.1251 -0.5882
    2MOL    O66  308   1.488   3.908   7.057  0.1117  0.5122 -0.0917
    2MOL    O67  309   1.554   4.117   6.998 -0.0181  0.2646 -0.0501
    2MOL    H68  310   1.563   3.882   7.284 -0.8202 -0.3870  0.1055
    2MOL    H69  311   1.403   3.909   7.301  0.8111 -1.4625  0.4945
    2MOL    H70  312   1.628   4.270   7.188 -3.2001  0.7500 -0.1062
    2MOL    H71  313   1.711   4.116   7.240 -1.3999 -2.9459  1.7197
    2MOL    H72  314   1.614   4.215   7.350 -2.5385 -0.6066 -0.2194
    2MOL    H73  315   1.567   4.071   6.916  1.0425  0.4037  0.0332
    2MOL    C74  316   1.377   4.183   7.238  0.0203 -1.0207 -0.1916
    2MOL    C75  317   1.233   4.167   7.181  0.4200  0.1030 -0.5673
    2MOL    C76  318   1.222   4.200   7.033 -0.1285 -0.9355  0.2718
    2MOL    C77  319   1.183   4.026   7.209  0.2592 -0.0466  0.4022
    2MOL    O78  320   1.127   3.990   7.315 -0.1448 -0.7370  0.0496
    2MOL    O79  321   1.215   3.946   7.109 -0.6152 -0.1246  0.4355
    2MOL    H80  322   1.358   4.186   7.345  0.9957  2.7289 -0.0550
    2MOL    H81  323   1.418   4.280   7.209  2.7003 -1.6193  1.4576
    2MOL    H82  324   1.262   4.126   6.964  0.1905  0.2439 -0.8429
    2MOL    H83  325   1.265   4.295   7.001  1.0427 -1.1172  1.2911
    2MOL    H84  326   1.116   4.204   7.006  0.0930  1.0519 -0.3813
    2MOL    H85  327   1.204   3.858   7.142 -1.4081  0.4801  1.8252
    2MOL    C86  328   1.157   4.281   7.255  0.3875  0.4226 -0.0255
    2MOL    C87  329   1.020   4.359   7.224 -0.1476 -0.5812  0.7046
    2MOL    C88  330   1.050   4.462   7.105  0.2682 -0.0137  0.2237
    2MOL    C89  331   0.903   4.269   7.168 -0.1124  0.5944  0.0635
    2MOL    O90  332   0.832   4.303   7.076 -0.1309 -0.0371  0.1017
    2MOL    O91  333   0.887   4.154   7.236  0.8482  0.2804 -0.2530
    2MOL    H92  334   1.131   4.230   7.348  0.2490  1.3627  0.4546
    2MOL    H93  335   1.237   4.354   7.269  2.1424 -1.3702 -0.4522
    2MOL    H94  336   0.974   4.538   7.086  0.9554  0.5843 -0.1105
    2MOL    H95  337   1.039   4.412   7.008 -0.2541 -3.0746  1.7978
    2MOL    H96  338   1.145   4.514   7.103  0.6274 -0.6952 -1.9298
    2MOL    H97  339   0.814   4.104   7.204  1.1632  1.2097 -2.4685
    2MOL    C98  340   0.964   4.422   7.354 -0.0322 -0.1617 -0.0483
    2MOL    C99  341   1.049   4.525   7.446 -0.0063  0.3363  0.2226
    2MOL   C100  342   1.132   4.612   7.355 -0.4993 -0.4662  0.1926
    2MOL   C101  343   0.944   4.614   7.513  0.7231  0.4972  0.3024
    2MOL   O102  344   0.938   4.738   7.506  0.1325  0.0149  0.0385
    2MOL   O103  345   0.868   4.543   7.607  0.0817 -0.0164 -0.1184
    2MOL   H104  346   0.869   4.466   7.323 -0.1144 -1.0846 -1.1291
    2MOL   H105  347   0.941   4.334   7.414  0.5333 -2.0231 -2.4804
    2MOL   H106  348   1.187   4.687   7.412  2.3775 -1.1755 -1.5381
    2MOL   H107  349   1.081   4.676   7.283  1.0041  1.6883  0.9973
    2MOL   H108  350   1.214   4.566   7.300  0.7186  1.8488 -0.0044
    2MOL   H109  351   0.821   4.608   7.658  0.9441 -0.3034  1.0666
    2MOL   C110  352   1.144   4.436   7.543  0.1213  0.5647  0.4029
    2MOL   C111  353   1.199   4.484   7.683  0.1334 -0.2159 -0.2836
    2MOL   C112  354   1.262   4.626   7.678 -0.2823  0.0703 -0.5700
    2MOL   C113  355   1.084   4.470   0.022 -0.2598  0.8802 -0.5224
    2MOL   O114  356   1.070   4.553   0.107 -0.3182  0.6019  0.9050
    2MOL   O115  357   1.001   4.365   0.008  0.0239  0.2794 -0.3023
    2MOL   H116  358   1.109   4.333   7.544  0.4690  0.3595 -2.7878
    2MOL   H117  359   1.233   4.412   7.484  0.5786  1.6330  0.6485
    2MOL   H118  360   1.183   4.699   7.666 -1.6452 -1.4954 -1.4139
    2MOL   H119  361   1.328   4.646   7.594 -2.2755  0.9695 -1.9568
    2MOL   H120  362   1.296   4.652   0.011 -1.9756 -1.3116  0.3770
    2MOL   H121  363   0.939   4.363   0.080  2.7087  0.5102  2.0873
    2MOL   C122  364   1.314   4.382   7.730  0.1889  0.4226  0.1720
    2MOL   C123  365   1.364   4.356   0.118  0.5995 -0.2161  0.0755
    2MOL   C124  366   1.394   4.483   0.198  0.4596 -0.2090 -0.1883
    2MOL   C125  367   1.256   4.272   0.190 -0.6027  0.2593  0.4244
    2MOL   O126  368   1.171   4.316   0.268 -0.7853 -0.4365 -0.2344
    2MOL   O127  369   1.257   4.140   0.151 -0.1788  0.4443 -0.3757
    2MOL   H128  370   1.272   4.286   7.700 -0.8187 -0.5033  4.3160
    2MOL   H129  371   1.405   4.395   7.671 -0.2611  1.0019 -0.4074
    2MOL   H130  372   1.487   4.529   0.165  0.1862  1.7806  1.7503
    2MOL   H131  373   1.411   4.457   0.302 -1.6376 -0.9977 -0.0153
    2MOL   H132  374   1.313   4.557   0.202 -2.1292 -2.9373 -0.2222
    2MOL   H133  375   1.213   4.093   0.220 -1.5598  1.1457 -0.7580
    2MOL   C134  376   1.503   4.283   0.099  0.4385 -0.5052 -0.9695
    2MOL   C135  377   1.607   4.226   0.213 -0.0437  0.0349 -0.2941
    2MOL   C136  378   1.697   4.342   0.253  0.8927 -0.1913  0.2095
    2MOL   C137  379   1.537   4.158   0.334 -0.7792 -0.4734  0.3268
    2MOL   O138  380   1.495   4.042   0.330  0.2042  0.3828 -0.4716
    2MOL   O139  381   1.539   4.241   0.444 -0.2072 -1.1221 -0.0057
    2MOL   H140  382   1.490   4.213   0.016 -2.2889 -0.5018 -0.5829
    2MOL   H141  383   1.562   4.351   0.038  0.7877 -1.7580 -2.0815
    2MOL   H142  384   1.769   4.353   0.172 -1.8957  1.0988 -2.1503
    2MOL   H143  385   1.755   4.322   0.343 -1.4392 -0.6167  1.6628
    2MOL   H144  386   1.633   4.427   0.274 -0.7605 -1.7536  1.6500
    2MOL   H145  387   1.507   4.194   0.519 -0.2221 -1.9813 -0.5410
    2MOL   C146  388   1.695   4.124   0.135  0.1685 -1.0061  0.4017
    2MOL   C147  389   1.832   4.043   0.176  0.8158  0.2681 -0.0866
    2MOL   C148  390   1.946   4.132   0.134  0.1019 -0.0629  0.2360
    2MOL   C149  391   1.832   4.008   0.321 -0.0443  0.3382 -0.2802
    2MOL   O150  392   1.918   4.036   0.404 -0.2774 -0.0400 -0.4903
    2MOL   O151  393   1.733   3.926   0.353 -0.8385 -0.2716  0.2336
    2MOL   H152  394   1.626   4.044   0.107  1.0175 -2.7416  3.0748
    2MOL   H153  395   1.720   4.177   0.043 -0.1224 -0.3928  0.6717
    2MOL   H154  396   1.943   4.236   0.166  2.3155  0.3092 -0.6673
    2MOL   H155  397   1.978   4.124   0.030 -1.7756 -0.3036 -0.3376
    2MOL   H156  398   2.029   4.102   0.198  0.7910 -2.2823 -1.6302
    2MOL   H157  399   1.739   3.910   0.446  2.8835  0.2773  0.1645
    2MOL   C158  400   1.836   3.914   0.088 -0.7410 -0.6318 -0.0334
    2MOL   C159  401   1.949   3.804   0.102  0.0879  0.1934  0.0113
    2MOL   C160  402   2.083   3.854   0.037 -0.0358 -0.2950 -0.2951
    2MOL   C161  403   1.988   3.759   0.247 -0.5099 -0.2385 -1.0325
    2MOL   O162  404   2.093   3.790   0.300 -0.2201  0.0067  0.0649
    2MOL   O163  405   1.895   3.674   0.313  0.2712  0.2375  0.3517
    2MOL   H164  406   1.747   3.861   0.120 -1.1950  1.6309  2.5611
    2MOL   H165  407   1.816   3.934   7.750 -1.5744  1.4832  0.5162
    2MOL   H166  408   2.065   3.895   7.705  0.7995  1.7892  0.3723
    2MOL   H167  409   2.158   3.777   0.026  1.8690  1.4263  0.2857
    2MOL   H168  410   2.135   3.932   0.094 -1.0805  0.1851  0.0180
    2MOL   H169  411   1.912   3.668   0.406  0.8494  1.3829  0.3314
    2MOL   C170  412   1.889   3.685   0.017  0.6630 -0.7011  0.2105
    2MOL   C171  413   1.974   3.582   7.696  0.8496 -0.0033  0.2314
    2MOL   C172  414   2.028   3.670   7.576  0.4136  0.3134  0.0997
    2MOL   C173  415   2.086   3.516   0.003  0.1377 -0.1283 -1.3619
    2MOL   O174  416   2.207   3.525   7.754 -0.0341 -0.6302 -0.1673
    2MOL   O175  417   2.038   3.437   0.103 -0.0029  0.6993  0.3437
    2MOL   H176  418   1.831   3.626   0.089 -1.3852  0.0293 -0.7895
    2MOL   H177  419   1.812   3.726   7.718 -0.3046  0.5879  2.1079
    2MOL   H178  420   2.135   3.690   7.585  0.2824  1.7114 -1.2347
    2MOL   H179  421   1.982   3.768   7.563 -0.1049  0.2222  1.1513
    2MOL   H180  422   2.014   3.623   7.479  0.2538 -0.7609  0.6349
    2MOL   H181  423   1.944   3.427   0.103  0.0617 -0.0900 -1.8841
    2MOL   C182  424   1.873   3.480   7.632 -0.1613 -0.2015  0.2364
    2MOL   C183  425   1.912   3.342   7.568  0.5479  0.2957  1.0063
    2MOL   C184  426   2.039   3.349   7.485  0.8695  0.5067  0.2574
    2MOL   C185  427   1.936   3.238   7.674  0.0429  0.5494 -0.0555
    2MOL   O186  428   1.862   3.227   7.767 -0.2186 -0.1089  0.7204
    2MOL   O187  429   2.045   3.165   7.653  0.2399  0.1377  0.4899
    2MOL   H188  430   1.790   3.472   7.702  0.7235 -2.4724  1.0711
    2MOL   H189  431   1.830   3.540   7.552  0.6584  0.8116  0.5484
    2MOL   H190  432   2.134   3.366   7.536  2.5597 -3.1009 -1.5076
    2MOL   H191  433   2.028   3.425   7.407 -0.6397 -0.3254 -0.3654
    2MOL   H192  434   2.042   3.262   7.419  0.6701 -1.7914  3.1789
    2MOL   H193  435   2.070   3.110   7.726 -0.2267  0.0867  0.6117
    2MOL   C194  436   1.786   3.296   7.482 -0.0020  0.0737 -0.2722
    2MOL   C195  437   1.791   3.179   7.369 -0.3123  0.2514  0.0381
    2MOL   C196  438   1.868   3.053   7.417 -0.1995 -0.1370  0.2637
    2MOL   C197  439   1.644   3.126   7.340  0.8192 -0.4906  0.2988
    2MOL   O198  440   1.602   3.013   7.341 -0.6139 -0.3416  0.3044
    2MOL   O199  441   1.564   3.233   7.328  0.8686  0.3993 -0.0172
    2MOL   H200  442   1.710   3.282   7.559 -0.1645 -0.2961 -0.4939
    2MOL   H201  443   1.735   3.383   7.442  1.7041  1.5208  0.6289
    2MOL   H202  444   1.868   2.965   7.352  2.9743 -0.8833  1.1824
    2MOL   H203  445   1.830   3.021   7.514 -0.2093  0.3438  0.4177
    2MOL   H204  446   1.970   3.069   7.451 -0.7329  0.7190  1.4915
    2MOL   H205  447   1.474   3.207   7.339  0.5894  1.1958 -0.3667
    2MOL   C206  448   1.842   3.247   7.237 -0.5375  0.7567  0.8610
    2MOL   C207  449   1.903   3.170   7.111  0.3673 -0.2635  0.1021
    2MOL   C208  450   2.047   3.127   7.137 -0.4242 -0.9461  0.1457
    2MOL   C209  451   1.826   3.041   7.075  0.3746 -0.1357 -0.5235
    2MOL   O210  452   1.880   2.936   7.037  0.7037  0.1324  0.3646
    2MOL   O211  453   1.690   3.062   7.076 -0.2550  0.2639 -0.5390
    2MOL   H212  454   1.766   3.316   7.202 -1.3490 -1.5022 -2.0741
    2MOL   H213  455   1.914   3.324   7.262  1.3851 -0.1432 -1.6966
    2MOL   H214  456   2.106   3.102   7.049  0.5262  0.1552  0.4673
    2MOL   H215  457   2.039   3.030   7.186  0.2925 -0.5894  0.9831
    2MOL   H216  458   2.112   3.179   7.208  1.0718 -1.6277 -0.6917
    2MOL   H217  459   1.646   2.988   7.036  0.6108 -0.1244 -0.7925
    2MOL   C218  460   1.906   3.266   6.983 -0.3232  0.1887 -0.3192
    2MOL   C219  461   1.974   3.406   6.991  0.2422 -0.7215  0.4869
    2MOL   C220  462   2.104   3.412   7.072  0.0234  0.0654 -0.3632
    2MOL   C221  463   2.011   3.439   6.844  0.2189  0.1469 -0.1664
    2MOL   O222  464   2.128   3.437   6.795  0.3313 -0.3659  0.6370
    2MOL   O223  465   1.899   3.454   6.769  0.3076 -0.3450  0.2484
    2MOL   H224  466   1.972   3.201   6.925  0.3324 -1.0955  1.8013
    2MOL   H225  467   1.814   3.271   6.924  1.1310  0.3008 -2.6276
    2MOL   H226  468   2.101   3.407   7.181  1.8599  0.2314 -0.2859
    2MOL   H227  469   2.173   3.494   7.053  2.1400 -1.4465  0.5445
    2MOL   H228  470   2.163   3.324   7.045 -0.8682 -0.3358 -1.0041
    2MOL   H229  471   1.909   3.480   6.679 -1.5108 -1.0325 -0.1619
    2MOL   C230  472   1.869   3.514   7.050  0.6441  1.3512  0.5739
    2MOL   C231  473   1.906   3.663   7.035  0.7172  0.4764 -0.1272
    2MOL   C232  474   1.791   3.747   7.082  0.2411 -0.7022  0.0191
    2MOL   C233  475   2.028   3.713   7.111  0.1730 -0.6505  1.1886
    2MOL   O234  476   2.125   3.765   7.058  0.4459 -0.0920 -0.5081
    2MOL   O235  477   2.006   3.693   7.247  0.5816 -0.1990  0.3346
    2MOL   H236  478   1.777   3.505   6.992  2.6518  1.5378 -2.7705
    2MOL   H237  479   1.833   3.488   7.149  0.3721 -2.9087 -0.5679
    2MOL   H238  480   1.776   3.730   7.189  0.6707 -2.5674 -0.2056
    2MOL   H239  481   1.704   3.732   7.019 -0.2370 -3.6503  1.2972
    2MOL   H240  482   1.817   3.853   7.075 -0.5804 -0.5605 -0.8864
    2MOL   H241  483   2.073   3.733   7.301 -0.5333 -0.6225  2.0978
    2MOL   H242  484   1.922   3.689   6.930 -2.9722 -0.3108 -0.9588
    3MOL     C1  485   6.805   5.804   0.596  0.7290  0.0420  0.8319
    3MOL     C2  486   6.796   5.957   0.606 -0.3155  0.5836  0.1439
    3MOL     C3  487   6.651   5.983   0.616  0.7189  0.1998  0.0594
    3MOL     C4  488   6.869   6.009   0.729 -0.0540 -0.5824 -0.0141
    3MOL     O5  489   6.816   6.088   0.811 -0.9419  0.2004  0.8203
    3MOL     O6  490   6.991   5.953   0.749  0.0738 -0.2042  0.0438
    3MOL     H7  491   6.892   5.779   0.535  1.5555  0.8724  1.6572
    3MOL     H8  492   6.720   5.761   0.543  1.7530  1.7575 -2.3672
    3MOL     H9  493   6.624   6.085   0.644  1.5057 -0.3552  2.9394
    3MOL    H10  494   6.611   5.927   0.701  1.9626 -3.0549 -1.4027
    3MOL    H11  495   6.600   5.957   0.522  0.5619  0.4821  0.0662
    3MOL    H12  496   7.032   5.892   0.688  1.1910  0.9389 -0.3793
    3MOL    H13  497   6.801   5.746   0.688  0.8618 -2.5331 -0.7067
    3MOL    C14  498   6.864   6.020   0.478 -0.7894 -0.2923  0.0347
    3MOL    C15  499   6.835   6.169   0.423  0.6863 -0.0937  0.0592
    3MOL    C16  500   6.693   6.188   0.365  0.0584  0.5854 -0.4090
    3MOL    C17  501   6.845   6.277   0.535  0.0402 -0.2480 -0.0200
    3MOL    O18  502   6.949   6.325   0.575 -0.1375 -0.4143  0.1315
    3MOL    O19  503   6.724   6.310   0.591 -0.2271 -0.0446  0.2223
    3MOL    H20  504   6.971   6.012   0.495 -0.7531  1.1606  0.5454
    3MOL    H21  505   6.843   5.957   0.391  0.4913 -2.1267  1.0253
    3MOL    H22  506   6.616   6.171   0.439  1.3557  0.8825  1.0231
    3MOL    H23  507   6.664   6.109   0.295 -0.7186  0.2472  0.2881
    3MOL    H24  508   6.682   6.279   0.306 -1.0862  1.7520  1.5939
    3MOL    H25  509   6.748   6.373   0.657  1.1623  0.0706 -0.3641
    3MOL    C26  510   6.940   6.212   0.309  0.1017 -0.5271  0.1424
    3MOL    C27  511   6.956   6.143   0.168  0.1366  0.6937  0.6313
    3MOL    C28  512   7.096   6.196   0.123 -0.6934  0.5569  0.1096
    3MOL    C29  513   6.974   5.989   0.183 -0.0221 -0.0177  0.1754
    3MOL    O30  514   7.073   5.926   0.209 -0.0903 -0.7461  0.2189
    3MOL    O31  515   6.853   5.928   0.176  0.0007  0.0240 -0.4059
    3MOL    H32  516   6.929   6.320   0.301  1.7801 -0.4094 -0.6780
    3MOL    H33  517   7.030   6.202   0.369  0.6073  1.9282 -0.1514
    3MOL    H34  518   7.079   6.300   0.094 -2.6305  0.8242  2.0907
    3MOL    H35  519   7.138   6.152   0.032  0.2853  0.0951  0.7758
    3MOL    H36  520   7.177   6.186   0.195 -0.1221  0.7438 -0.4984
    3MOL    H37  521   6.869   5.836   0.185 -0.0422  0.0721  0.1889
    3MOL    C38  522   6.839   6.195   0.074 -0.1594  0.6472  0.5379
    3MOL    C39  523   6.847   6.186   7.686  0.5169 -0.1195 -0.2999
    3MOL    C40  524   6.960   6.266   7.624 -0.0108 -0.4207 -0.1884
    3MOL    C41  525   6.871   6.042   7.636  0.2675  0.3188 -0.5209
    3MOL    O42  526   6.939   6.008   7.540  0.2176 -0.1217 -0.1147
    3MOL    O43  527   6.782   5.957   7.694 -0.3748  0.0758 -0.1182
    3MOL    H44  528   6.744   6.145   0.092 -0.0870 -1.0685 -3.2181
    3MOL    H45  529   6.820   6.301   0.094 -2.7316  0.1963  0.6366
    3MOL    H46  530   6.982   6.366   7.663  2.1841 -0.2737 -1.6674
    3MOL    H47  531   6.948   6.265   7.516  2.3288 -1.5307 -0.4802
    3MOL    H48  532   7.061   6.225   7.637  0.1775  0.7549  2.4816
    3MOL    H49  533   6.761   5.973   0.017  2.5397  0.4530  0.5408
    3MOL    C50  534   6.709   6.229   7.623 -0.2930  0.5022 -0.4718
    3MOL    C51  535   6.648   6.373   7.610 -0.2720  0.2842 -0.8828
    3MOL    C52  536   6.631   6.452   7.747  0.0159 -0.4483  0.4782
    3MOL    C53  537   6.732   6.456   7.508 -0.3461 -0.6477  0.0805
    3MOL    O54  538   6.768   6.570   7.531 -0.1735 -0.1645  0.7643
    3MOL    O55  539   6.750   6.388   7.393 -0.3056  0.4972 -0.4867
    3MOL    H56  540   6.702   6.174   7.529  1.2320 -3.0136  1.3625
    3MOL    H57  541   6.639   6.170   7.681  0.3911 -1.0894 -1.2108
    3MOL    H58  542   6.725   6.472   0.031  0.4616  1.0188 -0.8901
    3MOL    H59  543   6.563   6.398   0.045  0.5831 -2.0276 -0.2145
    3MOL    H60  544   6.605   6.553   7.715  0.6863 -0.6671 -0.7868
    3MOL    H61  545   6.803   6.438   7.333  1.5480 -1.1397 -0.2553
    3MOL    C62  546   6.503   6.346   7.554  0.3027  0.2361  0.4759
    3MOL    C63  547   6.387   6.447   7.526 -0.5015  0.6026  0.7690
    3MOL    C64  548   6.295   6.440   7.652  0.2368  0.4053 -0.3080
    3MOL    C65  549   6.427   6.593   7.502 -0.2123 -0.8197 -0.5798
    3MOL    O66  550   6.391   6.686   7.568 -0.7104  0.1077  0.0452
    3MOL    O67  551   6.516   6.601   7.400 -0.4967 -0.0553  0.1424
    3MOL    H68  552   6.504   6.271   7.474 -0.4158 -0.1696  0.8391
    3MOL    H69  553   6.455   6.281   7.628  0.9619 -1.0189 -0.1703
    3MOL    H70  554   6.361   6.431   7.738  1.0689  2.2138 -0.7341
    3MOL    H71  555   6.231   6.351   7.649 -0.4982  0.9486 -1.0004
    3MOL    H72  556   6.236   6.529   7.676 -0.1495  0.1212 -0.1897
    3MOL    H73  557   6.535   6.693   7.396  0.6922 -0.2869  0.1535
    3MOL    C74  558   6.318   6.400   7.388  0.2417 -0.2806 -0.4392
    3MOL    C75  559   6.184   6.455   7.325 -0.9752 -0.0303 -0.3052
    3MOL    C76  560   6.082   6.448   7.439  0.2030 -0.5693  0.0607
    3MOL    C77  561   6.189   6.598   7.262 -0.0622 -0.1748  0.1827
    3MOL    O78  562   6.293   6.668   7.247 -0.0093  0.5324  0.2199
    3MOL    O79  563   6.071   6.635   7.202 -0.7157  0.7155  0.1148
    3MOL    H80  564   6.388   6.409   7.304 -1.1066 -0.4458 -1.5914
    3MOL    H81  565   6.299   6.292   7.394  0.7702 -0.3584 -0.0651
    3MOL    H82  566   6.075   6.358   7.499  0.3800 -0.7996 -0.2629
    3MOL    H83  567   5.987   6.483   7.397 -0.8257  0.0159  2.7149
    3MOL    H84  568   6.098   6.527   7.513 -0.1447  1.8044 -2.3006
    3MOL    H85  569   6.000   6.575   7.216 -2.1154  1.5718 -2.7641
    3MOL    C86  570   6.131   6.344   7.222  0.1988 -0.0615 -0.5846
    3MOL    C87  571   6.195   6.313   7.083  0.4468 -0.1242  0.3111
    3MOL    C88  572   6.108   6.190   7.040  0.4390  0.4276  0.2332
    3MOL    C89  573   6.149   6.433   6.987 -0.3127  0.2637 -0.1234
    3MOL    O90  574   6.034   6.456   6.956 -0.3069 -0.1241 -0.4951
    3MOL    O91  575   6.251   6.506   6.939  0.3145  0.3724 -0.0590
    3MOL    H92  576   6.133   6.249   7.275  1.7666 -0.1377 -0.7469
    3MOL    H93  577   6.023   6.354   7.212 -0.0009  0.0479  1.5732
    3MOL    H94  578   6.002   6.217   7.037 -0.2729 -1.9591  1.9130
    3MOL    H95  579   6.107   6.104   7.107  0.7521  1.0687  1.0646
    3MOL    H96  580   6.136   6.159   6.939 -0.2949 -0.1685  0.2053
    3MOL    H97  581   6.202   6.577   6.901 -0.2722 -1.0090 -1.9862
    3MOL    C98  582   6.350   6.275   7.086 -0.3447  0.5893  0.1476
    3MOL    C99  583   6.425   6.197   6.972 -0.6149  0.5689  0.3049
    3MOL   C100  584   6.383   6.238   6.826  0.7598 -0.4146  0.2103
    3MOL   C101  585   6.574   6.230   6.983 -0.0724 -0.0577  0.2486
    3MOL   O102  586   6.642   6.247   6.879  0.3253  0.0699  0.2104
    3MOL   O103  587   6.622   6.219   7.108 -0.1003 -0.0513  0.4134
    3MOL   H104  588   6.393   6.375   7.089  0.0628  0.4224 -0.1532
    3MOL   H105  589   6.377   6.236   7.185 -0.7411  1.5362  0.6315
    3MOL   H106  590   6.277   6.231   6.801  0.7503 -0.2331  0.1970
    3MOL   H107  591   6.429   6.170   6.754 -1.7270  0.1777 -2.0195
    3MOL   H108  592   6.400   6.344   6.807  0.2738 -0.2738  0.5344
    3MOL   H109  593   6.716   6.218   7.109 -0.1026 -1.0446  0.0199
    3MOL   C110  594   6.393   6.045   7.012  0.2236  0.4850  0.6393
    3MOL   C111  595   6.466   5.910   6.968 -0.1915 -0.1782 -0.0035
    3MOL   C112  596   6.477   5.905   6.815 -0.2389  0.0274 -0.4168
    3MOL   C113  597   6.614   5.916   7.019  0.1109 -0.1362  0.9377
    3MOL   O114  598   6.707   5.910   6.944 -0.0193  0.0945 -0.8013
    3MOL   O115  599   6.624   5.925   7.151 -0.0533 -0.1605 -0.0907
    3MOL   H116  600   6.391   6.048   7.121  1.4870  0.2882  0.6851
    3MOL   H117  601   6.294   6.015   6.978  0.8680  0.8328 -1.6156
    3MOL   H118  602   6.384   5.928   6.764 -0.7799  0.7309  0.8777
    3MOL   H119  603   6.508   5.804   6.786 -1.3844 -0.0416 -1.3978
    3MOL   H120  604   6.548   5.971   6.766  0.2861 -1.0726 -1.1802
    3MOL   H121  605   6.713   5.956   7.164  0.3175 -1.1656 -0.1343
    3MOL   C122  606   6.405   5.781   7.036  0.2021 -0.0628 -0.8795
    3MOL   C123  607   6.249   5.735   7.032  0.3378  0.4526  0.4208
    3MOL   C124  608   6.158   5.838   7.106  0.3387  0.0105 -0.3519
    3MOL   C125  609   6.206   5.732   6.881 -0.3817 -0.3792 -0.0913
    3MOL   O126  610   6.120   5.808   6.835 -0.5690  0.2819 -0.3199
    3MOL   O127  611   6.275   5.646   6.805 -0.1622  0.1871  0.6140
    3MOL   H128  612   6.480   5.703   7.019 -0.7925 -1.1266 -0.3887
    3MOL   H129  613   6.415   5.791   7.144 -0.3965  1.7933 -0.9810
    3MOL   H130  614   6.219   5.911   7.160  0.7770  0.6006 -1.6436
    3MOL   H131  615   6.100   5.784   7.182 -1.6349  2.3345 -0.1473
    3MOL   H132  616   6.080   5.887   7.049  1.3917 -0.0918 -1.9057
    3MOL   H133  617   6.358   5.608   6.832  0.3769  0.7985 -0.1356
    3MOL   C134  618   6.248   5.594   7.100 -0.1411 -0.6116 -0.1844
    3MOL   C135  619   6.128   5.494   7.106 -0.2869 -0.7263 -0.2827
    3MOL   C136  620   5.987   5.552   7.157 -0.1586 -0.1700 -0.4390
    3MOL   C137  621   6.107   5.436   6.964  0.0989  0.1511  0.7728
    3MOL   O138  622   5.998   5.411   6.919 -0.0113 -0.0031 -0.3104
    3MOL   O139  623   6.225   5.401   6.896  0.4106  0.3582  0.2920
    3MOL   H140  624   6.331   5.531   7.068 -1.1668 -1.6276 -0.8961
    3MOL   H141  625   6.268   5.612   7.206 -0.4057 -2.0406  0.1213
    3MOL   H142  626   5.909   5.476   7.158 -1.3424  1.0031 -1.0686
    3MOL   H143  627   5.946   5.622   7.084 -0.0549  1.5879  1.1525
    3MOL   H144  628   5.992   5.589   7.259  1.2437  0.7149 -0.8170
    3MOL   H145  629   6.190   5.349   6.825 -1.1552 -0.9719  2.0008
    3MOL   C146  630   6.177   5.370   7.184 -0.4103 -0.1973 -0.3002
    3MOL   C147  631   6.161   5.339   7.336 -0.3942 -0.6579 -1.0459
    3MOL   C148  632   6.229   5.456   7.414  0.4790 -0.5795  0.6467
    3MOL   C149  633   6.009   5.330   7.380 -0.6037 -0.5179  0.6191
    3MOL   O150  634   5.958   5.407   7.465 -0.2692  0.7831  0.2127
    3MOL   O151  635   5.946   5.237   7.303 -0.4939 -0.6805 -0.1518
    3MOL   H152  636   6.138   5.285   7.127  0.2564  1.8414 -3.9425
    3MOL   H153  637   6.283   5.351   7.169 -0.7648 -1.1758 -1.7218
    3MOL   H154  638   6.336   5.470   7.399  0.7374 -2.4367  0.5814
    3MOL   H155  639   6.211   5.446   7.521 -1.0470  2.1497  0.6966
    3MOL   H156  640   6.188   5.553   7.387  1.1605 -0.4571  0.0518
    3MOL   H157  641   5.854   5.232   7.324 -0.8558 -1.3658 -1.8108
    3MOL   C158  642   6.227   5.199   7.365 -0.6497  0.3085 -0.6232
    3MOL   C159  643   6.220   5.117   7.502  0.2144  0.1544  0.6549
    3MOL   C160  644   6.341   5.026   7.494 -0.0490  0.1129 -0.3870
    3MOL   C161  645   6.239   5.203   7.621  0.3502  0.2246  0.9682
    3MOL   O162  646   6.346   5.232   7.662  0.7017  0.1348  0.1092
    3MOL   O163  647   6.126   5.244   7.677 -0.1790 -0.4966  0.2235
    3MOL   H164  648   6.193   5.131   7.287 -2.2254  1.1338 -0.6677
    3MOL   H165  649   6.331   5.209   7.334  0.6462  2.7885  4.1629
    3MOL   H166  650   6.328   4.954   7.414  0.3152  0.1329 -0.4685
    3MOL   H167  651   6.359   4.968   7.584  1.1120  0.2408 -0.5235
    3MOL   H168  652   6.435   5.080   7.480  0.7384 -0.8448  1.0559
    3MOL   H169  653   6.139   5.290   7.758 -0.3603  0.2417 -0.1582
    3MOL   C170  654   6.083   5.030   7.505  0.1529 -0.7894 -0.2876
    3MOL   C171  655   6.055   4.899   7.596 -0.0615  0.1170 -0.3328
    3MOL   C172  656   6.145   4.780   7.544  0.1751  0.0537 -0.0535
    3MOL   C173  657   6.089   4.926   7.746 -0.4626  0.3718 -0.0241
    3MOL   O174  658   6.188   4.880   0.036  0.2614 -0.2646  0.2024
    3MOL   O175  659   5.987   5.003   0.039 -0.3343  0.0348 -0.3922
    3MOL   H176  660   5.998   5.097   7.519  0.4551 -0.3438 -0.5766
    3MOL   H177  661   6.084   4.992   7.403 -1.5944  2.8467 -1.7501
    3MOL   H178  662   6.151   4.766   7.437 -2.6283 -0.3905 -0.2046
    3MOL   H179  663   6.106   4.683   7.576  1.1014  0.2275  1.6865
    3MOL   H180  664   6.245   4.777   7.587  0.5511  2.7647 -0.6668
    3MOL   H181  665   5.937   5.028   7.729  0.0499  0.7179 -0.4211
    3MOL   C182  666   5.898   4.845   7.597  0.3048  0.3817 -0.5322
    3MOL   C183  667   5.808   4.796   7.474 -0.0294  0.8379 -0.6391
    3MOL   C184  668   5.705   4.689   7.530  0.7213  1.0646  0.4238
    3MOL   C185  669   5.734   4.922   7.426 -0.5391  0.7128 -0.0953
    3MOL   O186  670   5.794   5.021   7.393 -0.3962 -0.3300 -0.4713
    3MOL   O187  671   5.603   4.910   7.433 -0.6438  0.1767  0.2133
    3MOL   H188  672   5.915   4.756   7.658  1.5997  1.0218  0.0621
    3MOL   H189  673   5.835   4.905   7.664 -0.5971 -2.4124  1.2116
    3MOL   H190  674   5.748   4.591   7.550 -1.1732 -0.4141 -2.3743
    3MOL   H191  675   5.637   4.649   7.455  2.7506  1.5217 -1.7381
    3MOL   H192  676   5.651   4.729   7.616 -2.4820  0.1799 -1.1026
    3MOL   H193  677   5.565   4.993   7.411 -1.4238  0.1098  1.2777
    3MOL   C194  678   5.885   4.737   7.366 -0.5450 -0.4634  0.1609
    3MOL   C195  679   5.832   4.679   7.230 -0.3432 -0.9072  0.0331
    3MOL   C196  680   5.749   4.792   7.156  0.1960 -0.2914 -0.0532
    3MOL   C197  681   5.959   4.655   7.145  0.2235  0.1743  0.8569
    3MOL   O198  682   5.960   4.655   7.020  0.0493 -0.6087 -0.1744
    3MOL   O199  683   6.073   4.636   7.211 -0.6281  0.0230  0.1262
    3MOL   H200  684   5.967   4.804   7.342 -0.6942 -0.5926 -0.7292
    3MOL   H201  685   5.939   4.657   7.417  1.0881  0.9912  0.7257
    3MOL   H202  686   5.733   4.756   7.054 -1.3054 -0.8905  0.3741
    3MOL   H203  687   5.818   4.876   7.162 -0.6871  0.4298  0.2452
    3MOL   H204  688   5.649   4.813   7.195 -0.3156  0.0130 -1.4963
    3MOL   H205  689   6.148   4.633   7.155 -0.4006  1.3345  0.3622
    3MOL   C206  690   5.752   4.545   7.239  0.2504 -0.5371 -0.0145
    3MOL   C207  691   5.727   4.432   7.122 -0.0947  0.1952  0.1297
    3MOL   C208  692   5.672   4.494   6.982  0.1955  0.6508  0.3188
    3MOL   C209  693   5.859   4.345   7.093 -0.0109  0.0447  0.0178
    3MOL   O210  694   5.886   4.300   6.983  0.3698  0.1956  0.1941
    3MOL   O211  695   5.920   4.304   7.209  0.3304 -0.3935 -0.0124
    3MOL   H212  696   5.786   4.495   7.330  2.0553 -1.3428 -1.0987
    3MOL   H213  697   5.648   4.572   7.256 -0.1230 -2.1662  0.3927
    3MOL   H214  698   5.749   4.567   6.955  0.2316  1.4860  2.5529
    3MOL   H215  699   5.579   4.548   6.997 -0.1274  0.2361 -0.1972
    3MOL   H216  700   5.657   4.414   6.911 -1.7921  0.3934  0.9926
    3MOL   H217  701   5.990   4.248   7.179  2.6692  2.6887 -0.5686
    3MOL   C218  702   5.624   4.330   7.187 -0.2371 -0.0520  0.1045
    3MOL   C219  703   5.588   4.187   7.137 -0.3538  0.0738 -0.0468
    3MOL   C220  704   5.564   4.188   6.986  0.1508 -0.6881 -0.3298
    3MOL   C221  705   5.689   4.074   7.174  0.5786  0.3832 -0.1927
    3MOL   O222  706   5.746   4.072   7.287  0.6439  0.1336  0.0077
    3MOL   O223  707   5.696   3.977   7.072  0.2325  0.2073  0.0034
    3MOL   H224  708   5.666   4.318   7.287  0.1540  0.0047 -0.0539
    3MOL   H225  709   5.533   4.388   7.204 -0.9523 -1.6035  1.7728
    3MOL   H226  710   5.661   4.187   6.937  0.4944  0.7916  0.2961
    3MOL   H227  711   5.500   4.275   6.969  3.5315  1.8917 -0.3882
    3MOL   H228  712   5.505   4.107   6.942 -1.8103  0.7954 -0.5416
    3MOL   H229  713   5.756   3.913   7.106  1.7694  0.4615 -2.1531
    3MOL   C230  714   5.449   4.147   7.197 -0.7535  0.5368 -0.9157
    3MOL   C231  715   5.440   4.130   7.351  0.0630  0.2060  0.4345
    3MOL   C232  716   5.341   4.232   7.404  0.0679 -0.3400  0.3039
    3MOL   C233  717   5.417   3.986   7.392  1.2849  0.2264 -0.3646
    3MOL   O234  718   5.478   3.935   7.485  0.0946  0.1901  0.3983
    3MOL   O235  719   5.309   3.929   7.337 -0.6575  0.1306 -0.9432
    3MOL   H236  720   5.378   4.225   7.169 -3.2622 -1.3344  0.0087
    3MOL   H237  721   5.403   4.060   7.150 -0.9954  0.7010 -0.9844
    3MOL   H238  722   5.390   4.329   7.392  0.5391 -0.8194 -1.9368
    3MOL   H239  723   5.318   4.225   7.510 -1.5743  2.4690  0.1809
    3MOL   H240  724   5.243   4.235   7.355  0.2250 -0.6118 -0.0239
    3MOL   H241  725   5.299   3.850   7.387  0.2268 -0.5649 -1.8282
    3MOL   H242  726   5.536   4.155   7.397  0.5169 -0.4799 -0.1415
    4MOL     C1  727   6.681   6.348   2.477  0.3252  0.3280  0.0864
    4MOL     C2  728   6.782   6.310   2.367  0.3066  0.7935  0.3247
    4MOL     C3  729   6.752   6.392   2.243  0.0651  0.3751  0.1559
    4MOL     C4  730   6.923   6.345   2.416  0.5546 -0.0377 -0.3151
    4MOL     O5  731   7.029   6.298   2.381 -0.6356 -0.2731 -0.0006
    4MOL     O6  732   6.923   6.457   2.498  0.0056  0.1511  0.0867
    4MOL     H7  733   6.573   6.341   2.466  0.3255  0.3388  0.0815
    4MOL     H8  734   6.682   6.455   2.496 -1.5899  0.4257 -0.2529
    4MOL     H9  735   6.738   6.500   2.241 -2.1031  0.0937 -0.8989
    4MOL    H10  736   6.669   6.353   2.185  0.3833  1.5168 -1.0905
    4MOL    H11  737   6.837   6.367   2.180  2.0368  2.6161  1.8181
    4MOL    H12  738   7.014   6.474   2.516  0.3317  1.0710 -2.1876
    4MOL    H13  739   6.721   6.313   2.572  0.9672  2.6116  0.6797
    4MOL    C14  740   6.765   6.156   2.328 -0.2394 -0.7323  0.0634
    4MOL    C15  741   6.756   6.033   2.430  0.1936  0.3808 -0.7153
    4MOL    C16  742   6.879   6.038   2.523  0.0754 -0.9302 -0.0405
    4MOL    C17  743   6.626   6.048   2.515 -0.0161  1.0106 -0.5971
    4MOL    O18  744   6.619   6.039   2.637 -0.1527 -0.6381  0.0936
    4MOL    O19  745   6.514   6.084   2.444  0.1023 -0.6230 -0.2343
    4MOL    H20  746   6.681   6.147   2.260 -0.8813  0.2887  0.7106
    4MOL    H21  747   6.849   6.128   2.264 -0.1084  3.3706 -1.6827
    4MOL    H22  748   6.974   6.035   2.469  0.1940  0.7261  0.0623
    4MOL    H23  749   6.866   5.953   2.590  1.0828  0.4633  1.9436
    4MOL    H24  750   6.892   6.133   2.573 -1.8517  0.7212 -2.5554
    4MOL    H25  751   6.445   6.099   2.508 -0.4703 -0.7260 -0.8261
    4MOL    C26  752   6.735   5.901   2.347 -0.3714 -0.2376 -0.6794
    4MOL    C27  753   6.847   5.802   2.302 -0.0829  0.9716 -0.3695
    4MOL    C28  754   6.915   5.744   2.423 -0.6208  0.2021 -0.3525
    4MOL    C29  755   6.785   5.685   2.219  0.4201  0.6743 -0.1512
    4MOL    O30  756   6.780   5.571   2.267  0.4078 -0.3553  0.5888
    4MOL    O31  757   6.736   5.729   2.100  0.5017  0.8225  0.6400
    4MOL    H32  758   6.662   5.835   2.394  1.5277  0.1027  2.8829
    4MOL    H33  759   6.688   5.935   2.254 -1.0314 -0.9999 -0.6368
    4MOL    H34  760   6.971   5.652   2.406  0.8097  0.8853  0.5619
    4MOL    H35  761   6.848   5.711   2.503  0.2415 -1.0420 -0.1363
    4MOL    H36  762   6.990   5.811   2.464 -0.3776 -0.4008  0.1937
    4MOL    H37  763   6.708   5.655   2.049  0.8538 -0.5109  2.3305
    4MOL    C38  764   6.952   5.871   2.205 -0.2301  0.6548 -0.0300
    4MOL    C39  765   7.069   5.803   2.129 -0.4047  0.0055 -0.1241
    4MOL    C40  766   7.028   5.674   2.040 -0.5595 -0.2003  0.5011
    4MOL    C41  767   7.130   5.910   2.036  0.0530 -0.7409  0.4315
    4MOL    O42  768   7.167   5.894   1.919  0.3515  0.2399 -0.2253
    4MOL    O43  769   7.149   6.029   2.098 -0.4402 -0.5882  0.2015
    4MOL    H44  770   6.904   5.940   2.135 -0.5629  0.3338 -0.1194
    4MOL    H45  771   6.997   5.949   2.266 -1.2228  2.0813 -1.0690
    4MOL    H46  772   6.998   5.588   2.100  0.9754 -2.1312 -1.3885
    4MOL    H47  773   7.106   5.617   1.987 -0.9978 -1.3376  1.0572
    4MOL    H48  774   6.955   5.694   1.961  1.5220  1.6088 -1.0171
    4MOL    H49  775   7.186   6.093   2.040  0.5708 -0.8502  0.5453
    4MOL    C50  776   7.172   5.750   2.235 -0.7520  0.5144 -0.8251
    4MOL    C51  777   7.326   5.730   2.214 -0.0926 -0.0975  0.3718
    4MOL    C52  778   7.364   5.680   2.073 -0.5067  0.3268  0.0960
    4MOL    C53  779   7.386   5.874   2.237  0.3906 -0.0483 -0.0419
    4MOL    O54  780   7.341   5.951   2.329  0.1797  0.0339  0.3800
    4MOL    O55  781   7.494   5.910   2.161  0.0981  0.5205 -0.8462
    4MOL    H56  782   7.149   5.804   2.327 -1.1156  1.1036 -1.2496
    4MOL    H57  783   7.130   5.651   2.254 -1.3405  0.7341 -0.9480
    4MOL    H58  784   7.470   5.655   2.066 -0.0809  0.9273  3.3659
    4MOL    H59  785   7.341   5.758   2.001 -0.1476  0.1793 -0.1815
    4MOL    H60  786   7.319   5.585   2.045  4.2622 -1.6504 -1.3723
    4MOL    H61  787   7.532   5.989   2.195  0.5977  1.9945 -4.5604
    4MOL    C62  788   7.389   5.648   2.332  0.6945 -0.7221 -0.1983
    4MOL    C63  789   7.396   5.493   2.343 -0.9676 -0.4168  0.5748
    4MOL    C64  790   7.257   5.433   2.336 -0.3892 -0.7102  0.2183
    4MOL    C65  791   7.482   5.429   2.232 -0.0371  0.0216 -0.1971
    4MOL    O66  792   7.444   5.331   2.170  0.0687 -0.7549 -0.6231
    4MOL    O67  793   7.602   5.496   2.220  0.0492 -0.0419 -0.7422
    4MOL    H68  794   7.494   5.674   2.344  0.9999 -1.9868 -0.0657
    4MOL    H69  795   7.329   5.680   2.417 -0.6392  0.3308 -1.5169
    4MOL    H70  796   7.225   5.453   2.234 -0.6470 -1.5226  0.1329
    4MOL    H71  797   7.194   5.474   2.414  0.9692 -0.1899  1.0711
    4MOL    H72  798   7.253   5.325   2.350  0.4235 -0.3708  3.3886
    4MOL    H73  799   7.652   5.459   2.148  0.6772 -0.0534 -0.3032
    4MOL    C74  800   7.456   5.457   2.489  0.4135 -0.2930 -0.0008
    4MOL    C75  801   7.478   5.328   2.571  0.0709  0.1564  0.2903
    4MOL    C76  802   7.345   5.241   2.570  0.0062 -0.2847 -0.0853
    4MOL    C77  803   7.588   5.235   2.509  0.7657  0.3497 -0.1486
    4MOL    O78  804   7.661   5.272   2.413  0.2175 -0.3340 -0.1179
    4MOL    O79  805   7.601   5.110   2.568 -0.4838 -0.1765 -0.6367
    4MOL    H80  806   7.559   5.494   2.486  0.6610 -1.0486 -2.3533
    4MOL    H81  807   7.403   5.522   2.558  2.9780 -1.1057  2.8399
    4MOL    H82  808   7.253   5.300   2.569 -0.3303 -0.8219 -0.8664
    4MOL    H83  809   7.345   5.179   2.659  0.1727  1.5997  1.2571
    4MOL    H84  810   7.339   5.176   2.483  1.8852  0.4690 -0.8025
    4MOL    H85  811   7.673   5.063   2.529 -0.4935  0.3001 -1.2230
    4MOL    C86  812   7.507   5.373   2.718  0.1193  0.3150  0.4339
    4MOL    C87  813   7.634   5.458   2.763 -0.4825  0.0799  0.7548
    4MOL    C88  814   7.763   5.407   2.699  0.1373 -0.0988 -0.3253
    4MOL    C89  815   7.601   5.609   2.723  0.4385 -0.7345 -0.1989
    4MOL    O90  816   7.494   5.664   2.760 -0.1642  0.0901  0.2885
    4MOL    O91  817   7.703   5.668   2.653 -0.0418  0.0439 -0.4938
    4MOL    H92  818   7.420   5.414   2.768  0.2809 -1.8721  2.5808
    4MOL    H93  819   7.510   5.278   2.772 -0.8205  1.1963  2.0375
    4MOL    H94  820   0.089   5.454   2.732  0.1339 -0.8904  0.8342
    4MOL    H95  821   0.005   5.448   2.599  2.2489  2.0496  0.6659
    4MOL    H96  822   0.005   5.299   2.710 -1.0911 -0.1490  0.3412
    4MOL    H97  823   7.689   5.761   2.662 -2.7878 -0.5038  1.4965
    4MOL    C98  824   7.646   5.443   2.922 -0.0708  0.5536 -0.9140
    4MOL    C99  825   7.703   5.551   3.019 -0.2332  0.6281 -0.0819
    4MOL   C100  826   7.741   5.469   3.150  0.5408 -0.4265 -0.5835
    4MOL   C101  827   0.075   5.612   2.966  0.7098 -0.7122  0.8133
    4MOL   O102  828   0.099   5.729   2.940  0.0849  0.0052  0.6229
    4MOL   O103  829   0.169   5.516   2.970  0.2327  0.1164 -0.5820
    4MOL   H104  830   7.552   5.409   2.967 -1.1739  0.6098 -3.0715
    4MOL   H105  831   7.713   5.357   2.929 -0.8770 -0.1177 -1.2236
    4MOL   H106  832   7.653   5.422   3.193  0.3027  0.2790 -0.2836
    4MOL   H107  833   0.018   5.520   3.236 -0.2721  0.8326 -0.8962
    4MOL   H108  834   0.048   5.391   3.133 -0.2780 -1.2929 -0.1934
    4MOL   H109  835   0.256   5.549   2.953  1.9091 -3.2529  1.0144
    4MOL   C110  836   7.601   5.660   3.044 -0.2208  0.0728  0.7363
    4MOL   C111  837   7.588   5.742   3.174  0.4297 -0.5997 -0.1626
    4MOL   C112  838   7.496   5.660   3.268  0.9943 -0.1583  0.6123
    4MOL   C113  839   7.722   5.769   3.249  0.0410  0.1749 -0.5999
    4MOL   O114  840   7.742   5.733   3.364 -0.3164 -0.2641 -0.3476
    4MOL   O115  841   0.037   5.844   3.179 -0.6071 -0.2056 -0.1935
    4MOL   H116  842   7.625   5.736   2.970  2.2007 -0.3123  1.0577
    4MOL   H117  843   7.501   5.633   3.011 -0.1203 -0.1740  0.6333
    4MOL   H118  844   7.477   5.713   3.361  0.9269  1.3286 -0.2290
    4MOL   H119  845   7.535   5.559   3.286 -0.8948 -0.8851  0.7358
    4MOL   H120  846   7.397   5.639   3.227  2.7923 -0.7050 -3.7501
    4MOL   H121  847   0.011   5.864   3.091 -0.2709 -0.5589 -0.3769
    4MOL   C122  848   7.507   5.873   3.136  0.2164  0.8090 -0.7276
    4MOL   C123  849   7.498   6.011   3.218  0.7692  0.7525 -0.2384
    4MOL   C124  850   7.498   5.980   3.374  0.5892  0.1998 -0.2994
    4MOL   C125  851   7.614   6.101   3.186  0.2536 -0.3762  0.0133
    4MOL   O126  852   7.692   6.080   3.089  0.1880 -0.2964 -0.0947
    4MOL   O127  853   7.616   6.214   3.259 -0.0028 -0.3102 -1.1913
    4MOL   H128  854   7.540   5.905   3.037  0.1185  1.2925 -0.6039
    4MOL   H129  855   7.404   5.841   3.118  0.6466 -0.8737 -0.3212
    4MOL   H130  856   7.509   6.073   3.430 -0.3499  1.1562 -1.6570
    4MOL   H131  857   7.571   5.908   3.411  2.3491  2.1893  0.2068
    4MOL   H132  858   7.403   5.939   3.406 -1.6421  3.0067 -2.9421
    4MOL   H133  859   7.677   6.280   3.230 -1.9481  1.5863 -1.0867
    4MOL   C134  860   7.360   6.081   3.187 -0.2620 -0.2036 -0.2471
    4MOL   C135  861   7.330   6.163   3.051  0.5272 -0.4048 -1.2013
    4MOL   C136  862   7.398   6.302   3.043 -0.1047  0.1043 -0.5790
    4MOL   C137  863   7.375   6.078   2.923  0.1666  0.3713 -0.5411
    4MOL   O138  864   7.474   6.104   2.855  0.1136  0.2546  0.4963
    4MOL   O139  865   7.303   5.965   2.916 -0.0453 -0.0572  0.4971
    4MOL   H140  866   7.280   6.008   3.194 -0.9749  0.5287 -0.6455
    4MOL   H141  867   7.348   6.154   3.267  1.5735  2.0653 -1.9403
    4MOL   H142  868   7.373   6.347   2.947  0.3065  1.4185 -0.0787
    4MOL   H143  869   7.506   6.318   3.052 -0.2713  0.6247  0.5124
    4MOL   H144  870   7.352   6.371   3.113  1.4142 -1.6094  2.2264
    4MOL   H145  871   7.351   5.899   2.868 -0.1996  0.4203 -0.3375
    4MOL   C146  872   7.171   6.192   3.056  0.6486 -0.8470 -0.7352
    4MOL   C147  873   7.087   6.297   2.972  0.2167 -0.2972 -0.3172
    4MOL   C148  874   7.105   6.439   3.032 -0.4964  0.2183  0.2786
    4MOL   C149  875   7.126   6.286   2.824 -0.4368  0.0177 -0.6418
    4MOL   O150  876   7.101   6.196   2.747 -0.5839 -0.2895  0.1528
    4MOL   O151  877   7.197   6.392   2.781  0.1462  0.5395 -0.1214
    4MOL   H152  878   7.125   6.097   3.033  1.3348 -1.2830 -0.3203
    4MOL   H153  879   7.150   6.211   3.161  2.7008 -0.4805 -0.3725
    4MOL   H154  880   7.199   6.484   3.000 -0.4060  0.6821  1.1781
    4MOL   H155  881   7.112   6.441   3.141  1.5536 -0.3752  0.1778
    4MOL   H156  882   7.030   6.515   3.006  1.0905  1.2718 -1.3564
    4MOL   H157  883   7.213   6.380   2.689 -1.6936  0.6299 -0.4820
    4MOL   C158  884   6.939   6.244   2.992  1.0125 -0.2948  0.8227
    4MOL   C159  885   6.812   6.332   2.966  0.1169  0.2197 -0.4080
    4MOL   C160  886   6.822   6.417   2.833  0.3455  0.5349 -0.0027
    4MOL   C161  887   6.703   6.221   2.945 -0.1353 -0.7922  0.2952
    4MOL   O162  888   6.624   6.229   2.851  0.3088  0.1835 -0.8116
    4MOL   O163  889   6.708   6.123   3.043 -0.1620 -0.3414 -0.6623
    4MOL   H164  890   6.938   6.152   2.934  2.8882 -0.3832  0.9219
    4MOL   H165  891   6.923   6.209   3.094 -1.8766  0.8533  0.8333
    4MOL   H166  892   6.857   6.361   2.746 -1.3402  2.1316 -1.7883
    4MOL   H167  893   6.884   6.506   2.842  1.0106 -0.1206  1.9279
    4MOL   H168  894   6.722   6.444   2.797 -0.3238 -1.0720  0.5698
    4MOL   H169  895   6.646   6.058   3.015  0.6257 -1.0659 -0.7575
    4MOL   C170  896   6.775   6.419   3.096 -1.0331 -0.3582  0.6072
    4MOL   C171  897   6.635   6.487   3.121  0.3131 -0.4816 -0.0749
    4MOL   C172  898   6.581   6.554   2.986  0.4408  0.3600  0.4051
    4MOL   C173  899   6.545   6.373   3.176  0.3602 -0.4144  0.2588
    4MOL   O174  900   6.576   6.306   3.273  0.2585  0.0436 -0.5091
    4MOL   O175  901   6.427   6.358   3.107  0.2259  0.2021 -0.1972
    4MOL   H176  902   6.799   6.364   3.187 -1.4769  0.1566  1.0403
    4MOL   H177  903   6.847   6.500   3.099  0.2563 -1.4633 -0.0516
    4MOL   H178  904   6.490   6.614   2.991  0.7035  0.6137  2.8397
    4MOL   H179  905   6.552   6.478   2.914  3.0964 -0.9113  0.6240
    4MOL   H180  906   6.661   6.609   2.936  1.8399 -2.3666 -0.4438
    4MOL   H181  907   6.369   6.293   3.144  1.6888 -1.0074  0.0117
    4MOL   C182  908   6.649   6.588   3.247 -0.1045  0.5643  0.2149
    4MOL   C183  909   6.542   6.686   3.305 -0.8383 -1.0296  0.3067
    4MOL   C184  910   6.576   6.824   3.238 -0.2885 -0.7763  0.0675
    4MOL   C185  911   6.392   6.655   3.277 -0.3998  0.3858 -0.1556
    4MOL   O186  912   6.332   6.572   3.338  0.1124  0.3726  0.1906
    4MOL   O187  913   6.342   6.725   3.171  0.7158  0.3091 -0.0930
    4MOL   H188  914   6.685   6.528   3.330  0.3886  0.4798 -0.0532
    4MOL   H189  915   6.738   6.651   3.239  1.9747 -2.3663 -0.7384
    4MOL   H190  916   6.600   6.809   3.133 -1.7271  1.5835 -0.6295
    4MOL   H191  917   6.665   6.870   3.281 -0.9784  2.6173 -1.9849
    4MOL   H192  918   6.503   6.905   3.241  1.8911  1.1853  2.8449
    4MOL   H193  919   6.256   6.688   3.159  1.2740 -1.2366  0.5813
    4MOL   C194  920   6.565   6.705   3.455 -0.1839  0.0963  0.2784
    4MOL   C195  921   6.489   6.798   3.562  0.7396  0.1139  0.0921
    4MOL   C196  922   6.478   6.943   3.520  0.0919 -0.3925 -0.2782
    4MOL   C197  923   6.351   6.739   3.594 -0.6519  0.0502  0.1407
    4MOL   O198  924   6.337   6.632   3.648  0.1579  0.2095 -0.6687
    4MOL   O199  925   6.245   6.805   3.551 -0.1245 -0.0950 -0.3073
    4MOL   H200  926   6.572   6.608   3.505  0.0751  0.3744  0.7910
    4MOL   H201  927   6.672   6.725   3.467 -0.0556 -1.2625  1.5942
    4MOL   H202  928   6.412   6.975   3.440  0.3416 -1.0265 -0.7374
    4MOL   H203  929   6.578   6.974   3.490  1.3928 -1.6052  2.6105
    4MOL   H204  930   6.431   6.995   3.604  0.8724  0.3609 -0.2902
    4MOL   H205  931   6.162   6.769   3.581 -0.5690  0.7118 -0.5580
    4MOL   C206  932   6.566   6.782   3.700  0.7695 -0.2082  0.6400
    4MOL   C207  933   6.708   6.837   3.743  0.0911 -0.2791  0.2945
    4MOL   C208  934   6.816   6.788   3.656  0.0766  0.1987  0.2790
    4MOL   C209  935   6.708   6.991   3.727 -0.3496 -0.3471 -0.4373
    4MOL   O210  936   6.780   7.053   3.649  0.0873  0.4249  0.1537
    4MOL   O211  937   6.623   7.052   3.814  0.0199  0.4321  0.5971
    4MOL   H212  938   6.504   6.808   3.786 -0.4968  0.1508 -0.3713
    4MOL   H213  939   6.560   6.677   3.728 -0.5333 -0.1041  0.7847
    4MOL   H214  940   6.823   6.679   3.651  2.2641  0.3564 -0.7967
    4MOL   H215  941   6.907   6.837   3.692  1.2654 -1.4205 -0.4802
    4MOL   H216  942   6.808   6.824   3.554  0.3688  1.3300  0.6508
    4MOL   H217  943   6.631   7.146   3.806  0.4250  0.2890 -0.8302
    4MOL   C218  944   6.721   6.804   3.896 -0.5682 -0.1865 -0.1756
    4MOL   C219  945   6.851   6.833   3.985 -0.0099 -0.5544 -1.0119
    4MOL   C220  946   6.802   6.822   4.131 -0.2817 -0.1293 -0.4918
    4MOL   C221  947   6.961   6.728   3.971  0.2778 -0.1667 -0.0955
    4MOL   O222  948   6.982   6.640   4.053  0.6637  0.3706  0.5617
    4MOL   O223  949   7.027   6.741   3.857  0.1375  0.1121  0.6004
    4MOL   H224  950   6.636   6.839   3.954 -1.5212  0.2904 -1.8071
    4MOL   H225  951   6.713   6.696   3.901 -1.7990 -0.0117  1.8798
    4MOL   H226  952   6.878   6.809   4.209  0.5137 -0.9579 -1.3859
    4MOL   H227  953   6.743   6.730   4.136 -2.0459  0.9252 -1.7697
    4MOL   H228  954   6.741   6.910   4.149 -3.3455 -2.4841  1.0417
    4MOL   H229  955   7.095   6.675   3.856  0.7240  0.7092 -1.8017
    4MOL   C230  956   6.912   6.974   3.956 -0.5498  0.1717  0.0798
    4MOL   C231  957   7.034   7.024   4.020 -0.7048 -0.4807  0.2707
    4MOL   C232  958   7.118   7.112   3.923  0.4138 -0.5871  1.0754
    4MOL   C233  959   6.998   7.099   4.142 -0.3386 -0.4498 -0.5559
    4MOL   O234  960   6.966   7.218   4.141  0.2081 -0.0994  0.3941
    4MOL   O235  961   6.996   7.031   4.260 -0.4452 -0.2241  0.0575
    4MOL   H236  962   6.945   6.967   3.852  3.1972 -0.9875  1.2926
    4MOL   H237  963   6.834   7.049   3.967  1.6634  2.1997  2.2474
    4MOL   H238  964   7.074   7.205   3.888  1.6978 -0.9656 -1.6572
    4MOL   H239  965   7.149   7.051   3.838 -1.6501  0.4008 -0.4432
    4MOL   H240  966   7.213   7.147   3.963 -0.4314  0.3227  2.3250
    4MOL   H241  967   6.962   7.088   4.327  1.1699  0.2395  0.5156
    4MOL   H242  968   7.103   6.946   4.053 -2.2365 -1.0584  2.1743
    5MOL     C1  969   2.859   1.810   6.362  0.1113 -0.0270  0.2590
    5MOL     C2  970   2.711   1.838   6.353 -0.4195  0.2297 -0.0587
    5MOL     C3  971   2.698   1.992   6.336  0.1550 -0.2745  0.4166
    5MOL     C4  972   2.647   1.764   6.234 -0.5523 -0.0400 -0.5131
    5MOL     O5  973   2.700   1.679   6.163 -0.2561  0.2856  0.4717
    5MOL     O6  974   2.518   1.808   6.213 -0.0264 -0.2647  0.0669
    5MOL     H7  975   2.934   1.871   6.312  1.2210 -0.9088  0.8027
    5MOL     H8  976   2.882   1.706   6.340 -2.0664 -0.3940 -0.4076
    5MOL     H9  977   2.721   2.040   6.431  2.2916 -0.8128  0.1965
    5MOL    H10  978   2.593   2.016   6.321  0.1631 -0.7578 -0.4611
    5MOL    H11  979   2.743   2.036   6.247 -2.0618 -0.1172 -0.6668
    5MOL    H12  980   2.479   1.752   6.147 -0.5199 -0.5875  0.6217
    5MOL    H13  981   2.883   1.822   6.468 -1.1166  0.3065  0.5123
    5MOL    C14  982   2.626   1.808   6.486  0.7548  0.1492 -0.4598
    5MOL    C15  983   2.592   1.668   6.545 -1.3526 -0.0915  0.5235
    5MOL    C16  984   2.470   1.600   6.465  1.3517 -0.8347  0.1086
    5MOL    C17  985   2.708   1.569   6.525 -0.2073  0.6202  0.0289
    5MOL    O18  986   2.710   1.463   6.459 -0.1561 -0.0430  0.5273
    5MOL    O19  987   2.826   1.606   6.588  0.1769 -0.6314 -0.1183
    5MOL    H20  988   2.667   1.864   6.570  1.0049  0.9439 -1.1053
    5MOL    H21  989   2.524   1.843   6.471  0.1807 -1.4353 -0.3258
    5MOL    H22  990   2.381   1.662   6.469  1.1882 -0.7514 -3.3973
    5MOL    H23  991   2.449   1.505   6.514 -0.6752  0.4795  1.8952
    5MOL    H24  992   2.486   1.582   6.359 -0.1678  0.3195 -0.3322
    5MOL    H25  993   2.828   1.688   6.635 -2.2286 -0.3584 -0.4278
    5MOL    C26  994   2.554   1.697   6.697 -0.2151  0.7707 -0.1452
    5MOL    C27  995   2.479   1.593   6.792 -0.1427  0.3828  0.4241
    5MOL    C28  996   2.471   1.656   6.934 -0.0260 -0.0744 -0.2074
    5MOL    C29  997   2.330   1.609   6.742  0.5947 -0.3304 -0.1916
    5MOL    O30  998   2.263   1.517   6.693 -0.4982 -0.8646  0.3559
    5MOL    O31  999   2.271   1.733   6.754  0.1910 -0.1678  0.3102
    5MOL    H32 1000   2.639   1.738   6.752  0.4277  0.7895 -1.1397
    5MOL    H33 1001   2.483   1.779   6.688 -1.2125 -0.0486  0.1689
    5MOL    H34 1002   2.429   1.756   6.931 -2.1847 -0.9255  0.6058
    5MOL    H35 1003   2.561   1.651   6.996  0.7983 -0.3137 -1.3928
    5MOL    H36 1004   2.394   1.603   6.989  0.4136  0.9844  1.4635
    5MOL    H37 1005   2.181   1.725   6.728 -0.2296  0.6995  1.4245
    5MOL    C38 1006   2.510   1.438   6.791 -0.5419  0.2273 -0.7723
    5MOL    C39 1007   2.629   1.373   6.875 -0.2503 -0.7172  0.2211
    5MOL    C40 1008   2.749   1.475   6.877 -0.5781  0.4776  0.4287
    5MOL    C41 1009   2.565   1.348   7.019  0.4065 -0.1458 -0.6597
    5MOL    O42 1010   2.461   1.289   7.049  0.2801  0.3686 -0.3581
    5MOL    O43 1011   2.641   1.396   7.121 -0.4881 -0.1733  0.0637
    5MOL    H44 1012   2.418   1.380   6.801  0.4166 -1.1489  0.2628
    5MOL    H45 1013   2.538   1.411   6.690 -2.1857 -0.6768 -1.0058
    5MOL    H46 1014   2.818   1.473   6.961  1.1015 -1.1770 -0.9420
    5MOL    H47 1015   2.724   1.579   6.858 -3.0487 -0.4995 -1.9595
    5MOL    H48 1016   2.812   1.452   6.791 -0.5464  1.9981  0.0310
    5MOL    H49 1017   2.586   1.389   7.198 -1.4144 -0.5525 -0.6201
    5MOL    C50 1018   2.658   1.232   6.806 -0.1475  0.0319 -0.2396
    5MOL    C51 1019   2.727   1.112   6.880 -0.4706 -0.1945 -0.4936
    5MOL    C52 1020   2.618   1.033   6.966 -0.3375  0.4756 -0.3740
    5MOL    C53 1021   2.779   1.027   6.764 -0.0393 -0.3260 -0.6081
    5MOL    O54 1022   2.726   0.924   6.733  0.2500 -0.3533  0.4648
    5MOL    O55 1023   2.890   1.077   6.702 -0.0230 -0.0559 -0.4438
    5MOL    H56 1024   2.559   1.197   6.776  0.2461 -1.9539  0.6932
    5MOL    H57 1025   2.696   1.255   6.706 -0.6392 -0.0531 -0.4522
    5MOL    H58 1026   2.646   0.929   6.984 -2.6139  0.0291  0.8639
    5MOL    H59 1027   2.518   1.043   6.922 -0.4235 -2.1899 -0.9144
    5MOL    H60 1028   2.602   1.079   7.063 -1.7359 -1.6676  0.4584
    5MOL    H61 1029   2.923   0.999   6.660 -2.0852  0.1528 -2.5480
    5MOL    C62 1030   2.848   1.162   6.969 -0.3107 -0.0639 -0.9032
    5MOL    C63 1031   2.943   1.081   7.068  0.3036  0.1950 -0.1599
    5MOL    C64 1032   3.020   1.183   7.159 -0.0315 -0.1326  0.4885
    5MOL    C65 1033   2.848   0.997   7.162  0.2677 -0.5498  0.0560
    5MOL    O66 1034   2.784   1.049   7.253 -0.2712 -0.4182  0.6621
    5MOL    O67 1035   2.874   0.864   7.158  0.6038  0.2474  0.5953
    5MOL    H68 1036   2.918   1.226   6.915  0.6040 -0.9203 -0.7421
    5MOL    H69 1037   2.791   1.226   7.037 -1.5928  0.4529 -2.4279
    5MOL    H70 1038   3.071   1.143   7.246  0.0285  0.8122  0.8931
    5MOL    H71 1039   2.953   1.263   7.191  0.8304  0.3173  1.1761
    5MOL    H72 1040   3.095   1.235   7.098  0.1336  1.7809  2.2460
    5MOL    H73 1041   2.830   0.823   7.231  1.5830  0.4797  1.3435
    5MOL    C74 1042   3.045   0.996   6.984  0.2659 -0.5401  0.5601
    5MOL    C75 1043   3.162   0.900   7.032  0.2263 -0.1406  0.0579
    5MOL    C76 1044   3.218   0.938   7.170 -0.1607 -0.2953  0.2506
    5MOL    C77 1045   3.112   0.751   7.045  0.0892  0.5212 -0.0990
    5MOL    O78 1046   3.023   0.692   6.988 -0.1999  0.0459  0.0340
    5MOL    O79 1047   3.181   0.684   7.140  0.1859  0.4063  0.3694
    5MOL    H80 1048   2.991   0.934   6.913  1.6384  1.3178 -2.1995
    5MOL    H81 1049   3.103   1.077   6.940  1.6510 -1.0694  1.3509
    5MOL    H82 1050   3.251   1.042   7.171  1.8186 -0.8966 -0.2697
    5MOL    H83 1051   3.296   0.873   7.212  1.0682  0.7646 -0.3682
    5MOL    H84 1052   3.137   0.926   7.243  0.1021  3.4341  1.2528
    5MOL    H85 1053   3.155   0.595   7.155  0.3748  0.3069  0.1312
    5MOL    C86 1054   3.285   0.891   6.930 -0.4181  0.1627  0.5608
    5MOL    C87 1055   3.371   1.007   6.870 -0.6229  0.1188 -0.2059
    5MOL    C88 1056   3.390   1.127   6.966  0.3604 -0.4770  0.1940
    5MOL    C89 1057   3.515   0.956   6.843  0.5564 -0.4945 -0.1769
    5MOL    O90 1058   3.621   1.003   6.882  0.5125  0.0208 -0.1505
    5MOL    O91 1059   3.522   0.839   6.775  0.4873  0.1001 -0.5322
    5MOL    H92 1060   3.352   0.822   6.980  1.0314  1.4716  0.4841
    5MOL    H93 1061   3.252   0.820   6.854 -1.7939  1.9114 -0.5160
    5MOL    H94 1062   3.291   1.170   6.977  0.0383 -1.2305  0.3193
    5MOL    H95 1063   3.462   1.205   6.941 -3.0526  2.0112 -2.2863
    5MOL    H96 1064   3.427   1.092   7.063  2.9391  1.3310 -0.0685
    5MOL    H97 1065   3.614   0.819   6.768  0.4807  0.0288 -0.4088
    5MOL    C98 1066   3.298   1.049   6.735 -0.0013  0.9471  0.1030
    5MOL    C99 1067   3.341   1.175   6.649  0.3219 -0.1410  0.9308
    5MOL   C100 1068   3.282   1.302   6.719 -0.8986  0.0977  1.1505
    5MOL   C101 1069   3.489   1.196   6.625 -0.6559  0.0972  0.3079
    5MOL   O102 1070   3.561   1.107   6.594 -0.2199 -0.2167 -0.6224
    5MOL   O103 1071   3.528   1.321   6.633  0.1878 -0.4188 -0.0572
    5MOL   H104 1072   3.296   0.957   6.677  0.3286  0.6579  0.5402
    5MOL   H105 1073   3.190   1.050   6.749  0.1099 -1.3535  1.3496
    5MOL   H106 1074   3.338   1.344   6.802  2.2777 -0.0686 -0.8346
    5MOL   H107 1075   3.179   1.293   6.754 -1.0246 -0.2312  0.6979
    5MOL   H108 1076   3.287   1.378   6.640 -0.7145 -0.9136  0.1836
    5MOL   H109 1077   3.617   1.341   6.610 -0.4757  1.5052 -1.0822
    5MOL   C110 1078   3.266   1.149   6.511  0.4084 -0.3527 -0.0993
    5MOL   C111 1079   3.268   1.236   6.380 -0.1888  0.8730  0.1100
    5MOL   C112 1080   3.229   1.381   6.396 -0.2161 -0.6777  0.2290
    5MOL   C113 1081   3.408   1.228   6.314 -0.5560  0.2550  0.0448
    5MOL   O114 1082   3.472   1.324   6.282  0.2551  0.1328 -0.0715
    5MOL   O115 1083   3.447   1.096   6.302  0.3433  0.4850 -0.0871
    5MOL   H116 1084   3.299   1.047   6.493 -1.1703 -0.9247  0.2208
    5MOL   H117 1085   3.162   1.124   6.531  0.7079 -1.1088  0.5344
    5MOL   H118 1086   3.298   1.442   6.455  1.2259 -0.9653 -1.1297
    5MOL   H119 1087   3.137   1.406   6.448  1.2971  2.3170  1.6155
    5MOL   H120 1088   3.228   1.430   6.299 -0.1539 -0.9594  0.0856
    5MOL   H121 1089   3.529   1.093   6.255 -1.5735 -0.1080 -3.5359
    5MOL   C122 1090   3.175   1.161   6.272  0.2616  0.6983  0.2539
    5MOL   C123 1091   3.020   1.165   6.247  0.4760 -0.2314 -0.2067
    5MOL   C124 1092   2.994   1.036   6.158 -0.1662 -0.1517 -0.1058
    5MOL   C125 1093   2.937   1.145   6.378  0.4458  0.2437  0.8483
    5MOL   O126 1094   2.865   1.050   6.402  0.6061  0.4163  0.4390
    5MOL   O127 1095   2.954   1.254   6.457  0.3134 -0.5241 -0.4580
    5MOL   H128 1096   3.216   1.196   6.178 -1.0235  2.3396  0.2944
    5MOL   H129 1097   3.202   1.055   6.279  0.1961  0.6356 -0.4756
    5MOL   H130 1098   3.008   0.943   6.213 -0.0438 -0.5538 -0.8131
    5MOL   H131 1099   3.053   1.034   6.067 -1.3439  1.7306 -0.9466
    5MOL   H132 1100   2.889   1.024   6.129  0.0308 -2.4366  0.0692
    5MOL   H133 1101   2.905   1.232   6.535 -2.0673 -5.3882 -3.1057
    5MOL   C134 1102   2.973   1.301   6.178  0.0785  0.0002  0.1947
    5MOL   C135 1103   2.975   1.329   6.018  0.8794 -1.0534 -0.2088
    5MOL   C136 1104   2.953   1.483   6.009  0.1177 -0.0707  0.0557
    5MOL   C137 1105   3.117   1.302   5.957 -0.7446 -0.1969 -0.4025
    5MOL   O138 1106   3.209   1.382   5.962  0.0264 -0.1473  0.3814
    5MOL   O139 1107   3.121   1.179   5.900 -0.4247  0.0447  0.2365
    5MOL   H140 1108   2.868   1.309   6.205  0.1185  2.5913 -0.2691
    5MOL   H141 1109   3.031   1.383   6.222 -0.1171 -0.6973  1.8129
    5MOL   H142 1110   3.008   1.523   6.094  0.2887 -3.0716  1.4205
    5MOL   H143 1111   2.848   1.512   6.015  0.0430 -0.6226  1.7602
    5MOL   H144 1112   2.994   1.524   5.917 -1.1089  0.0633 -0.4452
    5MOL   H145 1113   3.197   1.167   5.845 -0.9326 -1.8152 -0.0871
    5MOL   C146 1114   2.862   1.252   5.933 -0.0413 -0.0021 -0.1220
    5MOL   C147 1115   2.819   1.291   5.787  0.2338 -0.3231  0.0825
    5MOL   C148 1116   2.952   1.308   5.699 -0.2335  0.5651 -0.3006
    5MOL   C149 1117   2.732   1.175   5.729  1.0012 -0.3568  0.2403
    5MOL   O150 1118   2.740   1.143   5.615 -0.5156  0.2148 -0.1531
    5MOL   O151 1119   2.651   1.121   5.821 -0.6742 -0.2988 -0.3937
    5MOL   H152 1120   2.876   1.144   5.929  1.4074  0.1343  1.0877
    5MOL   H153 1121   2.772   1.261   5.994  0.2794 -2.2816  0.7118
    5MOL   H154 1122   3.024   1.385   5.723 -0.3116  0.8266 -0.9034
    5MOL   H155 1123   2.913   1.342   5.603 -0.7159 -1.2989 -0.7968
    5MOL   H156 1124   3.008   1.218   5.675  0.2397  0.0352  2.5571
    5MOL   H157 1125   2.610   1.043   5.787  0.2186 -0.2122 -1.7166
    5MOL   C158 1126   2.748   1.436   5.766  0.4613  0.7840  0.0783
    5MOL   C159 1127   2.595   1.464   5.800  0.0781 -0.0036 -0.1998
    5MOL   C160 1128   2.512   1.404   5.681 -0.6548 -1.0231  0.7265
    5MOL   C161 1129   2.544   1.396   5.924 -0.0620 -0.1334 -0.3216
    5MOL   O162 1130   2.456   1.316   5.922  0.2980  0.6647  0.6631
    5MOL   O163 1131   2.621   1.428   6.037 -0.1371 -0.3226  0.3037
    5MOL   H164 1132   2.808   1.509   5.820  0.6586 -0.0713  1.0283
    5MOL   H165 1133   2.770   1.462   5.662 -0.7515 -1.1800 -0.7003
    5MOL   H166 1134   2.406   1.428   5.693 -0.5030  1.3511 -2.1746
    5MOL   H167 1135   2.507   1.297   5.661  0.4192 -0.9762  0.1729
    5MOL   H168 1136   2.532   1.449   5.584 -2.5981  0.1691  0.8505
    5MOL   H169 1137   2.580   1.400   6.117  1.4143 -1.3917  0.7421
    5MOL   C170 1138   2.588   1.623   5.808 -0.8357  1.1557  0.8814
    5MOL   C171 1139   2.464   1.716   5.806  0.8253 -0.5414 -0.6028
    5MOL   C172 1140   2.393   1.705   5.669  0.1460 -0.0399 -0.1028
    5MOL   C173 1141   2.359   1.663   5.910  0.1122 -0.1998  0.0430
    5MOL   O174 1142   2.370   1.705   6.026  0.8631  0.2527 -0.3861
    5MOL   O175 1143   2.275   1.562   5.869  0.6005  0.0081  0.2047
    5MOL   H176 1144   2.637   1.647   5.903 -1.3365 -3.8262  2.5616
    5MOL   H177 1145   2.658   1.660   5.733 -0.2649 -1.0814  0.2829
    5MOL   H178 1146   2.297   1.756   5.671 -0.0653 -0.5014  1.4134
    5MOL   H179 1147   2.355   1.608   5.638 -0.3688  0.2058 -0.2624
    5MOL   H180 1148   2.455   1.744   5.588  2.0180  1.0173  1.7953
    5MOL   H181 1149   2.225   1.525   5.940  2.7038 -0.1912  1.6293
    5MOL   C182 1150   2.516   1.863   5.843  0.6345  0.2414 -0.7051
    5MOL   C183 1151   2.451   2.005   5.818  0.3858  0.6241  0.3661
    5MOL   C184 1152   2.449   2.024   5.666  0.0849  0.3039 -0.0121
    5MOL   C185 1153   2.308   2.005   5.878  0.4866 -0.6027  0.3881
    5MOL   O186 1154   2.271   1.957   5.989 -1.0943 -0.6273  0.0724
    5MOL   O187 1155   2.222   2.084   5.800 -0.4511 -0.0248  0.1807
    5MOL   H188 1156   2.556   1.843   5.942  3.8009  1.0379 -1.7562
    5MOL   H189 1157   2.598   1.851   5.773 -0.0857  0.2025 -1.5503
    5MOL   H190 1158   2.550   2.024   5.625 -1.3187 -2.0210 -3.7026
    5MOL   H191 1159   2.406   2.122   5.647  0.2147  0.2093 -0.8320
    5MOL   H192 1160   2.373   1.960   5.620  1.2007 -0.0639 -1.3952
    5MOL   H193 1161   2.141   2.101   5.846  0.3867  0.8496  1.3325
    5MOL   C194 1162   2.548   2.102   5.902  0.1255  0.6393 -0.2475
    5MOL   C195 1163   2.527   2.260   5.920  0.2111 -0.2811  0.4271
    5MOL   C196 1164   2.652   2.310   5.994 -0.2751  0.2713 -0.1304
    5MOL   C197 1165   2.517   2.331   5.779  0.4795  0.1072  0.4252
    5MOL   O198 1166   2.429   2.404   5.739  0.1181 -0.6128  0.2035
    5MOL   O199 1167   2.625   2.298   5.709  0.0010  0.7914 -0.3217
    5MOL   H200 1168   2.575   2.059   5.998 -0.3571 -3.2813 -1.7747
    5MOL   H201 1169   2.641   2.099   5.844 -0.0889  1.4110 -0.6362
    5MOL   H202 1170   2.650   2.270   6.095 -0.0802  0.1827 -0.1623
    5MOL   H203 1171   2.672   2.417   5.984 -2.0872  0.6958  0.6278
    5MOL   H204 1172   2.740   2.273   5.941  0.0357  0.5678  0.1730
    5MOL   H205 1173   2.626   2.345   5.627  3.0368  1.3951  0.0328
    5MOL   C206 1174   2.395   2.288   6.005 -0.2460  0.0503  0.3471
    5MOL   C207 1175   2.362   2.403   6.110  0.1456 -0.3607  0.2632
    5MOL   C208 1176   2.399   2.336   6.248 -0.3265  0.2604 -1.1927
    5MOL   C209 1177   2.444   2.531   6.087 -0.1752 -0.5574 -0.2883
    5MOL   O210 1178   2.505   2.592   6.174  0.0316  0.6757  0.1474
    5MOL   O211 1179   2.437   2.576   5.959  0.4322  0.2101  0.2497
    5MOL   H212 1180   2.304   2.282   5.946 -0.4173  0.2163  0.5902
    5MOL   H213 1181   2.382   2.194   6.057  1.7332 -0.7440 -0.5419
    5MOL   H214 1182   2.335   2.251   6.273  0.6320 -0.1765 -0.1934
    5MOL   H215 1183   2.378   2.416   6.319 -1.9745  1.1896 -2.6862
    5MOL   H216 1184   2.502   2.305   6.263  0.1926  2.8866  1.1910
    5MOL   H217 1185   2.417   2.509   5.896  1.7815 -0.5794  0.6374
    5MOL   C218 1186   2.201   2.426   6.120  0.2300  0.5881  0.1720
    5MOL   C219 1187   2.105   2.502   6.019  0.0510 -0.1664 -0.0490
    5MOL   C220 1188   2.117   2.648   6.062  0.1582  0.3153  0.3454
    5MOL   C221 1189   2.165   2.507   5.873  0.1689  0.5737 -0.0881
    5MOL   O222 1190   2.210   2.601   5.812  0.1963  0.1513 -0.6582
    5MOL   O223 1191   2.155   2.381   5.820  0.1443  0.2770  0.0461
    5MOL   H224 1192   2.155   2.328   6.137  1.1417 -0.1039 -1.1951
    5MOL   H225 1193   2.180   2.473   6.216 -2.9022  2.5395 -1.4090
    5MOL   H226 1194   2.218   2.690   6.053 -0.3647  1.7040  0.7897
    5MOL   H227 1195   2.089   2.664   6.166 -2.6801 -0.6274 -0.2396
    5MOL   H228 1196   2.048   2.701   5.996  0.1947 -0.2533 -0.1544
    5MOL   H229 1197   2.204   2.380   5.739  1.5878 -0.4437  0.9112
    5MOL   C230 1198   1.956   2.462   6.026 -0.4286 -0.6265  0.6229
    5MOL   C231 1199   1.897   2.316   6.037  0.3582 -0.3110  0.0049
    5MOL   C232 1200   1.745   2.338   6.052 -0.3954 -0.2198  0.8317
    5MOL   C233 1201   1.916   2.220   5.915 -0.3666  0.4025  0.6137
    5MOL   O234 1202   1.854   2.222   5.810 -0.5324  0.2831 -0.1818
    5MOL   O235 1203   2.018   2.131   5.943  0.0887 -0.0053  0.5475
    5MOL   H236 1204   1.915   2.515   6.112  0.6768  0.5508  0.4378
    5MOL   H237 1205   1.904   2.516   5.947 -0.5649 -0.2493  0.9715
    5MOL   H238 1206   1.703   2.399   5.972  0.3319 -2.5152 -1.3458
    5MOL   H239 1207   1.723   2.382   6.150 -0.6636  1.1546  0.1654
    5MOL   H240 1208   1.692   2.244   6.042  1.0877 -0.9552 -0.2444
    5MOL   H241 1209   2.043   2.124   6.034 -1.6382  1.3317  1.1531
    5MOL   H242 1210   1.927   2.257   6.124 -3.6789 -0.4382  1.4243
    6MOL     C1 1211   5.203   7.591   2.600  0.4265  0.2849  0.6073
    6MOL     C2 1212   5.084   7.509   2.550 -0.3830 -0.2860 -0.1582
    6MOL     C3 1213   5.122   7.369   2.593 -0.6131  0.0186  0.7527
    6MOL     C4 1214   4.951   7.538   2.629 -0.4520  0.1853  0.1855
    6MOL     O5 1215   4.845   7.485   2.594 -0.0489 -0.3826 -0.5613
    6MOL     O6 1216   4.958   7.640   2.719  0.1350 -0.9661  0.2077
    6MOL     H7 1217   5.168   7.695   2.601  0.9612  0.5177 -1.9662
    6MOL     H8 1218   5.298   7.583   2.548 -0.0516 -0.7157 -0.1095
    6MOL     H9 1219   5.151   7.375   2.698  1.4067 -0.6068  0.2539
    6MOL    H10 1220   5.199   7.328   2.528 -3.0531 -1.5639 -1.2056
    6MOL    H11 1221   5.037   7.302   2.583 -0.4934 -0.1453  0.8437
    6MOL    H12 1222   4.876   7.664   2.760 -1.1156 -1.5334 -1.8900
    6MOL    H13 1223   5.219   7.586   2.708  1.2476  1.0128  0.5281
    6MOL    C14 1224   5.067   7.520   2.395 -0.3190 -0.4173  0.1495
    6MOL    C15 1225   5.034   7.661   2.320 -0.5631  0.9891  0.0425
    6MOL    C16 1226   4.897   7.717   2.369  0.5839 -0.3112  0.3665
    6MOL    C17 1227   5.133   0.010   2.329  0.2436 -0.0225 -0.5346
    6MOL    O18 1228   5.250   7.761   2.365  0.1129  0.1406 -0.0735
    6MOL    O19 1229   5.086   0.134   2.306  0.2755  0.7913 -0.4387
    6MOL    H20 1230   5.165   7.483   2.365 -0.3216 -0.3779  0.0926
    6MOL    H21 1231   4.991   7.446   2.373 -0.4433  0.0382 -0.9782
    6MOL    H22 1232   4.850   0.023   2.302  0.3148 -1.2409 -0.4838
    6MOL    H23 1233   4.891   7.753   2.472 -0.0076 -2.0302  0.9443
    6MOL    H24 1234   4.829   7.632   2.356  0.7349 -0.4263  0.3352
    6MOL    H25 1235   5.143   0.206   2.328  0.0680  1.5182 -2.2252
    6MOL    C26 1236   5.015   7.639   2.165 -0.2074 -0.3699  0.3852
    6MOL    C27 1237   5.106   7.541   2.085  0.5816  0.0302  0.3922
    6MOL    C28 1238   5.075   7.577   1.933 -0.9030 -0.6487  0.0339
    6MOL    C29 1239   5.259   7.568   2.109 -0.0444 -0.1992  0.3840
    6MOL    O30 1240   5.328   7.491   2.178 -0.3286 -0.2699 -0.4814
    6MOL    O31 1241   5.304   7.684   2.050  0.1722 -0.3843  0.6196
    6MOL    H32 1242   4.912   7.607   2.152 -0.3558  0.1067  0.4040
    6MOL    H33 1243   5.034   7.734   2.116 -0.9660 -0.2832  0.2577
    6MOL    H34 1244   5.098   7.682   1.916  3.4031 -1.0197  2.8030
    6MOL    H35 1245   4.967   7.565   1.924 -0.7262 -0.6754 -2.3265
    6MOL    H36 1246   5.124   7.518   1.856 -0.9441  0.8553 -1.1859
    6MOL    H37 1247   5.397   7.691   2.061  0.2626 -1.2427  0.4871
    6MOL    C38 1248   5.069   7.386   2.122  0.3380  0.0525  0.4134
    6MOL    C39 1249   5.049   7.279   2.012  0.3977 -0.3953  0.0289
    6MOL    C40 1250   4.923   7.314   1.930  0.7513  0.3674  0.0788
    6MOL    C41 1251   5.173   7.269   1.915 -0.1912  0.6832  0.3725
    6MOL    O42 1252   5.289   7.287   1.952  0.5470  0.3685  0.5235
    6MOL    O43 1253   5.133   7.218   1.797 -0.0116  0.1902 -0.5695
    6MOL    H44 1254   5.143   7.348   2.192  0.1178 -0.4890  0.3576
    6MOL    H45 1255   4.971   7.389   2.170 -0.3202 -0.7562 -0.8523
    6MOL    H46 1256   4.943   7.370   1.838  0.7243 -1.4339 -1.0561
    6MOL    H47 1257   4.854   7.371   1.991  0.5416  1.3062 -1.0160
    6MOL    H48 1258   4.876   7.226   1.886 -0.2510  1.2666 -0.6953
    6MOL    H49 1259   5.212   7.215   1.746  1.4422  1.9401  1.4772
    6MOL    C50 1260   5.019   7.135   2.075  0.1270 -0.0366 -0.8554
    6MOL    C51 1261   5.105   7.056   2.176  0.6728 -0.0512 -0.1221
    6MOL    C52 1262   5.263   7.082   2.164 -0.2904 -0.8019 -0.1689
    6MOL    C53 1263   5.080   7.108   2.320  0.3553  0.1587 -0.3590
    6MOL    O54 1264   4.996   7.194   2.354 -0.3240  0.3938  0.2904
    6MOL    O55 1265   5.152   7.032   2.414 -0.3332  0.1847 -0.7540
    6MOL    H56 1266   4.926   7.144   2.133 -1.3194 -0.0560 -3.1279
    6MOL    H57 1267   4.987   7.062   2.000 -2.2495  0.8214 -0.7382
    6MOL    H58 1268   5.278   7.189   2.180 -0.5720 -0.8790  0.6578
    6MOL    H59 1269   5.296   7.079   2.060  0.4459  2.3477 -0.0639
    6MOL    H60 1270   5.327   7.016   2.222 -2.0444 -0.9383  1.6918
    6MOL    H61 1271   5.114   7.050   2.499  1.4177 -0.2865  0.1495
    6MOL    C62 1272   5.086   6.902   2.151  1.3246  0.8447 -0.1410
    6MOL    C63 1273   4.954   6.827   2.181 -0.5763  0.8439  0.7537
    6MOL    C64 1274   4.848   6.856   2.078  0.8427 -0.1417 -0.0313
    6MOL    C65 1275   4.980   6.676   2.168  0.4440 -0.0382 -0.6664
    6MOL    O66 1276   4.927   6.597   2.088 -0.2474 -0.3041  0.1074
    6MOL    O67 1277   5.071   6.629   2.247 -0.8699 -0.2151 -0.2628
    6MOL    H68 1278   5.115   6.872   2.050  1.7418 -0.1619  0.2750
    6MOL    H69 1279   5.171   6.865   2.208  0.2376  0.0725  0.9973
    6MOL    H70 1280   4.804   6.956   2.080 -1.5875 -1.1269 -1.4279
    6MOL    H71 1281   4.771   6.778   2.077  0.7970 -0.1027  0.6408
    6MOL    H72 1282   4.894   6.854   1.979  0.2530 -1.9616 -0.2984
    6MOL    H73 1283   5.095   6.545   2.210  0.1810 -0.0721  0.0810
    6MOL    C74 1284   4.884   6.849   2.324  0.1265 -0.1629  0.3344
    6MOL    C75 1285   4.757   6.785   2.385 -0.4173  0.6248 -0.4806
    6MOL    C76 1286   4.638   6.783   2.286 -0.3267  0.3407 -0.1887
    6MOL    C77 1287   4.783   6.636   2.429  0.0738 -0.2568  0.0880
    6MOL    O78 1288   4.895   6.587   2.460  0.1806 -0.1358 -0.0112
    6MOL    O79 1289   4.671   6.556   2.427  0.2818 -0.0337 -0.4222
    6MOL    H80 1290   4.958   6.835   2.403  0.1770 -1.4166  0.0800
    6MOL    H81 1291   4.852   6.953   2.320  0.3593 -0.0349  1.5877
    6MOL    H82 1292   4.545   6.751   2.334 -0.5774 -0.2662 -1.0729
    6MOL    H83 1293   4.643   6.698   2.218  1.5799 -0.3520  0.7720
    6MOL    H84 1294   4.632   6.875   2.228 -1.6332  0.3330 -0.0752
    6MOL    H85 1295   4.689   6.477   2.476  1.8765  1.2550  1.1243
    6MOL    C86 1296   4.691   6.870   2.512 -0.0383 -0.4891 -0.0454
    6MOL    C87 1297   4.769   6.912   2.642  0.4383  0.5780  0.3919
    6MOL    C88 1298   4.844   6.786   2.706 -0.3886  0.6308  0.8648
    6MOL    C89 1299   4.871   7.028   2.598 -0.1370  0.7329 -0.1320
    6MOL    O90 1300   4.993   7.023   2.615  0.4330 -0.3307  0.2179
    6MOL    O91 1301   4.808   7.132   2.532 -0.3321 -0.1859  0.4606
    6MOL    H92 1302   4.651   6.966   2.479  1.1845 -0.1590 -0.5804
    6MOL    H93 1303   4.594   6.825   2.536  0.3816 -1.7333 -0.6244
    6MOL    H94 1304   4.789   6.693   2.690  1.6640 -0.3387 -0.7850
    6MOL    H95 1305   4.857   6.784   2.815  1.0969  3.0220  0.7757
    6MOL    H96 1306   4.940   6.781   2.654  0.0488 -2.4581  1.8708
    6MOL    H97 1307   4.870   7.188   2.489 -1.4593  1.0067  0.3627
    6MOL    C98 1308   4.684   6.979   2.748  0.6693  0.2351 -0.1156
    6MOL    C99 1309   4.540   6.948   2.781  0.0892 -0.2702 -0.4969
    6MOL   C100 1310   4.443   7.020   2.680 -0.2620 -0.0253 -0.0320
    6MOL   C101 1311   4.504   6.803   2.803 -0.2747  0.4684  0.4320
    6MOL   O102 1312   4.397   6.758   2.763 -0.4049 -0.1153  0.1092
    6MOL   O103 1313   4.595   6.732   2.875  0.1278 -0.2120  0.3759
    6MOL   H104 1314   4.740   6.981   2.841 -0.5227 -4.1004  0.8026
    6MOL   H105 1315   4.688   7.087   2.733  2.8762 -0.0116 -1.4958
    6MOL   H106 1316   4.425   6.945   2.603 -0.6814  2.0671 -2.0283
    6MOL   H107 1317   4.480   7.113   2.637 -0.8287  1.3600  2.3625
    6MOL   H108 1318   4.347   7.039   2.728 -0.6364  0.3245 -0.9143
    6MOL   H109 1319   4.578   6.640   2.860 -2.1334  0.0707  0.9807
    6MOL   C110 1320   4.510   7.002   2.929  0.0237 -0.1008  0.3158
    6MOL   C111 1321   4.534   7.156   2.977 -0.0679 -0.2205 -0.4496
    6MOL   C112 1322   4.442   7.171   3.099 -0.3422  0.1305  0.1065
    6MOL   C113 1323   4.681   7.180   3.026 -0.0652  0.1448 -0.0780
    6MOL   O114 1324   4.770   7.239   2.959  0.5167  0.0813 -0.2892
    6MOL   O115 1325   4.705   7.131   3.152 -0.3528 -0.7464 -0.5728
    6MOL   H116 1326   4.405   6.974   2.937 -0.2263  0.9367  0.6996
    6MOL   H117 1327   4.552   6.934   3.003  1.3861 -1.5301 -1.6857
    6MOL   H118 1328   4.468   7.262   3.153 -0.6254 -0.1485  0.7132
    6MOL   H119 1329   4.442   7.082   3.162  1.2887 -0.2446 -0.4032
    6MOL   H120 1330   4.336   7.190   3.078 -0.3525  0.7407  0.6901
    6MOL   H121 1331   4.797   7.144   3.163 -0.5062 -0.8971  0.9672
    6MOL   C122 1332   4.491   7.264   2.872 -0.2687  0.5734  0.3339
    6MOL   C123 1333   4.449   7.418   2.899 -0.0430  0.0784 -0.0732
    6MOL   C124 1334   4.449   7.464   2.747 -0.0596  0.3042 -0.7861
    6MOL   C125 1335   4.307   7.415   2.957 -0.1664 -0.3682  0.0566
    6MOL   O126 1336   4.279   7.418   3.075 -0.0103  0.3606  0.0238
    6MOL   O127 1337   4.213   7.393   2.862 -0.4999 -0.5194 -0.1504
    6MOL   H128 1338   4.565   7.258   2.793 -0.3587  2.0662  0.1067
    6MOL   H129 1339   4.403   7.218   2.827  0.7120 -0.4959 -0.4980
    6MOL   H130 1340   4.430   7.378   2.683  3.2860 -1.2838  0.1917
    6MOL   H131 1341   4.546   7.504   2.717  0.0085  0.8305  0.1173
    6MOL   H132 1342   4.368   7.533   2.725 -0.2083  0.5421  0.4700
    6MOL   H133 1343   4.126   7.382   2.897 -0.1222 -1.4749  0.5180
    6MOL   C134 1344   4.560   7.502   2.975  0.8376 -0.0537 -0.1304
    6MOL   C135 1345   4.550   7.652   3.022  0.3366  0.3049 -0.2725
    6MOL   C136 1346   4.445   7.654   3.136 -0.6724  0.2205  0.2481
    6MOL   C137 1347   4.691   7.689   3.082 -0.0508  0.3501 -0.0437
    6MOL   O138 1348   4.700   7.733   3.199 -0.4554 -0.0047  0.9011
    6MOL   O139 1349   4.801   7.666   3.004  0.1910 -0.3751 -0.1261
    6MOL   H140 1350   4.598   7.443   3.058 -1.2976 -0.0296  0.8982
    6MOL   H141 1351   4.650   7.479   2.917  0.0004 -1.6391 -0.8497
    6MOL   H142 1352   4.348   7.663   3.087 -0.8360 -1.8798  0.1310
    6MOL   H143 1353   4.453   7.743   3.198 -0.5909  0.1185  0.3871
    6MOL   H144 1354   4.461   7.564   3.196 -1.4615 -0.0986 -0.0223
    6MOL   H145 1355   4.875   7.699   3.052 -0.8337  1.7684  0.0322
    6MOL   C146 1356   4.507   7.740   2.899  0.3952  0.1566  0.5939
    6MOL   C147 1357   4.519   0.127   2.890 -0.3807 -0.0115  0.5985
    6MOL   C148 1358   4.501   0.181   3.033 -0.2328 -0.2366 -0.7005
    6MOL   C149 1359   4.660   0.176   2.848  0.4050  0.2232 -0.5833
    6MOL   O150 1360   4.758   0.106   2.825 -0.2600 -0.7079 -0.1731
    6MOL   O151 1361   4.665   0.312   2.854  0.3550 -0.0231  0.0112
    6MOL   H152 1362   4.558   7.696   2.813 -0.6168 -2.0058  1.0459
    6MOL   H153 1363   4.400   7.724   2.885  0.2039  1.1432  0.8855
    6MOL   H154 1364   4.498   0.289   3.049 -2.5069 -0.9086  4.8670
    6MOL   H155 1365   4.578   0.152   3.105 -0.8857 -2.8601 -1.0205
    6MOL   H156 1366   4.402   0.153   3.069 -0.0879  0.3756  0.2088
    6MOL   H157 1367   4.574   0.334   2.866  0.4551  1.4607 -1.8143
    6MOL   C158 1368   4.408   0.195   2.804  0.1515  0.3403 -0.5022
    6MOL   C159 1369   4.395   0.189   2.649 -0.0170 -0.0122  0.1363
    6MOL   C160 1370   4.497   0.287   2.576 -0.5621  0.7137  0.8124
    6MOL   C161 1371   4.381   0.044   2.596  0.3746 -0.5961 -0.4630
    6MOL   O162 1372   4.275   7.750   2.610 -0.3404  0.0043 -0.1891
    6MOL   O163 1373   4.494   7.766   2.548 -0.3124 -0.0328 -0.3376
    6MOL   H164 1374   4.311   0.173   2.850  0.0363 -1.2181 -1.4468
    6MOL   H165 1375   4.411   0.301   2.826 -0.2754  0.4041 -0.7549
    6MOL   H166 1376   4.472   0.392   2.592  0.3323  1.2833 -1.4208
    6MOL   H167 1377   4.495   0.254   2.472  0.1948 -2.9291  1.8557
    6MOL   H168 1378   4.602   0.267   2.595  0.2117  2.0014 -1.9047
    6MOL   H169 1379   4.503   7.673   2.531 -0.0696 -0.2682  0.9766
    6MOL   C170 1380   4.244   0.244   2.625 -0.1499 -0.1865  0.3343
    6MOL   C171 1381   4.187   0.279   2.479  0.1700  0.0813  0.3775
    6MOL   C172 1382   4.213   0.168   2.377 -0.2045 -0.1000  0.0340
    6MOL   C173 1383   4.030   0.274   2.498 -0.1820 -0.1079  0.2362
    6MOL   O174 1384   3.958   0.193   2.440  0.3367 -0.0498 -0.3409
    6MOL   O175 1385   3.984   0.377   2.572  0.8259 -0.2155 -0.4586
    6MOL   H176 1386   4.168   0.185   2.675 -0.1083 -1.1645 -0.7477
    6MOL   H177 1387   4.242   0.336   2.684  0.6576  0.9594 -1.3682
    6MOL   H178 1388   4.163   0.169   2.280 -0.0943  2.5871 -0.0239
    6MOL   H179 1389   4.182   0.069   2.410 -0.8181  0.1002  0.0655
    6MOL   H180 1390   4.321   0.165   2.357 -0.4450  1.3896 -1.6462
    6MOL   H181 1391   3.890   0.378   2.584  0.8973 -1.0527  0.2254
    6MOL   C182 1392   4.226   0.422   2.424 -1.0300 -0.2140  0.3752
    6MOL   C183 1393   4.155   0.518   2.318 -0.6965  0.7255  0.5980
    6MOL   C184 1394   4.036   0.586   2.384  0.5046 -0.4239 -0.3264
    6MOL   C185 1395   4.257   0.631   2.280 -0.0567  0.0250 -0.1538
    6MOL   O186 1396   4.272   0.730   2.354 -0.1297  0.6707  0.1560
    6MOL   O187 1397   4.328   0.595   2.168  0.2889 -0.4698  0.7813
    6MOL   H188 1398   4.277   0.480   2.501  1.4276 -1.2225 -0.4752
    6MOL   H189 1399   4.315   0.390   2.370 -0.7837  1.1552 -0.0408
    6MOL   H190 1400   4.017   0.679   2.329  0.8148  1.4247  2.5774
    6MOL   H191 1401   4.050   0.595   2.492 -1.5483  2.1745 -0.2122
    6MOL   H192 1402   3.953   0.519   2.362 -0.6461  0.4176  1.3716
    6MOL   H193 1403   4.317   0.511   2.126  0.7903 -0.7701  1.2434
    6MOL   C194 1404   4.120   0.417   2.199  0.7045  0.4545 -1.1377
    6MOL   C195 1405   4.033   0.449   2.068 -0.6040 -0.4256  0.1070
    6MOL   C196 1406   3.921   0.546   2.091 -0.1344  0.4207  0.3197
    6MOL   C197 1407   4.115   0.488   1.942 -0.3531 -0.5855 -0.2290
    6MOL   O198 1408   4.071   0.562   1.850  0.2258 -0.1286  0.0498
    6MOL   O199 1409   4.241   0.438   1.946  0.1475  0.5832  0.3678
    6MOL   H200 1410   4.215   0.371   2.172  0.4826 -1.6172  1.3583
    6MOL   H201 1411   4.062   0.343   2.253  0.4367  2.6470  1.7131
    6MOL   H202 1412   3.858   0.563   2.003  1.5454  0.2016 -0.9536
    6MOL   H203 1413   3.962   0.643   2.116  0.8605  0.0280  0.2130
    6MOL   H204 1414   3.855   0.506   2.168 -0.6851  1.0933  0.2010
    6MOL   H205 1415   4.287   0.458   1.865  2.0448  2.2032  1.8098
    6MOL   C206 1416   3.971   0.305   2.040  0.1289 -0.1767 -0.5876
    6MOL   C207 1417   3.902   0.241   1.919  0.1152  0.0574 -0.1782
    6MOL   C208 1418   3.826   0.349   1.837  0.8968 -0.4561 -0.1087
    6MOL   C209 1419   4.004   0.176   1.817 -0.1953  0.0887 -0.0249
    6MOL   O210 1420   4.122   0.157   1.840 -0.2834  0.0683  0.0557
    6MOL   O211 1421   3.949   0.153   1.698 -0.0873 -0.0733  0.0446
    6MOL   H212 1422   4.048   0.234   2.072  0.2381  0.0144 -0.4248
    6MOL   H213 1423   3.903   0.291   2.124 -0.3166 -0.7603 -1.0421
    6MOL   H214 1424   3.891   0.430   1.803  0.9715 -0.8132 -0.8138
    6MOL   H215 1425   3.754   0.412   1.889  1.5966 -0.6566  1.1092
    6MOL   H216 1426   3.780   0.315   1.744 -0.4070  1.0425 -0.0437
    6MOL   H217 1427   3.857   0.170   1.686 -0.6062  0.1198  3.8099
    6MOL   C218 1428   3.788   0.144   1.962  0.3372  0.5090  0.0168
    6MOL   C219 1429   3.815   7.763   2.011  0.0979 -0.3284  0.8772
    6MOL   C220 1430   3.855   7.672   1.893  0.2808  0.4078  0.8413
    6MOL   C221 1431   3.933   7.753   2.115  0.4033 -0.0457 -0.2863
    6MOL   O222 1432   4.043   7.707   2.093 -0.0681 -0.2244  0.1892
    6MOL   O223 1433   3.893   0.034   2.233 -0.4151 -0.3787 -0.5892
    6MOL   H224 1434   3.727   0.192   2.038  1.3939 -0.3090  1.4167
    6MOL   H225 1435   3.725   0.128   1.874  1.4891  3.5060 -1.4479
    6MOL   H226 1436   3.786   7.678   1.809  2.8966  0.8501 -1.2970
    6MOL   H227 1437   3.862   7.567   1.923 -1.0153  0.4481  1.3376
    6MOL   H228 1438   3.950   7.694   1.846  0.0064 -0.3586 -0.0753
    6MOL   H229 1439   3.962   0.020   2.295 -0.7433  0.3868 -0.0459
    6MOL   C230 1440   3.680   7.707   2.072  0.5611  0.1755 -0.5105
    6MOL   C231 1441   3.691   7.571   2.151  0.4223  0.0234 -0.3036
    6MOL   C232 1442   3.587   7.561   2.268 -0.4413  0.4496 -0.2603
    6MOL   C233 1443   3.687   7.439   2.073 -0.3360 -0.4503  0.4301
    6MOL   O234 1444   3.724   7.338   2.115 -0.4604 -0.1981  0.0579
    6MOL   O235 1445   3.618   7.454   1.955  0.0042  0.8190 -0.1809
    6MOL   H236 1446   3.644   0.013   2.144 -0.8869  0.3013 -1.3415
    6MOL   H237 1447   3.597   7.710   2.002 -0.6432  3.2108  0.9602
    6MOL   H238 1448   3.633   7.590   2.363 -0.1624  0.6533 -0.4580
    6MOL   H239 1449   3.552   7.459   2.285  2.2570 -0.9051 -2.6188
    6MOL   H240 1450   3.498   7.620   2.244 -1.5413 -0.2547  1.8887
    6MOL   H241 1451   3.619   7.369   1.913  4.6087  1.8514 -2.4695
    6MOL   H242 1452   3.788   7.567   2.201  1.0894  1.3499 -1.4717
    7MOL     C1 1453   7.746   5.621   6.332 -0.1569 -0.4124 -0.1438
    7MOL     C2 1454   7.666   5.544   6.432 -0.4286 -0.4574  0.1660
    7MOL     C3 1455   7.738   5.558   6.564  0.2820 -0.3978 -0.1371
    7MOL     C4 1456   7.525   5.601   6.451 -0.4103 -0.3403 -0.8480
    7MOL     O5 1457   7.473   5.629   6.556  0.2192  0.0411 -0.0784
    7MOL     O6 1458   7.466   5.617   6.331  0.0283  0.7637  0.7539
    7MOL     H7 1459   0.086   5.605   6.339 -0.2153  0.0450  2.2607
    7MOL     H8 1460   7.735   5.729   6.345 -0.9600 -0.7446  2.1291
    7MOL     H9 1461   7.671   5.548   6.650 -1.5766 -0.5519 -1.5757
    7MOL    H10 1462   0.006   5.661   6.572  1.0434 -0.5561 -1.3869
    7MOL    H11 1463   0.053   5.488   6.560 -0.7847 -1.6980  0.2537
    7MOL    H12 1464   7.380   5.645   6.358  0.0596  0.2429  1.4006
    7MOL    H13 1465   7.703   5.588   6.237  1.8992 -3.5855 -0.0585
    7MOL    C14 1466   7.654   5.390   6.374  0.3410  0.5892 -0.4451
    7MOL    C15 1467   7.577   5.274   6.446  0.6818  0.0997 -0.3380
    7MOL    C16 1468   7.612   5.150   6.364  0.0222  0.2145 -0.1276
    7MOL    C17 1469   7.628   5.261   6.592  0.0569 -0.3316  0.3344
    7MOL    O18 1470   7.573   5.306   6.694  0.1971 -0.6998 -0.5435
    7MOL    O19 1471   7.741   5.194   6.590  0.7186  0.0776 -0.4567
    7MOL    H20 1472   7.616   5.401   6.273  0.8700 -3.7464 -1.2087
    7MOL    H21 1473   7.756   5.351   6.365  0.6801  1.7890 -2.0555
    7MOL    H22 1474   7.720   5.141   6.349 -0.2489 -0.4494 -1.7827
    7MOL    H23 1475   7.574   5.141   6.262  0.3682  2.4847 -0.4734
    7MOL    H24 1476   7.585   5.058   6.417  1.2333 -1.3534 -2.1536
    7MOL    H25 1477   0.002   5.174   6.678 -1.4680 -1.2964 -0.0306
    7MOL    C26 1478   7.427   5.300   6.443  0.3950  0.6791  0.1159
    7MOL    C27 1479   7.319   5.187   6.438 -0.8224  0.3931  0.2906
    7MOL    C28 1480   7.314   5.124   6.292  0.1392 -0.1379  0.2538
    7MOL    C29 1481   7.334   5.062   6.539 -0.0492 -0.3658  0.0660
    7MOL    O30 1482   7.270   4.961   6.525  0.2370 -0.0825 -0.7012
    7MOL    O31 1483   7.422   5.069   6.638  0.4035 -0.0372  0.6707
    7MOL    H32 1484   7.399   5.367   6.524  1.4066 -1.7949  2.6145
    7MOL    H33 1485   7.402   5.355   6.353  0.0140  0.1763 -0.0865
    7MOL    H34 1486   7.375   5.035   6.278  1.9591  0.9736  0.9366
    7MOL    H35 1487   7.350   5.193   6.215  0.4362  1.3044  1.6560
    7MOL    H36 1488   7.211   5.091   6.279 -0.4724  1.5474  0.7109
    7MOL    H37 1489   7.411   4.994   6.695 -0.2972 -0.9932 -0.7051
    7MOL    C38 1490   7.172   5.247   6.457  0.5669 -0.2918  0.8011
    7MOL    C39 1491   7.105   5.315   6.581 -0.5119 -0.9317 -0.0480
    7MOL    C40 1492   7.118   5.222   6.705  1.0618  0.5014 -0.1392
    7MOL    C41 1493   7.166   5.449   6.604  0.3814  0.1917 -0.6247
    7MOL    O42 1494   7.187   5.539   6.522  0.1362  0.0760  0.1667
    7MOL    O43 1495   7.197   5.466   6.737 -0.3487 -0.0782 -0.0210
    7MOL    H44 1496   7.152   5.315   6.374  0.9645 -0.5275  0.5129
    7MOL    H45 1497   7.104   5.165   6.436 -0.5182  0.6738  0.4302
    7MOL    H46 1498   7.223   5.210   6.732  1.0096  0.1010 -0.1117
    7MOL    H47 1499   7.078   5.123   6.682  2.1724  0.1935 -0.8004
    7MOL    H48 1500   7.075   5.245   6.802  0.1617 -1.7634  0.0243
    7MOL    H49 1501   7.247   5.544   6.755  1.5562 -1.2397 -0.1428
    7MOL    C50 1502   6.956   5.329   6.543  0.3352  0.1028  0.3590
    7MOL    C51 1503   6.848   5.416   6.619 -0.0543  0.2227 -0.8427
    7MOL    C52 1504   6.881   5.567   6.616 -0.1551 -0.5330  0.0665
    7MOL    C53 1505   6.721   5.393   6.532 -0.1408  0.3939 -0.7335
    7MOL    O54 1506   6.663   5.287   6.532  0.3722 -0.2042 -0.0777
    7MOL    O55 1507   6.696   5.501   6.450  0.0330  0.1640  0.6657
    7MOL    H56 1508   6.948   5.357   6.438 -1.2984 -1.5529  0.0215
    7MOL    H57 1509   6.915   5.229   6.532  2.2884 -0.6127 -0.7963
    7MOL    H58 1510   6.794   5.632   6.622 -1.6280 -2.1708 -2.7381
    7MOL    H59 1511   6.908   5.600   6.515 -1.0574  0.1030  0.0267
    7MOL    H60 1512   6.960   5.599   6.684 -0.7775 -0.5901  0.8128
    7MOL    H61 1513   6.616   5.479   6.403  0.1705 -1.9100  1.3419
    7MOL    C62 1514   6.837   5.354   6.772  0.6201  0.1673  0.5870
    7MOL    C63 1515   6.730   5.402   6.874  0.1071 -0.3806  0.1828
    7MOL    C64 1516   6.762   5.552   6.903  0.1054  0.0445 -0.4375
    7MOL    C65 1517   6.585   5.405   6.821  0.6205 -0.5559 -1.0331
    7MOL    O66 1518   6.511   5.503   6.824  0.4184  0.3671  0.5893
    7MOL    O67 1519   6.540   5.280   6.801  0.0118  0.5752 -0.5055
    7MOL    H68 1520   6.854   5.247   6.765 -0.9510 -0.0309 -0.3420
    7MOL    H69 1521   6.930   5.386   6.819  1.0968 -1.0838  0.5009
    7MOL    H70 1522   6.869   5.566   6.919  0.0554  0.7317 -0.6987
    7MOL    H71 1523   6.723   5.594   6.996  0.8381  1.4843 -0.7691
    7MOL    H72 1524   6.732   5.619   6.823  0.8652 -0.7162 -1.3790
    7MOL    H73 1525   6.461   5.284   6.751 -0.7182  1.0227  0.6539
    7MOL    C74 1526   6.761   5.308   6.991  0.2920  0.0468  0.0225
    7MOL    C75 1527   6.723   5.334   7.140  0.0954 -0.4081  0.2022
    7MOL    C76 1528   6.574   5.395   7.142 -0.2480 -0.6670 -0.5680
    7MOL    C77 1529   6.711   5.205   7.217  0.5201 -0.7817  0.1900
    7MOL    O78 1530   6.632   5.187   7.309  0.4625  0.3782  0.1787
    7MOL    O79 1531   6.785   5.104   7.171 -0.2972  0.5246  0.4373
    7MOL    H80 1532   6.713   5.214   6.964  0.1497 -0.5363  2.1635
    7MOL    H81 1533   6.864   5.272   6.987 -0.1185 -1.0996 -0.4274
    7MOL    H82 1534   6.562   5.493   7.096 -2.1893 -0.3045  0.6608
    7MOL    H83 1535   6.533   5.397   7.243 -1.0662 -0.1300 -0.9169
    7MOL    H84 1536   6.512   5.327   7.084 -0.1804  0.4254 -1.9359
    7MOL    H85 1537   6.763   5.024   7.216  0.4369 -0.6210 -1.1653
    7MOL    C86 1538   6.838   5.414   7.199  0.7868 -0.2603  0.3171
    7MOL    C87 1539   6.820   5.521   7.323 -0.2218 -0.3442 -0.2595
    7MOL    C88 1540   6.966   5.559   7.361  0.1923 -0.0993 -0.3756
    7MOL    C89 1541   6.767   5.657   7.270  0.0296 -0.0175  0.1268
    7MOL    O90 1542   6.834   5.738   7.200 -0.3509 -0.0598 -0.0728
    7MOL    O91 1543   6.635   5.671   7.289 -0.5943 -0.3323 -0.6484
    7MOL    H92 1544   6.912   5.339   7.224  0.1092 -0.8096  0.7025
    7MOL    H93 1545   6.884   5.469   7.117  0.7900  1.3404  1.3720
    7MOL    H94 1546   7.024   5.567   7.270 -0.7196  1.6617 -0.8233
    7MOL    H95 1547   7.007   5.465   7.397 -0.0612 -0.3962 -0.8662
    7MOL    H96 1548   6.978   5.646   7.427  3.6784 -0.2507 -0.7323
    7MOL    H97 1549   6.589   5.745   7.254 -0.8232  0.4561  1.2711
    7MOL    C98 1550   6.744   5.447   7.440 -0.3355 -0.1240 -0.2326
    7MOL    C99 1551   6.740   5.508   7.586  0.0807  0.3087 -0.0030
    7MOL   C100 1552   6.721   5.670   7.592 -0.1108  0.5624 -0.2578
    7MOL   C101 1553   6.608   5.444   7.640  0.5554 -0.4711 -0.2847
    7MOL   O102 1554   6.516   5.513   7.690  0.2118  0.0361 -0.1308
    7MOL   O103 1555   6.607   5.307   7.645  0.4388  0.1402  0.1136
    7MOL   H104 1556   6.643   5.428   7.402 -1.8700  2.2202  2.4175
    7MOL   H105 1557   6.781   5.346   7.452 -0.4403 -0.1440 -0.0674
    7MOL   H106 1558   6.634   5.707   7.538 -0.3766 -0.2590 -0.4031
    7MOL   H107 1559   6.802   5.729   7.551 -0.9643  2.4859  0.7648
    7MOL   H108 1560   6.712   5.716   7.691  1.4824  1.8128 -0.6760
    7MOL   H109 1561   6.525   5.275   7.681 -0.9108  0.6984 -2.3438
    7MOL   C110 1562   6.871   5.460   7.670  0.1190  0.1580  0.6515
    7MOL   C111 1563   6.932   5.540   0.022 -0.6948  0.7011 -0.6032
    7MOL   C112 1564   6.989   5.679   7.737  0.4560 -0.1442 -0.6100
    7MOL   C113 1565   6.834   5.576   0.134  0.5216 -0.3397  0.2492
    7MOL   O114 1566   6.853   5.660   0.218  0.0431  0.2301  0.3960
    7MOL   O115 1567   6.730   5.494   0.135 -0.5289  0.2808 -0.3489
    7MOL   H116 1568   6.858   5.356   7.698  1.0433 -0.5091 -1.3269
    7MOL   H117 1569   6.949   5.460   7.594 -0.2035 -1.6576  0.2901
    7MOL   H118 1570   7.058   5.729   0.038 -0.7119 -1.3161  1.4939
    7MOL   H119 1571   6.904   5.748   7.731 -0.1573 -0.9626 -1.4611
    7MOL   H120 1572   7.037   5.680   7.639 -0.3187 -1.2072 -1.0109
    7MOL   H121 1573   6.668   5.511   0.204  1.3818 -0.3790  1.5903
    7MOL   C122 1574   7.046   5.454   0.096 -0.3479  0.2552 -0.6147
    7MOL   C123 1575   7.166   5.386   0.010 -0.1618 -0.7928  0.5075
    7MOL   C124 1576   7.210   5.482   7.664 -0.4424  0.2215  0.5257
    7MOL   C125 1577   7.285   5.374   0.107  0.2309 -0.8257 -0.6713
    7MOL   O126 1578   7.399   5.412   0.077  0.1395 -0.1125 -0.6146
    7MOL   O127 1579   7.245   5.322   0.228  1.0024  0.3964 -0.5043
    7MOL   H128 1580   7.089   5.506   0.182 -1.4461 -0.0591  0.1341
    7MOL   H129 1581   6.975   5.375   0.121  1.2180 -0.4589  1.7180
    7MOL   H130 1582   7.148   5.485   7.575  0.1882  0.1176  0.0813
    7MOL   H131 1583   7.300   5.450   7.612 -1.3664 -0.3573 -0.7253
    7MOL   H132 1584   7.223   5.586   7.697  1.3253  0.6967 -1.5116
    7MOL   H133 1585   7.312   5.288   0.286 -0.7311  0.5665  1.6573
    7MOL   C134 1586   7.128   5.252   7.705 -0.1271  0.7586 -0.4574
    7MOL   C135 1587   7.077   5.116   0.008 -0.5675 -0.2427  0.9584
    7MOL   C136 1588   7.193   5.038   0.070 -0.3677 -0.1563  0.1685
    7MOL   C137 1589   6.979   5.137   0.123  0.2243  0.4235 -0.2105
    7MOL   O138 1590   7.013   5.127   0.241 -0.3306 -0.4136  0.2064
    7MOL   O139 1591   6.853   5.168   0.091 -0.2063  0.1517  0.7390
    7MOL   H140 1592   7.043   5.268   7.639 -0.9552  0.1182  0.4232
    7MOL   H141 1593   7.215   5.226   7.645  2.2297  0.0945  3.0682
    7MOL   H142 1594   7.262   4.993   7.766 -1.4448 -0.6924 -0.5510
    7MOL   H143 1595   7.147   4.957   0.127  0.1431 -1.1711 -0.8497
    7MOL   H144 1596   7.252   5.096   0.141 -0.0994 -0.3198  0.0787
    7MOL   H145 1597   6.801   5.185   0.168 -1.5046 -0.2454 -0.0397
    7MOL   C146 1598   6.991   5.028   7.670  0.0552 -0.2267 -0.0225
    7MOL   C147 1599   7.043   4.952   7.545 -0.0532  0.3327  0.1468
    7MOL   C148 1600   7.117   5.061   7.466 -0.3818  0.2305  0.0113
    7MOL   C149 1601   7.136   4.832   7.571 -0.1489 -0.5548 -1.2586
    7MOL   O150 1602   7.143   4.774   7.676 -0.0495  0.1136 -0.4748
    7MOL   O151 1603   7.227   4.813   7.475  0.4933 -0.2148 -0.1020
    7MOL   H152 1604   6.944   4.947   7.727 -2.2963 -1.1420 -3.1522
    7MOL   H153 1605   6.905   5.086   7.635  1.7282  1.6376 -1.1506
    7MOL   H154 1606   7.221   5.089   7.479  0.2286 -2.4318  1.2776
    7MOL   H155 1607   7.052   5.147   7.451 -0.8730  0.0106  0.8321
    7MOL   H156 1608   7.122   5.027   7.362  1.4266  1.8569 -0.4501
    7MOL   H157 1609   7.295   4.758   7.510  0.8867 -0.6970 -1.6041
    7MOL   C158 1610   6.926   4.906   7.450 -0.9274  0.6783  0.9211
    7MOL   C159 1611   6.790   4.836   7.495 -0.2903 -0.4035 -0.3076
    7MOL   C160 1612   6.702   4.930   7.578 -0.0410 -0.6405  0.0304
    7MOL   C161 1613   6.711   4.800   7.370  0.0209 -0.3995  0.1412
    7MOL   O162 1614   6.612   4.857   7.335 -0.5522  0.2765 -0.3705
    7MOL   O163 1615   6.779   4.705   7.302  0.5387  0.4039  0.5481
    7MOL   H164 1616   6.895   4.995   7.395 -2.5818  0.6711  1.7998
    7MOL   H165 1617   6.972   4.841   7.377  0.3513  2.1637  0.3817
    7MOL   H166 1618   6.595   4.910   7.578 -0.0108 -0.8574 -2.2409
    7MOL   H167 1619   6.710   5.030   7.536  2.7575 -1.0777 -0.5757
    7MOL   H168 1620   6.724   4.942   7.685  1.4128  0.7966 -0.4113
    7MOL   H169 1621   6.733   4.686   7.222 -0.4386  1.2885  0.8840
    7MOL   C170 1622   6.835   4.711   7.582  0.6139 -0.8535 -0.8514
    7MOL   C171 1623   6.741   4.610   7.649 -0.3041 -0.2790  0.0877
    7MOL   C172 1624   6.625   4.559   7.558  0.2964 -0.3725  0.0127
    7MOL   C173 1625   6.822   4.476   7.682 -0.0489 -0.2445 -0.1026
    7MOL   O174 1626   6.789   4.365   7.661  0.0172  0.1507  0.3705
    7MOL   O175 1627   6.947   4.500   7.741  0.0069  0.3656 -0.2716
    7MOL   H176 1628   6.902   4.659   7.514  1.0050 -0.5380 -0.7067
    7MOL   H177 1629   6.906   4.749   7.655  0.7741  4.0560 -3.4047
    7MOL   H178 1630   6.664   4.512   7.468  1.3687  0.6005 -0.0502
    7MOL   H179 1631   6.562   4.643   7.528 -0.3311 -1.1466 -0.8339
    7MOL   H180 1632   6.566   4.480   7.604 -1.7468  1.7820  1.1520
    7MOL   H181 1633   6.991   4.416   7.750 -2.3990 -0.7541  1.7172
    7MOL   C182 1634   6.693   4.670   0.023 -0.2829 -0.2125  0.7616
    7MOL   C183 1635   6.571   4.619   0.106  0.7235  0.3880  0.8429
    7MOL   C184 1636   6.431   4.652   0.037  0.1127 -0.3194  0.0980
    7MOL   C185 1637   6.582   4.465   0.126  0.5352  0.7292  0.2284
    7MOL   O186 1638   6.501   4.379   0.083  0.0028  0.4466 -0.1822
    7MOL   O187 1639   6.685   4.436   0.207  0.0099  0.2695  0.1082
    7MOL   H188 1640   6.785   4.668   0.082 -0.7947 -2.4102  1.5148
    7MOL   H189 1641   6.669   4.776   0.014 -1.8913 -0.7525 -1.6502
    7MOL   H190 1642   6.404   4.577   7.729 -0.2418 -1.7524  1.6311
    7MOL   H191 1643   6.427   4.752   7.761  0.9890 -0.5221 -0.4641
    7MOL   H192 1644   6.360   4.645   0.120 -1.5423 -0.0789 -1.2623
    7MOL   H193 1645   6.675   4.343   0.223 -1.1969  0.4945  0.6351
    7MOL   C194 1646   6.574   4.686   0.246  0.1666 -0.4326 -0.4210
    7MOL   C195 1647   6.583   4.837   0.289 -0.3842 -0.2881 -0.1451
    7MOL   C196 1648   6.733   4.879   0.269 -0.4579  1.2717  0.0616
    7MOL   C197 1649   6.496   4.924   0.192 -0.2421  0.7723 -0.4230
    7MOL   O198 1650   6.535   5.007   0.109  1.0133  0.1468 -0.0405
    7MOL   O199 1651   6.368   4.899   0.216 -0.1773 -0.3410 -0.3158
    7MOL   H200 1652   6.486   4.645   0.296  0.0269  0.5753  0.1554
    7MOL   H201 1653   6.655   4.634   0.297  0.0505 -0.4090 -0.2113
    7MOL   H202 1654   6.760   4.977   0.308  0.3926  0.7802  0.7168
    7MOL   H203 1655   6.762   4.884   0.164 -3.6070  0.6178 -0.8962
    7MOL   H204 1656   6.794   4.809   0.324 -2.4285  1.1723  2.2029
    7MOL   H205 1657   6.305   4.929   0.153  0.3400  2.3908  0.4202
    7MOL   C206 1658   6.548   4.841   0.446 -0.7390 -0.2847  0.4512
    7MOL   C207 1659   6.582   4.964   0.545  0.4953 -0.8255  0.2901
    7MOL   C208 1660   6.512   4.935   0.686  0.2344  0.1814 -0.3427
    7MOL   C209 1661   6.732   4.964   0.566  0.4747  0.5844 -0.1267
    7MOL   O210 1662   6.812   5.058   0.556 -0.0350 -0.4815 -0.0131
    7MOL   O211 1663   6.778   4.839   0.601 -0.1695  0.1365  0.0422
    7MOL   H212 1664   6.440   4.834   0.455 -0.7171  0.8560  1.8878
    7MOL   H213 1665   6.582   4.747   0.490 -1.8124 -0.5074  0.8195
    7MOL   H214 1666   6.499   4.827   0.696  1.0675  0.1248  0.1219
    7MOL   H215 1667   6.415   4.986   0.685 -0.7069 -1.5633  0.3706
    7MOL   H216 1668   6.573   4.975   0.767 -0.4341 -0.7780  0.6474
    7MOL   H217 1669   6.868   4.855   0.623  0.0090 -0.9599  0.1065
    7MOL   C218 1670   6.523   5.098   0.481  0.1132  0.7661 -0.4791
    7MOL   C219 1671   6.551   5.250   0.515 -0.3044  0.2297 -0.2044
    7MOL   C220 1672   6.588   5.262   0.671 -0.0388  0.2972  0.1692
    7MOL   C221 1673   6.668   5.303   0.432  0.1075 -0.2745 -0.2947
    7MOL   O222 1674   6.725   5.238   0.346 -0.0359  0.0021 -0.3818
    7MOL   O223 1675   6.709   5.429   0.472 -0.0137  0.3817 -0.0766
    7MOL   H224 1676   6.535   5.095   0.373 -0.0880 -0.7668 -0.4626
    7MOL   H225 1677   6.417   5.076   0.494 -0.1605  2.5286  0.4338
    7MOL   H226 1678   6.684   5.211   0.683  0.6279  1.7603  1.2155
    7MOL   H227 1679   6.519   5.228   0.748 -2.1014 -0.5919 -2.0153
    7MOL   H228 1680   6.597   5.365   0.704 -1.7942 -0.3898  3.0197
    7MOL   H229 1681   6.790   5.449   0.428 -0.9893  4.1457 -0.3911
    7MOL   C230 1682   6.428   5.337   0.480  0.4852 -0.1930  0.2729
    7MOL   C231 1683   6.370   5.322   0.337  0.5145 -0.2598  0.1317
    7MOL   C232 1684   6.224   5.274   0.326 -0.7426 -0.2514 -0.0675
    7MOL   C233 1685   6.400   5.438   0.232 -0.5726  0.4650 -0.1308
    7MOL   O234 1686   6.496   5.508   0.252  0.3405 -0.1989  0.2948
    7MOL   O235 1687   6.318   5.445   0.121  0.3389  0.0630 -0.8817
    7MOL   H236 1688   6.351   5.318   0.556  1.2382 -0.2144  1.0418
    7MOL   H237 1689   6.437   5.445   0.498 -1.0281 -0.3169  1.9377
    7MOL   H238 1690   6.173   5.281   0.230  0.8919  0.3217 -0.9215
    7MOL   H239 1691   6.162   5.333   0.393  0.9386 -0.5441  1.7845
    7MOL   H240 1692   6.218   5.171   0.362  1.8648 -0.3413  0.2110
    7MOL   H241 1693   6.348   5.511   0.061  2.5286  1.5837  1.7570
    7MOL   H242 1694   6.422   5.231   0.306 -1.0427 -1.5559  1.2120
    8MOL     C1 1695   7.063   3.219   1.824  0.2143  0.0166  0.0047
    8MOL     C2 1696   6.930   3.213   1.733 -0.2526  0.1207 -0.0429
    8MOL     C3 1697   6.811   3.197   1.828  0.1148  0.2477 -0.2253
    8MOL     C4 1698   6.926   3.344   1.651  0.4337  0.2221 -0.4033
    8MOL     O5 1699   6.895   3.360   1.535 -0.2161 -0.0759  0.3312
    8MOL     O6 1700   6.940   3.454   1.732 -0.2765 -0.2949  0.2231
    8MOL     H7 1701   7.156   3.219   1.765 -1.3004 -0.4893 -2.4605
    8MOL     H8 1702   7.061   3.128   1.884  0.2682 -0.2289 -0.3592
    8MOL     H9 1703   6.718   3.176   1.775  0.0738 -1.2069  0.4018
    8MOL    H10 1704   6.797   3.283   1.893  0.6216 -1.0750  1.6881
    8MOL    H11 1705   6.830   3.113   1.895  1.2009  0.2628 -0.5085
    8MOL    H12 1706   6.911   3.536   1.695  2.3679 -0.4740 -2.4599
    8MOL    H13 1707   7.075   3.304   1.890 -0.3527  0.2887 -0.2419
    8MOL    C14 1708   6.938   3.089   1.638 -0.5110  0.8295 -1.0653
    8MOL    C15 1709   7.066   3.022   1.579  0.1390  0.3971  0.0681
    8MOL    C16 1710   7.155   3.127   1.507 -0.0878 -0.0241  0.2313
    8MOL    C17 1711   7.140   2.952   1.691 -0.8600 -0.8133  0.1469
    8MOL    O18 1712   7.257   2.975   1.705 -0.6369  0.9148 -0.0346
    8MOL    O19 1713   7.075   2.868   1.784  0.4685  0.0687  0.4955
    8MOL    H20 1714   6.882   3.007   1.683  0.3954  0.0632 -1.3120
    8MOL    H21 1715   6.876   3.113   1.552 -1.6884 -2.4063 -1.1711
    8MOL    H22 1716   7.094   3.170   1.427  1.0410 -1.2258 -1.3180
    8MOL    H23 1717   7.239   3.081   1.453 -0.5906  0.6221 -1.1379
    8MOL    H24 1718   7.205   3.204   1.566  0.7888  0.0610 -0.6034
    8MOL    H25 1719   7.119   2.873   1.868  1.5293  1.7555 -0.1304
    8MOL    C26 1720   7.014   2.921   1.467 -0.0503  0.7135 -0.0559
    8MOL    C27 1721   7.098   2.800   1.405 -0.3389 -0.6212  0.3808
    8MOL    C28 1722   7.234   2.849   1.368 -0.1790  0.3248  0.5681
    8MOL    C29 1723   7.101   2.687   1.512  0.0875 -0.7169  0.1846
    8MOL    O30 1724   7.209   2.661   1.577  0.2735  0.0111 -0.3151
    8MOL    O31 1725   6.983   2.631   1.528 -0.1169  0.2246 -0.0618
    8MOL    H32 1726   6.924   2.873   1.505  0.4106 -0.2481 -0.1629
    8MOL    H33 1727   6.972   2.972   1.380 -3.9414  0.0626  1.3925
    8MOL    H34 1728   7.290   2.770   1.317 -1.6936 -0.5420  0.2277
    8MOL    H35 1729   7.296   2.869   1.455  0.9321 -0.4276 -0.0335
    8MOL    H36 1730   7.240   2.940   1.307 -1.0380 -0.1244 -0.2046
    8MOL    H37 1731   6.978   2.560   1.590 -1.9106  0.1561 -0.2772
    8MOL    C38 1732   7.024   2.754   1.278  0.1576 -0.4425 -0.4715
    8MOL    C39 1733   7.044   2.619   1.196  0.1658  0.4527 -0.3761
    8MOL    C40 1734   7.192   2.572   1.191  0.1879  0.4506 -0.5734
    8MOL    C41 1735   6.962   2.499   1.267 -0.2193 -0.3406  0.0856
    8MOL    O42 1736   7.021   2.404   1.317  0.1581  0.0524  0.4936
    8MOL    O43 1737   6.825   2.525   1.270 -0.5453  0.2645  0.0559
    8MOL    H44 1738   6.919   2.753   1.305  0.1127 -1.7070 -0.6608
    8MOL    H45 1739   7.017   2.838   1.208  1.5867  0.2525  0.1932
    8MOL    H46 1740   7.232   2.553   1.290 -1.8830 -0.0562  0.2038
    8MOL    H47 1741   7.268   2.636   1.147  0.8774  0.3694  0.4970
    8MOL    H48 1742   7.199   2.470   1.150 -0.4484  0.6576 -1.2114
    8MOL    H49 1743   6.782   2.454   1.314  0.2714 -0.0269  0.3798
    8MOL    C50 1744   6.980   2.642   1.055  0.3387  0.0794  0.4505
    8MOL    C51 1745   7.058   2.700   0.931  0.8929 -0.1204  0.1289
    8MOL    C52 1746   7.133   2.828   0.973  0.5006  0.4342 -0.5245
    8MOL    C53 1747   7.157   2.584   0.883 -0.0799  0.3801 -0.0138
    8MOL    O54 1748   7.124   2.471   0.846  0.1678 -0.2232  0.0926
    8MOL    O55 1749   7.286   2.629   0.879  0.0093 -0.5322 -0.2364
    8MOL    H56 1750   6.934   2.548   1.025 -0.8522 -0.2099  3.0337
    8MOL    H57 1751   6.890   2.704   1.060  0.9205  1.0773 -1.0716
    8MOL    H58 1752   7.068   2.911   1.000 -1.3771 -0.2691 -2.7610
    8MOL    H59 1753   7.195   2.872   0.895  1.6964 -0.1206  0.0896
    8MOL    H60 1754   7.202   2.806   1.055 -1.9941 -1.2889  1.1565
    8MOL    H61 1755   7.332   2.549   0.859 -1.0387 -1.1756 -0.1372
    8MOL    C62 1756   6.960   2.716   0.816  0.1412  0.9496 -0.0943
    8MOL    C63 1757   6.996   2.791   0.682  0.4752  0.1956 -0.0751
    8MOL    C64 1758   7.003   2.953   0.695 -0.2082  0.4261 -0.3571
    8MOL    C65 1759   7.127   2.745   0.615 -0.2352 -0.2181  0.5642
    8MOL    O66 1760   7.228   2.818   0.601  0.6374  0.4072 -0.1507
    8MOL    O67 1761   7.130   2.615   0.583  0.0219 -0.2111  0.8615
    8MOL    H68 1762   6.909   2.622   0.795 -0.3194  1.3046 -0.5759
    8MOL    H69 1763   6.883   2.786   0.847  1.5913  2.8009 -0.6298
    8MOL    H70 1764   7.068   2.996   0.771 -0.7390  2.2539 -0.9169
    8MOL    H71 1765   6.914   3.002   0.733  0.9031  3.1280 -1.1306
    8MOL    H72 1766   7.042   3.007   0.609  0.3584  1.3081  0.4472
    8MOL    H73 1767   7.213   2.584   0.550  1.0680  0.5202  2.7251
    8MOL    C74 1768   6.870   2.758   0.586  0.3678 -0.4989 -0.8030
    8MOL    C75 1769   6.868   2.794   0.428 -0.0072 -0.1882 -0.2026
    8MOL    C76 1770   6.898   2.939   0.397  0.4639 -0.5715  0.2004
    8MOL    C77 1771   6.964   2.698   0.350  0.2045  0.6368  0.7022
    8MOL    O78 1772   7.048   2.740   0.276 -0.3655  0.0931 -0.0272
    8MOL    O79 1773   6.951   2.562   0.368 -0.0079 -0.1424 -0.1137
    8MOL    H80 1774   6.843   2.652   0.591  1.5122 -0.7882 -0.6754
    8MOL    H81 1775   6.790   2.822   0.624 -1.0321  0.5577 -5.1981
    8MOL    H82 1776   7.004   2.949   0.422  0.4703  1.2588 -0.5435
    8MOL    H83 1777   6.847   3.016   0.453  0.1137 -0.1684 -0.6664
    8MOL    H84 1778   6.887   2.964   0.292 -0.6319 -1.4557  0.0936
    8MOL    H85 1779   7.015   2.513   0.319  0.3254  0.6098 -0.4316
    8MOL    C86 1780   6.718   2.755   0.385 -0.2262 -0.4307 -0.2128
    8MOL    C87 1781   6.648   2.801   0.256 -0.1109 -0.3580 -0.4915
    8MOL    C88 1782   6.607   2.955   0.271 -0.0842 -0.1113 -0.3976
    8MOL    C89 1783   6.727   2.790   0.126  0.0009  1.0555  1.3601
    8MOL    O90 1784   6.727   2.880   0.038  0.5214 -0.0933  0.1151
    8MOL    O91 1785   6.797   2.683   0.118  0.0545  0.2893  0.3787
    8MOL    H92 1786   6.702   2.648   0.393 -0.7880 -0.3601 -0.3476
    8MOL    H93 1787   6.657   2.792   0.468  0.3153 -2.4755  1.1043
    8MOL    H94 1788   6.545   2.974   0.358  0.3341 -0.2484 -0.0713
    8MOL    H95 1789   6.538   2.984   0.191 -2.5813  1.2043  2.1372
    8MOL    H96 1790   6.694   3.020   0.271 -0.1214  0.1228  4.6429
    8MOL    H97 1791   6.832   2.664   0.032  0.6727 -0.6623  0.8338
    8MOL    C98 1792   6.503   2.731   0.248 -0.3866 -0.4784 -0.5299
    8MOL    C99 1793   6.469   2.591   0.170 -0.3828  0.0807 -0.0987
    8MOL   C100 1794   6.319   2.564   0.196  0.1639  0.3180  0.4807
    8MOL   C101 1795   6.491   2.606   0.018  0.2563  0.4406  0.2250
    8MOL   O102 1796   6.586   2.546   7.734  0.3203 -0.3502  0.4889
    8MOL   O103 1797   6.410   2.698   7.726 -0.0233  0.0222 -0.3252
    8MOL   H104 1798   6.457   2.723   0.347  0.6694 -0.2006 -0.0059
    8MOL   H105 1799   6.431   2.802   0.206 -1.7391 -0.5181  1.6257
    8MOL   H106 1800   6.269   2.653   0.158 -2.8986 -1.1456  0.9045
    8MOL   H107 1801   6.294   2.547   0.301  1.0959  0.4826  0.7312
    8MOL   H108 1802   6.285   2.478   0.138 -1.1971  1.6667 -0.7623
    8MOL   H109 1803   6.413   2.686   7.632 -0.4775  0.3335 -0.3842
    8MOL   C110 1804   6.556   2.478   0.235  0.0307 -0.0459  0.1882
    8MOL   C111 1805   6.548   2.319   0.204  0.2919 -1.0593  0.0341
    8MOL   C112 1806   6.412   2.262   0.236  0.6066  0.3003  0.7059
    8MOL   C113 1807   6.591   2.275   0.059 -0.2768  0.4157 -0.1792
    8MOL   O114 1808   6.519   2.200   7.754  0.6323  0.3545  0.0385
    8MOL   O115 1809   6.708   2.324   0.018 -0.4107  0.1470 -0.1306
    8MOL   H116 1810   6.663   2.499   0.224 -0.0139  0.1132  0.0701
    8MOL   H117 1811   6.533   2.497   0.340 -0.6502  1.8535 -0.2897
    8MOL   H118 1812   6.417   2.154   0.228  1.5477  0.3916 -0.0126
    8MOL   H119 1813   6.338   2.280   0.158  0.7700 -4.2233 -0.6384
    8MOL   H120 1814   6.369   2.292   0.332 -2.4719  2.9907 -1.3630
    8MOL   H121 1815   6.722   2.300   7.695  0.7416  0.1517  0.0421
    8MOL   C122 1816   6.654   2.247   0.297 -0.1808 -0.2418 -0.3608
    8MOL   C123 1817   6.632   2.205   0.452  0.2094 -0.2839  0.6568
    8MOL   C124 1818   6.591   2.333   0.537 -0.3474 -0.6192  0.4398
    8MOL   C125 1819   6.536   2.086   0.460 -0.2715  0.2757 -0.6330
    8MOL   O126 1820   6.559   1.976   0.403  0.0166  0.2851 -0.3816
    8MOL   O127 1821   6.428   2.114   0.541  0.1521 -0.6977  0.4757
    8MOL   H128 1822   6.694   2.157   0.251  0.6503 -0.3913  0.6402
    8MOL   H129 1823   6.751   2.297   0.303 -0.5660  0.6100 -1.0528
    8MOL   H130 1824   6.596   2.315   0.644 -0.6690  0.1936  0.5936
    8MOL   H131 1825   6.490   2.362   0.509 -0.4913 -1.0874  0.4687
    8MOL   H132 1826   6.663   2.412   0.515  0.4651 -1.1186  1.3016
    8MOL   H133 1827   6.379   2.036   0.564  1.2551 -2.3647 -2.5339
    8MOL   C134 1828   6.768   2.150   0.512 -0.1379 -0.2619  0.2762
    8MOL   C135 1829   6.796   2.126   0.667 -0.4905  0.4170 -0.3130
    8MOL   C136 1830   6.927   2.041   0.664  0.1194  0.1544 -1.0110
    8MOL   C137 1831   6.833   2.265   0.734  0.4507 -0.0539  0.6854
    8MOL   O138 1832   6.771   2.320   0.825 -0.0334  0.4706  0.8525
    8MOL   O139 1833   6.955   2.306   0.687  0.6383  0.0722 -0.5150
    8MOL   H140 1834   6.802   2.065   0.452  1.9720  1.1388 -0.5924
    8MOL   H141 1835   6.842   2.226   0.487 -1.0590  0.6185  0.1884
    8MOL   H142 1836   6.994   2.065   0.581  1.1719  1.6759  0.2645
    8MOL   H143 1837   6.897   1.938   0.647 -3.5328  0.8998  0.6072
    8MOL   H144 1838   6.981   2.041   0.759 -0.0914  1.6406 -0.8790
    8MOL   H145 1839   6.988   2.379   0.738 -2.2574  0.1420  1.3937
    8MOL   C146 1840   6.685   2.046   0.747 -0.1873  0.3338  0.4597
    8MOL   C147 1841   6.675   1.994   0.896  0.1685 -0.7082 -0.8322
    8MOL   C148 1842   6.801   1.914   0.935 -0.7006  0.4977  0.0805
    8MOL   C149 1843   6.657   2.110   0.998 -0.5928 -0.3780  0.0041
    8MOL   O150 1844   6.726   2.132   1.095  0.3592  0.0429  0.1777
    8MOL   O151 1845   6.551   2.189   0.966 -0.0141  0.2421 -0.5011
    8MOL   H152 1846   6.595   2.106   0.731  0.1362  0.9254  0.8323
    8MOL   H153 1847   6.668   1.961   0.681 -4.3170  0.9905  0.5411
    8MOL   H154 1848   6.809   1.856   1.027 -0.3264  1.6596  0.7997
    8MOL   H155 1849   6.878   1.989   0.949 -1.1994  1.0896 -0.3060
    8MOL   H156 1850   6.832   1.855   0.849 -0.6794 -1.3659  1.3413
    8MOL   H157 1851   6.531   2.255   1.031  2.4748  0.3835  0.1578
    8MOL   C158 1852   6.550   1.902   0.902 -0.3287 -0.8235  0.2543
    8MOL   C159 1853   6.535   1.741   0.877  0.0331  0.2375  0.8264
    8MOL   C160 1854   6.580   1.693   0.737  0.1769 -0.0093  0.0735
    8MOL   C161 1855   6.614   1.661   0.976 -0.2413  0.4809 -0.2750
    8MOL   O162 1856   6.648   1.546   0.959 -0.1473 -0.3494  0.5488
    8MOL   O163 1857   6.616   1.714   1.099 -0.4387  0.2614 -0.0359
    8MOL   H164 1858   6.501   1.924   0.997 -2.2783 -0.3372 -0.8336
    8MOL   H165 1859   6.482   1.944   0.828  0.6228 -1.4972 -1.0207
    8MOL   H166 1860   6.683   1.719   0.713 -0.1221 -0.6568 -1.9909
    8MOL   H167 1861   6.532   1.752   0.659  0.9861  1.8142  0.9207
    8MOL   H168 1862   6.569   1.585   0.726  0.7295 -0.2367  1.6960
    8MOL   H169 1863   6.652   1.663   1.170  0.4051  3.3680  1.8684
    8MOL   C170 1864   6.383   1.695   0.904  0.6353  0.0533  0.3910
    8MOL   C171 1865   6.253   1.732   0.808  0.4720 -0.2314 -0.3306
    8MOL   C172 1866   6.127   1.706   0.892 -0.4389 -0.0856  0.5255
    8MOL   C173 1867   6.240   1.885   0.777 -0.6568 -0.2318 -1.9202
    8MOL   O174 1868   6.273   1.935   0.669  0.1236  0.1362 -0.2698
    8MOL   O175 1869   6.200   1.964   0.886  0.1082 -0.6280 -0.4656
    8MOL   H176 1870   6.389   1.587   0.904  0.8026  0.0024 -2.9100
    8MOL   H177 1871   6.359   1.711   1.009  1.1101 -0.3104  0.5521
    8MOL   H178 1872   6.103   1.600   0.902 -0.7674 -0.1166 -0.5293
    8MOL   H179 1873   6.044   1.761   0.848  0.8058  1.5274  0.1424
    8MOL   H180 1874   6.136   1.738   0.996 -5.4985 -0.7351  1.2872
    8MOL   H181 1875   6.195   2.055   0.861  0.0302  0.1018  2.0642
    8MOL   C182 1876   6.257   1.643   0.671 -0.3264 -0.0132 -0.9949
    8MOL   C183 1877   6.140   1.565   0.602  0.5077  0.3898  0.2880
    8MOL   C184 1878   6.119   1.426   0.671  0.3229  0.2693  0.2407
    8MOL   C185 1879   6.000   1.633   0.622  0.1355  0.5797  0.2177
    8MOL   O186 1880   5.901   1.580   0.683  0.2913  0.1215  0.3503
    8MOL   O187 1881   5.993   1.756   0.561 -0.1929  0.0117 -0.3714
    8MOL   H188 1882   6.307   1.698   0.592  0.0332 -0.2136 -0.9084
    8MOL   H189 1883   6.333   1.566   0.688 -0.2017  0.5547  1.3308
    8MOL   H190 1884   6.087   1.426   0.776 -0.5829 -1.0340 -0.0239
    8MOL   H191 1885   6.211   1.368   0.674  0.3244  0.2038 -0.8943
    8MOL   H192 1886   6.047   1.370   0.613  2.3257 -1.5369 -0.5707
    8MOL   H193 1887   5.910   1.797   0.581 -0.7117 -0.0705 -2.2107
    8MOL   C194 1888   6.164   1.552   0.447 -0.3081 -0.2369  0.2058
    8MOL   C195 1889   6.254   1.449   0.379  0.1903 -0.2092  0.4968
    8MOL   C196 1890   6.395   1.417   0.445  0.3476  0.3729  0.2030
    8MOL   C197 1891   6.184   1.316   0.367  0.0451  0.3969  0.6564
    8MOL   O198 1892   6.071   1.285   0.404  0.4689  0.1223 -0.3038
    8MOL   O199 1893   6.264   1.224   0.303  0.0834 -0.2139 -1.2656
    8MOL   H200 1894   6.067   1.551   0.397  0.4022 -0.8657 -1.1790
    8MOL   H201 1895   6.199   1.650   0.415 -0.0945 -0.0163  1.1008
    8MOL   H202 1896   6.387   1.352   0.532 -1.4348 -1.1288 -1.0401
    8MOL   H203 1897   6.450   1.506   0.475  0.5657  0.6015 -0.8359
    8MOL   H204 1898   6.457   1.356   0.379  0.2079 -0.4348  0.8016
    8MOL   H205 1899   6.236   1.134   0.305  2.8278 -1.1075 -1.2440
    8MOL   C206 1900   6.306   1.506   0.246  0.2896  0.2039  0.9574
    8MOL   C207 1901   6.205   1.550   0.128 -0.1095  0.5412  0.0608
    8MOL   C208 1902   6.099   1.445   0.107 -0.8587  0.4582  0.4170
    8MOL   C209 1903   6.142   1.689   0.168  0.0576 -0.4170  0.3899
    8MOL   O210 1904   6.210   1.782   0.209  0.3020  0.1650  0.2797
    8MOL   O211 1905   6.006   1.690   0.154 -0.2952  0.3560 -0.0223
    8MOL   H212 1906   6.373   1.590   0.264  0.3135  0.6541 -1.1580
    8MOL   H213 1907   6.374   1.431   0.207 -0.1131 -1.2418  2.9539
    8MOL   H214 1908   6.019   1.482   0.042 -0.9276 -0.4120 -0.0021
    8MOL   H215 1909   6.040   1.431   0.198 -0.5593  1.0094  0.6970
    8MOL   H216 1910   6.126   1.343   0.080  0.6970  0.8634  0.4179
    8MOL   H217 1911   5.968   1.774   0.173 -0.0200  0.4839 -0.0415
    8MOL   C218 1912   6.299   1.570   0.001 -0.1354  0.1060 -1.0263
    8MOL   C219 1913   6.235   1.573   7.623  0.0089 -0.5889  0.1114
    8MOL   C220 1914   6.355   1.599   7.528  0.1589 -0.1588  0.0319
    8MOL   C221 1915   6.180   1.442   7.580 -0.1030  0.6048 -0.2311
    8MOL   O222 1916   6.079   1.428   7.515  0.6803 -0.2331  0.3598
    8MOL   O223 1917   6.269   1.341   7.589 -0.1465  0.2791 -0.0092
    8MOL   H224 1918   6.360   1.657   0.026 -2.7299  1.0600  2.4219
    8MOL   H225 1919   6.370   1.488   0.004 -1.2266 -0.9330 -2.7019
    8MOL   H226 1920   6.326   1.613   7.424  2.8351  1.0214 -0.5902
    8MOL   H227 1921   6.435   1.525   7.532 -0.9072 -1.3840 -0.7447
    8MOL   H228 1922   6.409   1.686   7.564  1.6627 -0.7239 -0.8081
    8MOL   H229 1923   6.235   1.271   7.535 -0.3877 -0.3887  0.9921
    8MOL   C230 1924   6.135   1.691   7.619  0.3732 -0.6259 -0.4318
    8MOL   C231 1925   6.091   1.762   7.489  0.1771 -0.0755  0.0713
    8MOL   C232 1926   5.954   1.832   7.508 -0.3661  0.4949  0.4075
    8MOL   C233 1927   6.202   1.856   7.430 -0.1257 -0.3300 -0.1213
    8MOL   O234 1928   6.215   1.866   7.310  0.2683  0.2548 -0.5774
    8MOL   O235 1929   6.285   1.908   7.522 -0.5265  0.3476 -0.4463
    8MOL   H236 1930   6.041   1.658   7.664 -0.0602  0.1749 -0.7498
    8MOL   H237 1931   6.176   1.767   7.687 -1.5122  0.7600 -0.8132
    8MOL   H238 1932   5.907   1.829   7.606 -2.2864 -0.3640 -0.5218
    8MOL   H239 1933   5.872   1.783   7.456 -1.3304  2.2057  0.2752
    8MOL   H240 1934   5.936   1.930   7.465  1.3842  1.2237  1.2931
    8MOL   H241 1935   6.354   1.956   7.480 -1.1856  3.1025  1.4651
    8MOL   H242 1936   6.072   1.684   7.415 -1.7703  0.5695 -0.1520
    9MOL     C1 1937   2.071   1.944   3.034 -0.2648  0.2674 -0.3642
    9MOL     C2 1938   2.054   2.040   3.163 -0.0012  0.0170 -0.2141
    9MOL     C3 1939   2.153   1.981   3.270  0.2624  0.2408  1.0194
    9MOL     C4 1940   2.105   2.177   3.117  0.4148 -0.1460  0.9314
    9MOL     O5 1941   2.123   2.201   2.999  0.2138  0.8881  0.3824
    9MOL     O6 1942   2.133   2.267   3.215  0.3092  0.0459  0.2066
    9MOL     H7 1943   2.068   1.839   3.064  1.3393 -0.1517 -1.5657
    9MOL     H8 1944   2.167   1.964   2.986 -0.8022  2.8464 -0.4188
    9MOL     H9 1945   2.255   1.999   3.235  0.9916 -0.4646  2.7349
    9MOL    H10 1946   2.139   1.875   3.288 -1.9267  0.1749 -0.7731
    9MOL    H11 1947   2.133   2.029   3.366 -2.2628  1.9141 -0.2802
    9MOL    H12 1948   2.164   2.346   3.174  0.0041  0.1919  0.2560
    9MOL    H13 1949   1.985   1.962   2.970 -0.7039  2.2733  0.7582
    9MOL    C14 1950   1.911   2.051   3.221  0.3178 -0.0309  0.3068
    9MOL    C15 1951   1.820   1.936   3.265 -0.3653 -0.1216  0.9061
    9MOL    C16 1952   1.772   1.848   3.145  0.5564  0.3126  0.0091
    9MOL    C17 1953   1.891   1.846   3.367  0.0989  0.3154  0.0130
    9MOL    O18 1954   1.911   1.726   3.349  0.3657  0.0795  0.2148
    9MOL    O19 1955   1.922   1.902   3.483  0.2926  0.1624 -0.2732
    9MOL    H20 1956   1.928   2.113   3.309  0.3787  1.1051 -0.4793
    9MOL    H21 1957   1.854   2.118   3.156 -1.5564 -0.3068  1.6688
    9MOL    H22 1958   1.853   1.786   3.107  1.9474  2.6638 -0.9913
    9MOL    H23 1959   1.737   1.907   3.060  0.4595  0.3962  0.1060
    9MOL    H24 1960   1.687   1.784   3.173  0.9624  0.1904  0.9815
    9MOL    H25 1961   1.947   1.830   3.539 -1.3680 -0.6900 -0.5956
    9MOL    C26 1962   1.680   1.986   3.339 -0.0345  0.2118  0.3298
    9MOL    C27 1963   1.542   2.029   3.269 -0.2898  0.2041  0.0082
    9MOL    C28 1964   1.463   2.094   3.387 -0.1389 -0.3718  0.0171
    9MOL    C29 1965   1.575   2.140   3.163 -0.6237  0.3442 -0.5048
    9MOL    O30 1966   1.573   2.134   3.040 -0.6731  0.6929 -0.0370
    9MOL    O31 1967   1.627   2.244   3.226  0.0796 -0.4095 -0.5742
    9MOL    H32 1968   1.645   1.905   3.403  0.8839  0.3174  0.9812
    9MOL    H33 1969   1.704   2.064   3.412  1.3233 -2.1025  2.4559
    9MOL    H34 1970   1.444   2.019   3.465 -1.5124 -0.6810 -0.6030
    9MOL    H35 1971   1.371   2.137   3.349  0.9380  0.7504 -1.3653
    9MOL    H36 1972   1.526   2.173   3.428 -1.1018 -0.2743  1.3502
    9MOL    H37 1973   1.633   2.309   3.157 -0.8097  0.3790  0.0909
    9MOL    C38 1974   1.465   1.905   3.209  0.0244 -0.1924  0.6376
    9MOL    C39 1975   1.313   1.898   3.178 -0.0569 -0.0838 -0.1275
    9MOL    C40 1976   1.268   2.028   3.109  0.0507  0.2476 -0.0883
    9MOL    C41 1977   1.296   1.779   3.083 -0.5699  0.0201 -0.1378
    9MOL    O42 1978   1.366   1.682   3.079 -0.2530 -0.2794 -0.5169
    9MOL    O43 1979   1.194   1.801   2.998 -0.2220 -0.3049 -0.3083
    9MOL    H44 1980   1.517   1.901   3.114 -0.1775  0.3855  0.4993
    9MOL    H45 1981   1.500   1.814   3.259  0.5208 -1.3250 -1.7127
    9MOL    H46 1982   1.177   2.025   3.049 -0.3695 -2.8492  0.5640
    9MOL    H47 1983   1.334   2.058   3.029  1.5938 -0.7502  0.7840
    9MOL    H48 1984   1.252   2.100   3.189  0.1409 -0.5815  0.6981
    9MOL    H49 1985   1.164   1.722   2.955  0.7738 -1.7694  1.6082
    9MOL    C50 1986   1.237   1.876   3.314  0.1286 -0.1342 -1.3656
    9MOL    C51 1987   1.089   1.817   3.338 -0.1193 -0.3601  0.1748
    9MOL    C52 1988   0.994   1.874   3.227 -0.5668  0.1600  0.0006
    9MOL    C53 1989   1.091   1.663   3.321  0.3481 -0.1609  0.8115
    9MOL    O54 1990   1.191   1.595   3.301 -0.4291  0.1125 -0.2702
    9MOL    O55 1991   0.964   1.614   3.326 -0.5478 -0.0612 -0.0683
    9MOL    H56 1992   1.302   1.806   3.365 -1.2456 -0.1168  0.4541
    9MOL    H57 1993   1.258   1.964   3.374 -2.6391 -0.2918 -0.0815
    9MOL    H58 1994   0.890   1.857   3.254 -0.7777  1.1232 -0.2072
    9MOL    H59 1995   1.004   1.817   3.134  0.6818  0.4584 -0.0505
    9MOL    H60 1996   1.011   1.978   3.199  1.1101 -0.3299 -0.9035
    9MOL    H61 1997   0.978   1.521   3.324 -0.1798  0.0212 -1.6416
    9MOL    C62 1998   1.043   1.853   3.483 -0.0782  0.7599 -0.6045
    9MOL    C63 1999   1.078   1.770   3.618 -0.4442  0.6199 -0.0844
    9MOL    C64 2000   1.227   1.732   3.622 -0.2515  0.2076  0.2048
    9MOL    C65 2001   1.054   1.880   3.721  0.1217 -0.1440 -0.5159
    9MOL    O66 2002   1.141   1.923   3.798  0.9060 -0.3411  0.2969
    9MOL    O67 2003   0.923   1.923   3.717 -0.5313 -0.4115  0.2094
    9MOL    H68 2004   1.087   1.952   3.493  1.0443  0.0481  1.8486
    9MOL    H69 2005   0.935   1.864   3.476 -0.1066 -0.8116 -3.1334
    9MOL    H70 2006   1.256   1.717   3.726 -0.8878  0.1697  0.3787
    9MOL    H71 2007   1.294   1.806   3.579 -1.1039  0.7130 -0.2590
    9MOL    H72 2008   1.241   1.645   3.557  2.6262  1.4168 -0.9011
    9MOL    H73 2009   0.877   1.894   3.641  0.0993 -0.3730 -0.1929
    9MOL    C74 2010   0.983   1.638   3.641 -0.1154 -0.1950  0.4199
    9MOL    C75 2011   0.936   1.581   3.783 -0.1226  0.0689  1.2318
    9MOL    C76 2012   1.064   1.572   3.882 -0.3809 -0.2979  0.7625
    9MOL    C77 2013   0.823   1.661   3.855 -0.4925  0.6928 -0.1308
    9MOL    O78 2014   0.807   1.678   3.972 -0.0828  0.7527 -0.5767
    9MOL    O79 2015   0.735   1.702   3.762 -0.0464 -0.2603  0.5170
    9MOL    H80 2016   0.895   1.643   3.577 -0.7908 -0.7451  1.2883
    9MOL    H81 2017   1.035   1.560   3.586  0.0738  1.0198 -1.1520
    9MOL    H82 2018   1.145   1.520   3.831 -0.5429  0.2026 -0.0176
    9MOL    H83 2019   1.038   1.529   3.979  0.3389 -0.8392  0.7200
    9MOL    H84 2020   1.095   1.675   3.899 -3.2819  0.6668  0.6467
    9MOL    H85 2021   0.664   1.741   3.812  0.3434  0.1679  0.7412
    9MOL    C86 2022   0.889   1.433   3.757  0.7670 -0.0393  0.2707
    9MOL    C87 2023   0.747   1.375   3.704 -0.5489 -0.1352  0.2895
    9MOL    C88 2024   0.641   1.392   3.822  0.2708  0.3418 -0.2016
    9MOL    C89 2025   0.690   1.450   3.581 -0.6893 -0.2821  0.5142
    9MOL    O90 2026   0.594   1.521   3.581  0.8101  0.0009  0.0912
    9MOL    O91 2027   0.757   1.423   3.467 -0.8622 -0.2332  0.3773
    9MOL    H92 2028   0.961   1.396   3.684  2.1720 -0.7706  1.9771
    9MOL    H93 2029   0.904   1.384   3.853  1.6158  0.7640  0.5540
    9MOL    H94 2030   0.657   1.320   3.902  2.1033  0.8792 -0.0589
    9MOL    H95 2031   0.541   1.368   3.787  1.5680 -0.6054 -3.4357
    9MOL    H96 2032   0.627   1.495   3.857  1.6006  0.0746  1.1681
    9MOL    H97 2033   0.714   1.478   3.404  0.6845  0.0986 -0.4323
    9MOL    C98 2034   0.772   1.222   3.672  0.3867  0.1042  0.0687
    9MOL    C99 2035   0.673   1.111   3.626 -0.6928  0.2911 -0.1106
    9MOL   C100 2036   0.767   1.008   3.557  0.1002 -0.5405  0.0329
    9MOL   C101 2037   0.612   1.048   3.753 -0.3509  0.5876 -0.1028
    9MOL   O102 2038   0.502   1.083   3.796  0.2486 -0.3900 -0.0315
    9MOL   O103 2039   0.686   0.947   3.812  0.4008 -0.3020  0.3934
    9MOL   H104 2040   0.862   1.216   3.611  1.0786  0.5561  1.0136
    9MOL   H105 2041   0.825   1.175   3.756 -1.7807 -1.7210  0.4474
    9MOL   H106 2042   0.722   0.913   3.527 -1.0124 -0.3463  1.0065
    9MOL   H107 2043   0.849   0.981   3.624 -2.3784 -3.0580  2.2132
    9MOL   H108 2044   0.817   1.043   3.467 -1.6168 -0.6112 -0.9757
    9MOL   H109 2045   0.644   0.915   3.890  0.5632 -0.0946  0.5654
    9MOL   C110 2046   0.557   1.156   3.527 -0.0503 -0.2446  0.1094
    9MOL   C111 2047   0.454   1.069   3.442  0.5519  0.5620 -0.0258
    9MOL   C112 2048   0.340   1.167   3.403  0.2091 -0.1025 -0.5049
    9MOL   C113 2049   0.525   1.018   3.316  0.2110  0.5512  0.0223
    9MOL   O114 2050   0.639   0.974   3.308  0.1755  0.1690 -0.4907
    9MOL   O115 2051   0.443   1.023   3.208  0.2706  0.5162  0.5417
    9MOL   H116 2052   0.496   1.222   3.590 -1.4341 -1.0957 -0.3109
    9MOL   H117 2053   0.595   1.232   3.459  1.2659 -0.0916  0.9784
    9MOL   H118 2054   0.362   1.242   3.327  0.3524  0.7683  0.3848
    9MOL   H119 2055   0.310   1.230   3.486 -1.5193 -1.3687 -0.1132
    9MOL   H120 2056   0.254   1.115   3.360 -0.7229  1.7182 -0.8901
    9MOL   H121 2057   0.495   1.006   3.132 -0.4852  3.4511 -0.6921
    9MOL   C122 2058   0.403   0.946   3.530  0.0710 -0.0386  0.7745
    9MOL   C123 2059   0.335   0.809   3.480  0.4860 -0.2177 -0.4331
    9MOL   C124 2060   0.206   0.838   3.401 -0.3525  0.3117 -0.0003
    9MOL   C125 2061   0.436   0.721   3.405 -0.3175 -0.3476  0.1790
    9MOL   O126 2062   0.552   0.705   3.438 -0.0429 -0.1651  0.1890
    9MOL   O127 2063   0.377   0.662   3.296 -0.3166 -0.7412 -0.6085
    9MOL   H128 2064   0.495   0.910   3.577  1.0159 -1.5148 -2.0917
    9MOL   H129 2065   0.341   0.991   3.608  0.1603  0.4435  0.5674
    9MOL   H130 2066   0.224   0.879   3.302 -0.5488 -1.4388 -0.7827
    9MOL   H131 2067   0.134   0.901   3.452  0.5173 -0.2672  2.0142
    9MOL   H132 2068   0.151   0.749   3.370 -2.1160  1.2459  0.4321
    9MOL   H133 2069   0.451   0.618   3.257 -0.4030 -0.1140 -1.4884
    9MOL   C134 2070   0.294   0.743   3.616 -0.3419  0.2971  0.8316
    9MOL   C135 2071   0.224   0.606   3.646 -0.4011  0.3897  0.2370
    9MOL   C136 2072   0.077   0.621   3.624 -0.1115 -0.6286  0.1249
    9MOL   C137 2073   0.277   0.493   3.555  0.4630  0.0167 -0.8953
    9MOL   O138 2074   0.211   0.436   3.470  0.0550 -0.4607 -0.2823
    9MOL   O139 2075   0.401   0.451   3.592  0.0928 -0.1859 -0.2948
    9MOL   H140 2076   0.393   0.719   3.654 -0.4826 -0.4296  0.7423
    9MOL   H141 2077   0.251   0.819   3.681  1.1697  0.8061  1.2736
    9MOL   H142 2078   0.035   0.701   3.685 -1.4500  0.2084 -1.8450
    9MOL   H143 2079   0.025   0.527   3.641 -0.7419 -0.7455 -2.2523
    9MOL   H144 2080   0.057   0.651   3.521 -1.0007  1.7914  0.9711
    9MOL   H145 2081   0.433   0.383   3.534  1.1384 -1.5576  1.8549
    9MOL   C146 2082   0.235   0.553   3.793  0.7335 -0.3701 -0.5486
    9MOL   C147 2083   0.328   0.617   3.903 -0.6529 -0.1228  0.0725
    9MOL   C148 2084   0.308   0.525   4.032  0.4735  0.0859  0.2682
    9MOL   C149 2085   0.479   0.596   3.863  0.2117  0.8364 -0.1966
    9MOL   O150 2086   0.553   0.689   3.819 -0.2350  0.0840 -0.5461
    9MOL   O151 2087   0.527   0.468   3.889 -0.3514 -0.2405 -0.1717
    9MOL   H152 2088   0.137   0.560   3.840  0.9586 -1.2808  0.0571
    9MOL   H153 2089   0.266   0.449   3.798  1.7079 -0.0267  0.5832
    9MOL   H154 2090   0.322   0.420   4.008 -0.5909 -0.9606  3.9025
    9MOL   H155 2091   0.207   0.541   4.070  0.8262 -1.7444  2.1123
    9MOL   H156 2092   0.383   0.541   4.109  1.8761  0.3963 -1.1348
    9MOL   H157 2093   0.619   0.455   3.869 -0.0510  0.0199  1.0157
    9MOL   C158 2094   0.285   0.772   3.935  0.2262 -0.6709  0.4222
    9MOL   C159 2095   0.307   0.851   4.069  0.1519 -0.5451  0.5087
    9MOL   C160 2096   0.207   0.795   4.183 -0.4425  0.1515  0.1350
    9MOL   C161 2097   0.456   0.851   4.114  0.3455  0.1232  0.3975
    9MOL   O162 2098   0.550   0.873   4.043 -0.4626 -0.0250  0.5402
    9MOL   O163 2099   0.463   0.835   4.253 -0.6871 -0.4133  0.7359
    9MOL   H164 2100   0.345   0.828   3.863 -1.9800  1.3329  0.0846
    9MOL   H165 2101   0.181   0.773   3.902  0.6112 -2.0074 -0.9167
    9MOL   H166 2102   0.193   0.869   4.261 -1.4603  0.6198 -0.4886
    9MOL   H167 2103   0.241   0.699   4.222  1.8351  0.4712 -0.9817
    9MOL   H168 2104   0.118   0.771   4.125 -0.5813 -0.4920  0.5972
    9MOL   H169 2105   0.542   0.854   4.302  2.2716 -0.6957 -3.6894
    9MOL   C170 2106   0.249   0.993   4.030 -0.6193  0.6063  0.5944
    9MOL   C171 2107   0.236   1.125   4.117  0.9338 -1.0223 -0.1686
    9MOL   C172 2108   0.118   1.112   4.217 -1.2554 -0.0861  0.9444
    9MOL   C173 2109   0.360   1.163   4.202 -0.2057  0.6313  0.8428
    9MOL   O174 2110   0.356   1.179   4.326 -0.8948  0.0524  0.4605
    9MOL   O175 2111   0.463   1.177   4.124 -0.0830 -0.0367 -0.1140
    9MOL   H176 2112   0.306   1.028   3.944 -1.4758 -1.7569 -1.0131
    9MOL   H177 2113   0.157   0.963   3.979 -0.8748 -0.0051  1.4087
    9MOL   H178 2114   0.050   1.192   4.243 -1.5697  0.1316 -0.5164
    9MOL   H179 2115   0.158   1.064   4.306 -0.5920 -0.6781  0.3386
    9MOL   H180 2116   0.044   1.045   4.173 -0.0979 -0.7036 -0.1040
    9MOL   H181 2117   0.442   1.137   4.041  0.0446 -0.4650  0.0588
    9MOL   C182 2118   0.217   1.247   4.022  0.2163  0.0634 -0.1336
    9MOL   C183 2119   0.103   1.262   3.910 -0.0948 -0.3099 -0.1437
    9MOL   C184 2120   0.147   1.171   3.794  0.2233 -0.2758  0.1035
    9MOL   C185 2121   7.723   1.233   3.957  0.4855  0.5961  0.5419
    9MOL   O186 2122   7.652   1.146   3.904 -0.4146  0.7221 -0.1401
    9MOL   O187 2123   7.676   1.313   4.054  0.0482 -1.1841 -0.3731
    9MOL   H188 2124   0.190   1.329   4.088 -2.9427 -1.1907  0.2269
    9MOL   H189 2125   0.308   1.274   3.969 -1.0966  0.7009 -2.1034
    9MOL   H190 2126   0.113   1.068   3.806  0.6873 -0.1686  2.7305
    9MOL   H191 2127   0.256   1.170   3.791  0.2288  1.0593 -0.2450
    9MOL   H192 2128   0.116   1.210   3.697  0.5351  0.3560  0.2603
    9MOL   H193 2129   7.749   1.361   4.091 -1.4671  0.7207  0.1651
    9MOL   C194 2130   0.120   1.409   3.859  0.6693  0.0747 -0.0418
    9MOL   C195 2131   0.012   1.478   3.761 -0.4016 -0.3567 -0.8467
    9MOL   C196 2132   7.725   1.398   3.642  0.5240 -0.2324 -0.1815
    9MOL   C197 2133   7.657   1.523   3.849 -0.3032 -0.7330 -0.6735
    9MOL   O198 2134   7.538   1.509   3.812 -0.0654 -0.0196  0.1898
    9MOL   O199 2135   7.691   1.582   3.961  0.3671 -0.3163 -0.0233
    9MOL   H200 2136   0.135   1.476   3.944  1.8671  0.3237 -0.4385
    9MOL   H201 2137   0.214   1.411   3.803  0.6274  1.0775 -0.0751
    9MOL   H202 2138   7.691   1.300   3.677  3.1990 -0.6734  1.3109
    9MOL   H203 2139   0.037   1.384   3.568  0.3098  2.7588 -1.0253
    9MOL   H204 2140   7.646   1.456   3.595  0.4832 -1.1516 -1.2765
    9MOL   H205 2141   7.617   1.607   4.014  0.8639  0.7497  0.1803
    9MOL   C206 2142   0.092   1.606   3.713 -0.3052  0.3101  0.4740
    9MOL   C207 2143   0.029   1.740   3.662 -0.0689  0.0305 -0.1653
    9MOL   C208 2144   7.687   1.718   3.556 -0.1577 -0.5056  0.2272
    9MOL   C209 2145   7.741   1.834   3.774 -0.1733 -0.4793 -0.5128
    9MOL   O210 2146   0.003   1.834   3.891 -0.0858 -0.1493  0.6523
    9MOL   O211 2147   7.668   1.939   3.722 -0.3714  1.0808 -0.7282
    9MOL   H212 2148   0.165   1.634   3.789  0.5198 -0.6477  0.0462
    9MOL   H213 2149   0.152   1.562   3.634 -2.4628 -2.2849  0.1671
    9MOL   H214 2150   7.711   1.660   3.467 -0.4190 -0.1309 -0.0906
    9MOL   H215 2151   7.656   1.816   3.521 -0.6570 -1.1411 -1.1162
    9MOL   H216 2152   7.595   1.674   3.593 -1.1744  1.2731 -0.1406
    9MOL   H217 2153   7.651   1.992   3.798 -0.7122 -0.7449  0.4975
    9MOL   C218 2154   0.137   1.810   3.569 -0.5723 -0.1267 -0.4266
    9MOL   C219 2155   0.276   1.857   3.614  0.5249  0.4737  0.3081
    9MOL   C220 2156   0.262   1.947   3.740 -0.2870 -0.2727  0.7163
    9MOL   C221 2157   0.374   1.737   3.644 -0.1104 -0.3371  1.2968
    9MOL   O222 2158   0.436   1.729   3.748 -0.0255 -0.2116 -0.2369
    9MOL   O223 2159   0.385   1.650   3.538 -0.2106 -0.1836 -0.0449
    9MOL   H224 2160   0.153   1.753   3.478  0.2367 -0.5513 -0.0224
    9MOL   H225 2161   0.099   1.904   3.530  0.3494  0.0819 -0.8366
    9MOL   H226 2162   0.346   2.016   3.744  0.9882 -1.8803  3.1618
    9MOL   H227 2163   0.245   1.888   3.830  1.6095 -1.9950 -0.0208
    9MOL   H228 2164   0.178   2.015   3.723 -1.8936 -2.0871  1.2200
    9MOL   H229 2165   0.451   1.589   3.566 -1.6075 -2.0096 -0.6494
    9MOL   C230 2166   0.343   1.946   3.502  0.5466 -0.2008  0.0841
    9MOL   C231 2167   0.495   1.971   3.499 -0.2036 -0.1638 -0.1424
    9MOL   C232 2168   0.536   2.059   3.376 -0.5808  0.3033  0.3071
    9MOL   C233 2169   0.561   2.028   3.623 -0.2242  0.9344 -0.5212
    9MOL   O234 2170   0.626   1.956   3.703 -0.3361 -0.1617  0.1758
    9MOL   O235 2171   0.544   2.164   3.649  0.0971  0.2839 -0.4968
    9MOL   H236 2172   0.320   1.901   3.405 -1.3410  1.5814 -0.2985
    9MOL   H237 2173   0.292   2.042   3.504 -1.2961 -1.1054 -1.3497
    9MOL   H238 2174   0.639   2.032   3.350 -0.5985 -1.1019  1.6130
    9MOL   H239 2175   0.533   2.165   3.400  0.4586  0.0902  1.4184
    9MOL   H240 2176   0.478   2.043   3.284  2.2329 -1.4779 -1.2425
    9MOL   H241 2177   0.578   2.190   3.734  2.4152 -3.1075 -0.2828
    9MOL   H242 2178   0.535   1.872   3.476  0.7334 -0.1827  1.4799
   10MOL     C1 2179   0.552   4.958   0.751 -0.4416  0.0357  0.2976
   10MOL     C2 2180   0.501   4.898   0.883 -0.0358 -0.5605  0.2407
   10MOL     C3 2181   0.633   4.861   0.962  0.7497 -0.3255  0.1145
   10MOL     C4 2182   0.416   5.012   0.951 -1.1866  0.6236 -0.6138
   10MOL     O5 2183   0.356   5.094   0.891 -0.3437 -0.0839  0.0414
   10MOL     O6 2184   0.424   5.011   1.090 -0.0379  0.2773  0.1965
   10MOL     H7 2185   0.615   4.885   0.699 -1.6204  0.0970 -1.2374
   10MOL     H8 2186   0.603   5.052   0.773 -0.1060  0.3668 -1.7813
   10MOL     H9 2187   0.702   4.784   0.928  0.7133  0.3784 -1.6208
   10MOL    H10 2188   0.620   4.835   1.067 -1.0105  1.3142  0.3392
   10MOL    H11 2189   0.694   4.952   0.961  3.1158 -1.8661 -0.1599
   10MOL    H12 2190   0.394   5.096   1.116  0.2286 -0.2806  2.4399
   10MOL    H13 2191   0.475   4.970   0.675  0.3831  1.4567 -0.3252
   10MOL    C14 2192   0.413   4.773   0.862 -0.3283 -0.0206 -0.0298
   10MOL    C15 2193   0.318   4.699   0.967 -0.2132 -0.4850  0.4279
   10MOL    C16 2194   0.191   4.784   0.972  0.3740 -0.1358 -0.0114
   10MOL    C17 2195   0.291   4.556   0.913 -0.1239 -0.7930  0.4685
   10MOL    O18 2196   0.181   4.496   0.913  0.6356 -0.2800 -0.2885
   10MOL    O19 2197   0.405   4.490   0.888  0.0275  0.4142  0.6135
   10MOL    H20 2198   0.352   4.805   0.778  1.5205  2.4011 -0.4871
   10MOL    H21 2199   0.487   4.700   0.826  1.6203  0.9656  1.8823
   10MOL    H22 2200   0.189   4.860   1.050 -2.0054  1.5859 -1.7027
   10MOL    H23 2201   0.101   4.726   0.992 -0.2201  0.9211  0.3939
   10MOL    H24 2202   0.161   4.841   0.884  1.1492  0.0649 -0.1535
   10MOL    H25 2203   0.483   4.543   0.895 -0.7444  1.5503  0.7839
   10MOL    C26 2204   0.389   4.689   1.109  0.2463  0.1344  0.5063
   10MOL    C27 2205   0.336   4.604   1.237  0.5613  0.2687 -0.0514
   10MOL    C28 2206   0.186   4.633   1.256 -0.5576  0.0321 -0.0978
   10MOL    C29 2207   0.353   4.453   1.219  0.0450 -0.5981  0.2147
   10MOL    O30 2208   0.259   4.373   1.242 -0.4747 -0.0419  0.2214
   10MOL    O31 2209   0.467   4.414   1.168  0.9372 -0.8034 -0.4391
   10MOL    H32 2210   0.490   4.656   1.083 -0.0233 -1.4462  1.3621
   10MOL    H33 2211   0.398   4.794   1.136  1.5738  0.1833 -0.1107
   10MOL    H34 2212   0.129   4.584   1.177  0.9015 -0.1703 -1.0410
   10MOL    H35 2213   0.166   4.739   1.268 -1.0948 -0.0003 -0.6537
   10MOL    H36 2214   0.143   4.585   1.343 -3.5042  1.9556 -0.4266
   10MOL    H37 2215   0.466   4.322   1.148  1.3104 -0.6721 -1.0601
   10MOL    C38 2216   0.402   4.667   1.370  0.0340 -0.1399  0.2558
   10MOL    C39 2217   0.531   4.612   1.441  0.3621  0.3915  0.2206
   10MOL    C40 2218   0.489   4.488   1.517  0.0512 -0.1803  0.0829
   10MOL    C41 2219   0.663   4.578   1.361  0.5328  0.6674 -0.3028
   10MOL    O42 2220   0.690   4.614   1.250 -0.5610  0.2438  0.0530
   10MOL    O43 2221   0.750   4.512   1.439 -0.1977  0.8519  0.4890
   10MOL    H44 2222   0.420   4.773   1.350 -2.7706  0.6426  1.5744
   10MOL    H45 2223   0.328   4.668   1.450  0.8559  2.1059  1.0268
   10MOL    H46 2224   0.471   4.401   1.453 -3.3740  0.1879  0.4622
   10MOL    H47 2225   0.401   4.506   1.577  1.0941  0.4712  1.4337
   10MOL    H48 2226   0.569   4.461   1.586 -0.5850 -0.7025  0.6227
   10MOL    H49 2227   0.824   4.492   1.385 -0.8301  1.1678 -0.4983
   10MOL    C50 2228   0.566   4.708   1.567  0.2189 -0.2338  0.4464
   10MOL    C51 2229   0.585   4.872   1.560 -0.2473 -1.5434 -0.5191
   10MOL    C52 2230   0.693   4.893   1.446 -0.4146  0.4230 -0.8325
   10MOL    C53 2231   0.458   4.950   1.526 -0.2959 -0.0959  0.0511
   10MOL    O54 2232   0.466   5.049   1.457  0.1531  0.4790  0.4008
   10MOL    O55 2233   0.349   4.887   1.572 -0.4444  0.1636  0.5380
   10MOL    H56 2234   0.492   4.695   1.645  0.5062  1.1479  0.9789
   10MOL    H57 2235   0.657   4.667   1.610  0.3990  0.0271  0.3210
   10MOL    H58 2236   0.639   4.879   1.353 -3.4451  2.0145  0.6274
   10MOL    H59 2237   0.772   4.818   1.456 -1.5385 -0.3992  2.7981
   10MOL    H60 2238   0.756   4.982   1.449 -0.5225  0.4852 -0.4247
   10MOL    H61 2239   0.283   4.948   1.542 -0.2060  0.1295 -0.0540
   10MOL    C62 2240   0.644   4.901   1.706 -0.6817 -0.0797  0.4486
   10MOL    C63 2241   0.671   5.042   1.768 -0.1584 -0.2873 -0.5008
   10MOL    C64 2242   0.531   5.116   1.781 -0.5885  0.0496 -0.0699
   10MOL    C65 2243   0.721   5.008   1.909  0.5437 -0.4920  0.0372
   10MOL    O66 2244   0.654   5.032   2.009 -0.4760  0.0975  0.3534
   10MOL    O67 2245   0.846   4.961   1.912 -0.1522  0.2889 -0.0020
   10MOL    H68 2246   0.584   4.843   1.776  0.9906  1.2563  3.0570
   10MOL    H69 2247   0.742   4.853   1.700  0.1016  1.4429  0.7382
   10MOL    H70 2248   0.496   5.158   1.687 -1.5112  0.7070  0.5689
   10MOL    H71 2249   0.530   5.189   1.861  3.1092 -0.0894  0.2057
   10MOL    H72 2250   0.466   5.036   1.816 -0.5630  0.9494  2.0795
   10MOL    H73 2251   0.899   4.979   1.836  2.4410 -0.2247  1.6326
   10MOL    C74 2252   0.777   5.136   1.685  0.7110 -0.2243  0.9351
   10MOL    C75 2253   0.870   5.239   1.749  0.0663 -0.4337 -0.0365
   10MOL    C76 2254   0.810   5.303   1.876  0.0348  0.1995  0.1847
   10MOL    C77 2255   1.005   5.174   1.798 -0.1438  0.5014 -0.3706
   10MOL    O78 2256   1.036   5.061   1.773 -0.1420 -0.0131  0.5406
   10MOL    O79 2257   1.085   5.257   1.872  0.2356 -0.4468  0.2850
   10MOL    H80 2258   0.841   5.076   1.620  0.1649 -0.2483  0.4139
   10MOL    H81 2259   0.706   5.192   1.625  1.2630  0.3248  0.7979
   10MOL    H82 2260   0.710   5.342   1.857 -0.1579  0.0210  0.8167
   10MOL    H83 2261   0.861   5.397   1.896 -0.7705  0.8480 -0.7395
   10MOL    H84 2262   0.811   5.244   1.968 -0.7309  0.0985  0.1320
   10MOL    H85 2263   1.157   5.212   1.913  0.0261 -1.5685 -0.5560
   10MOL    C86 2264   0.892   5.368   1.667  0.0755  0.4210 -0.0525
   10MOL    C87 2265   0.970   5.377   1.528  1.0055 -0.1374  0.3329
   10MOL    C88 2266   1.112   5.311   1.532 -1.2903  0.5029  0.5289
   10MOL    C89 2267   0.882   5.303   1.429  0.1623 -0.0338  0.2091
   10MOL    O90 2268   0.907   5.193   1.382  0.0202  0.5100  0.3028
   10MOL    O91 2269   0.765   5.364   1.398  0.4184  0.3210 -0.6230
   10MOL    H92 2270   0.793   5.413   1.669 -0.3054 -0.4339  0.4903
   10MOL    H93 2271   0.959   5.436   1.721 -0.9168  0.4019  1.2397
   10MOL    H94 2272   1.184   5.344   1.607 -1.5643  3.5635 -0.4481
   10MOL    H95 2273   1.170   5.332   1.442 -0.8779  0.6358  0.8220
   10MOL    H96 2274   1.112   5.203   1.546 -1.2201  0.2952 -1.0231
   10MOL    H97 2275   0.723   5.298   1.345  1.1150  0.1342 -0.9534
   10MOL    C98 2276   0.978   5.531   1.474  0.6938  0.1934  0.3087
   10MOL    C99 2277   1.029   5.659   1.555  0.2113  0.1222  0.0468
   10MOL   C100 2278   0.933   5.703   1.673 -0.3698 -0.2637 -0.2414
   10MOL   C101 2279   1.163   5.632   1.624  0.3948 -1.0378  0.2777
   10MOL   O102 2280   1.190   5.656   1.743  0.1792  0.2476  0.4396
   10MOL   O103 2281   1.253   5.583   1.537 -0.2076 -0.0875  0.9782
   10MOL   H104 2282   1.021   5.530   1.374 -0.8096 -0.7726 -0.3332
   10MOL   H105 2283   0.876   5.558   1.446  0.9338  1.6102  0.7603
   10MOL   H106 2284   0.941   5.631   1.755  0.6877  0.4972  0.3448
   10MOL   H107 2285   0.829   5.711   1.643 -0.1461  0.8953 -0.7194
   10MOL   H108 2286   0.974   5.798   1.706  0.6284 -1.1952  1.2918
   10MOL   H109 2287   1.332   5.563   1.585  0.1858 -1.1448 -0.0732
   10MOL   C110 2288   1.053   5.780   1.452 -0.1140  0.5705  0.2266
   10MOL   C111 2289   0.944   5.886   1.413 -0.6271 -0.1699 -0.1308
   10MOL   C112 2290   0.806   5.822   1.388 -0.4021 -0.2146 -0.0747
   10MOL   C113 2291   0.932   6.003   1.515 -0.1893 -0.6538  0.2762
   10MOL   O114 2292   0.829   6.035   1.575  0.7713  0.3269 -0.0662
   10MOL   O115 2293   1.055   6.066   1.539  0.0701  0.0636  0.0194
   10MOL   H116 2294   1.133   5.840   1.495 -0.4188  1.1169  0.0458
   10MOL   H117 2295   1.101   5.736   1.364 -0.8926 -0.3058  0.2245
   10MOL   H118 2296   0.727   5.898   1.396 -0.2206 -0.3029  3.2222
   10MOL   H119 2297   0.776   5.751   1.465  4.2999 -0.7050  1.4544
   10MOL   H120 2298   0.809   5.770   1.293  0.3556 -0.2735 -0.0167
   10MOL   H121 2299   1.052   6.136   1.603  1.8779 -0.5863  0.8566
   10MOL   C122 2300   1.004   5.955   1.277  0.2233  0.0459 -0.4767
   10MOL   C123 2301   0.932   6.072   1.191  0.0605 -0.0907  0.1331
   10MOL   C124 2302   0.909   6.201   1.272  0.4230 -0.1250 -0.0556
   10MOL   C125 2303   1.034   6.099   1.082  0.4840  0.3876  0.3434
   10MOL   O126 2304   1.121   6.179   1.093  0.8874  0.1615  1.0341
   10MOL   O127 2305   1.039   6.001   0.984  0.1916  0.1832 -0.0160
   10MOL   H128 2306   1.097   5.999   1.311  0.9344 -2.1507  0.5204
   10MOL   H129 2307   1.048   5.876   1.217  1.5268  1.3027 -1.1978
   10MOL   H130 2308   0.894   6.282   1.200  2.0546  0.2214 -0.0434
   10MOL   H131 2309   0.990   6.238   1.335 -0.1307  2.0925 -0.5840
   10MOL   H132 2310   0.815   6.189   1.325 -0.3010  0.4727 -1.1764
   10MOL   H133 2311   1.096   6.045   0.922  1.2736  1.1230  1.6180
   10MOL   C134 2312   0.797   6.017   1.131  0.3862 -0.2352  0.7872
   10MOL   C135 2313   0.695   6.103   1.047  0.2929  0.3981 -0.4255
   10MOL   C136 2314   0.764   6.172   0.927  0.3195  0.3232  0.0637
   10MOL   C137 2315   0.596   5.994   0.984 -0.0760  0.1039  0.0248
   10MOL   O138 2316   0.560   5.990   0.864 -0.2237 -0.1989  0.1016
   10MOL   O139 2317   0.547   5.908   1.077  0.3318  0.0939  0.0469
   10MOL   H140 2318   0.820   5.918   1.092 -0.3024 -0.1533  0.1545
   10MOL   H141 2319   0.727   5.986   1.209 -3.0994  0.3466 -1.9482
   10MOL   H142 2320   0.699   6.227   0.860 -0.0890 -0.5072 -0.2338
   10MOL   H143 2321   0.818   6.103   0.862  1.2714  2.1452 -1.1284
   10MOL   H144 2322   0.839   6.243   0.961 -0.9912  1.8633 -0.2356
   10MOL   H145 2323   0.497   5.837   1.042 -0.6078  0.7372  0.0693
   10MOL   C146 2324   0.614   6.213   1.129 -0.2600  0.8422  0.1759
   10MOL   C147 2325   0.472   6.271   1.109  0.3293  1.4545  0.9538
   10MOL   C148 2326   0.447   6.392   1.205 -0.2420  0.0009  0.5408
   10MOL   C149 2327   0.468   6.322   0.963  0.6112  0.2576  0.0212
   10MOL   O150 2328   0.408   6.265   0.876  0.2085 -0.3575  0.1063
   10MOL   O151 2329   0.539   6.435   0.939  0.6153  0.0660 -0.6406
   10MOL   H152 2330   0.614   6.181   1.233  0.1770 -0.6014 -0.2522
   10MOL   H153 2331   0.681   6.298   1.134  0.5820  0.3497 -2.2174
   10MOL   H154 2332   0.528   6.463   1.217 -1.0335  0.5555  2.9300
   10MOL   H155 2333   0.415   6.360   1.304 -0.4102  1.9479  1.1484
   10MOL   H156 2334   0.367   6.459   1.171  0.8966  1.3047  0.3804
   10MOL   H157 2335   0.535   6.470   0.852 -2.2673  0.4168 -0.4193
   10MOL   C158 2336   0.353   6.162   1.118  0.3559 -0.2064 -0.3458
   10MOL   C159 2337   0.288   6.101   1.246  0.5827  0.3244  0.0669
   10MOL   C160 2338   0.399   6.068   1.353  0.0621 -0.0781  0.1624
   10MOL   C161 2339   0.181   6.194   1.308 -0.3354 -0.3940 -0.1547
   10MOL   O162 2340   0.158   6.309   1.271  0.1418  0.2808  0.1305
   10MOL   O163 2341   0.132   6.143   1.423 -0.0533 -0.2293  0.0286
   10MOL   H164 2342   0.271   6.212   1.067 -0.9231  1.7729  3.4397
   10MOL   H165 2343   0.377   6.078   1.053  0.5143 -2.0156  2.0153
   10MOL   H166 2344   0.468   5.990   1.323  2.1717  1.2892  1.3636
   10MOL   H167 2345   0.356   6.032   1.447  0.3947  0.6591  0.6022
   10MOL   H168 2346   0.446   6.155   1.398 -0.3807 -0.3458  1.1769
   10MOL   H169 2347   0.061   6.200   1.449 -0.1725  0.8247 -2.5186
   10MOL   C170 2348   0.228   5.953   1.222  0.0591  0.1760 -0.3570
   10MOL   C171 2349   0.101   5.912   1.137  0.1603 -0.6992 -0.2254
   10MOL   C172 2350   7.737   5.977   1.201 -0.4542 -0.1625 -0.0353
   10MOL   C173 2351   0.118   5.961   0.993 -0.1182  0.0296  0.2111
   10MOL   O174 2352   0.225   5.957   0.930 -0.0973 -0.2950 -0.5325
   10MOL   O175 2353   0.005   5.997   0.929  0.0016 -0.4573 -0.0629
   10MOL   H176 2354   0.305   5.889   1.179  0.9217  1.7606 -1.1975
   10MOL   H177 2355   0.197   5.915   1.320 -2.0743  0.6437 -0.8097
   10MOL   H178 2356   7.649   5.928   1.160 -1.5099  2.8117 -1.4548
   10MOL   H179 2357   7.730   6.084   1.179  0.0220 -0.2180 -0.4637
   10MOL   H180 2358   7.733   5.961   1.309 -2.0012  0.5664  0.0278
   10MOL   H181 2359   0.023   6.027   0.842 -0.5850 -0.5038 -0.2026
   10MOL   C182 2360   0.068   5.757   1.147  0.5205 -0.4465  0.3748
   10MOL   C183 2361   0.172   5.644   1.141  0.2120  0.1859 -0.6993
   10MOL   C184 2362   0.075   5.519   1.119 -0.6294 -0.2698 -0.1585
   10MOL   C185 2363   0.269   5.646   1.013 -0.9094  0.1812 -0.7055
   10MOL   O186 2364   0.382   5.707   1.015  0.5603 -0.0159  0.2208
   10MOL   O187 2365   0.209   5.589   0.903  0.0716  1.1962  0.0312
   10MOL   H188 2366   0.005   5.743   1.235 -0.1640  1.4821  0.2245
   10MOL   H189 2367   0.005   5.738   1.060  0.5399 -1.4070  0.5648
   10MOL   H190 2368   7.758   5.543   1.054 -0.7004 -1.5073 -0.5360
   10MOL   H191 2369   0.015   5.497   1.207 -0.7005  1.1917  0.1677
   10MOL   H192 2370   0.126   5.430   1.080  1.5363  1.2747 -0.9043
   10MOL   H193 2371   0.251   5.614   0.822 -0.0465  2.6952  0.4168
   10MOL   C194 2372   0.256   5.634   1.274  0.5463  0.0292 -0.2540
   10MOL   C195 2373   0.337   5.506   1.332 -0.0786 -0.2235  0.4032
   10MOL   C196 2374   0.249   5.377   1.355 -0.2730 -0.6207  0.5972
   10MOL   C197 2375   0.451   5.464   1.234 -0.6209 -0.1159  0.0265
   10MOL   O198 2376   0.462   5.348   1.187  0.3030  0.4745  0.3201
   10MOL   O199 2377   0.542   5.567   1.210  0.4241  0.2073 -0.0842
   10MOL   H200 2378   0.334   5.710   1.270  0.6698 -0.0851  0.0274
   10MOL   H201 2379   0.190   5.661   1.357  1.0440  2.1996 -0.5135
   10MOL   H202 2380   0.145   5.403   1.376 -0.2593 -0.3824  0.3614
   10MOL   H203 2381   0.292   5.312   1.431 -1.7394 -0.8405  1.2623
   10MOL   H204 2382   0.245   5.313   1.268 -1.3057 -1.8364  1.5147
   10MOL   H205 2383   0.582   5.550   1.126 -0.4115 -1.6101 -0.1574
   10MOL   C206 2384   0.413   5.537   1.471 -0.2743 -0.1545 -0.3614
   10MOL   C207 2385   0.344   5.621   1.584 -0.3549  0.6779  0.7773
   10MOL   C208 2386   0.361   5.770   1.553  0.7606 -0.7686 -0.2286
   10MOL   C209 2387   0.195   5.580   1.597 -0.4199 -0.2033 -0.3442
   10MOL   O210 2388   0.101   5.649   1.568  0.8255  0.1327  0.0369
   10MOL   O211 2389   0.186   5.452   1.636  0.2098  1.1656  0.2614
   10MOL   H212 2390   0.440   5.445   1.524 -0.1822  2.2090  3.9131
   10MOL   H213 2391   0.508   5.590   1.465  0.0192 -0.4645  1.2081
   10MOL   H214 2392   0.313   5.846   1.615  0.9674  1.5811 -2.8380
   10MOL   H215 2393   0.330   5.794   1.451  2.9646  0.3658 -0.6683
   10MOL   H216 2394   0.462   5.811   1.561  0.2056  0.1178  2.9869
   10MOL   H217 2395   0.097   5.422   1.643 -0.4389  2.5017 -1.6237
   10MOL   C218 2396   0.423   5.580   1.720  0.2310  0.1376  0.1013
   10MOL   C219 2397   0.399   5.656   1.851 -0.5058  0.2674 -0.5601
   10MOL   C220 2398   0.445   5.558   1.967 -0.1179  1.1525 -0.1016
   10MOL   C221 2399   0.501   5.777   1.858  0.4609  0.0904 -0.0319
   10MOL   O222 2400   0.615   5.765   1.900 -0.0427  0.3976 -0.4534
   10MOL   O223 2401   0.447   5.896   1.819 -0.2931 -0.1884 -0.3736
   10MOL   H224 2402   0.398   5.476   1.743 -1.2632  0.6061  0.6744
   10MOL   H225 2403   0.530   5.584   1.701  0.5294 -2.9835  0.8529
   10MOL   H226 2404   0.475   5.621   2.051 -1.6760  0.6788  0.8520
   10MOL   H227 2405   0.533   5.496   1.949 -0.6619  0.7570 -1.4763
   10MOL   H228 2406   0.362   5.491   1.993 -1.0083  0.2988 -4.7356
   10MOL   H229 2407   0.511   5.961   1.845 -1.7301  0.2044  2.4963
   10MOL   C230 2408   0.244   5.693   1.873 -0.7803 -0.7389 -0.5309
   10MOL   C231 2409   0.204   5.780   1.993 -0.0917 -0.2142  0.5670
   10MOL   C232 2410   0.072   5.857   1.974 -0.1500 -0.6900  0.8149
   10MOL   C233 2411   0.195   5.687   2.117  0.1245 -0.7124 -0.2726
   10MOL   O234 2412   0.283   5.677   2.204 -0.0663 -0.2792  0.1012
   10MOL   O235 2413   0.078   5.619   2.126 -0.2256  0.1803 -0.2257
   10MOL   H236 2414   0.209   5.753   1.789 -1.9595 -0.8125 -0.0913
   10MOL   H237 2415   0.191   5.599   1.882  1.2998 -1.9434 -0.6615
   10MOL   H238 2416   0.033   5.887   2.071  2.5252  2.1274  1.1031
   10MOL   H239 2417   7.764   5.795   1.926 -0.7611  0.7139 -0.0662
   10MOL   H240 2418   0.095   5.948   1.919  1.0363 -0.4638  1.6568
   10MOL   H241 2419   0.083   5.568   2.205 -2.7258  0.3268  0.0701
   10MOL   H242 2420   0.282   5.856   2.005 -1.2904  1.3101 -1.0437
   11MOL     C1 2421   2.527   3.259   0.174  0.4818  0.3275 -0.0733
   11MOL     C2 2422   2.433   3.131   0.198  0.1998  0.2193 -0.0898
   11MOL     C3 2423   2.425   3.111   0.352  0.2179  0.7636  0.3149
   11MOL     C4 2424   2.289   3.173   0.157  0.1442  0.5032 -0.1554
   11MOL     O5 2425   2.216   3.105   0.078  0.7857  0.6490  0.4493
   11MOL     O6 2426   2.253   3.291   0.208  0.4737 -0.8003 -0.4755
   11MOL     H7 2427   2.485   3.357   0.198  1.4402  0.5193  0.8641
   11MOL     H8 2428   2.564   3.278   0.074  0.0033  0.4027 -0.2403
   11MOL     H9 2429   2.521   3.079   0.394 -0.5618 -1.0911  0.7062
   11MOL    H10 2430   2.349   3.037   0.375 -0.4455  1.0765 -0.8343
   11MOL    H11 2431   2.394   3.202   0.404 -1.0066  0.1013  0.7427
   11MOL    H12 2432   2.173   3.325   0.171 -0.2057  1.0429  2.4536
   11MOL    H13 2433   2.622   3.254   0.227 -0.0128  0.6559  0.8581
   11MOL    C14 2434   2.485   2.993   0.141 -0.5277 -0.0178 -0.2989
   11MOL    C15 2435   2.549   2.969   0.000  0.5443  0.9872  0.9054
   11MOL    C16 2436   2.431   3.012   7.673  0.2584  0.1522  0.3683
   11MOL    C17 2437   2.682   3.053   7.748  0.4642  0.5354  0.0050
   11MOL    O18 2438   2.729   3.085   7.643 -0.2661  0.1311  0.2161
   11MOL    O19 2439   2.748   3.070   0.091 -0.4516  0.0770 -0.5757
   11MOL    H20 2440   2.560   2.946   0.205 -1.7284 -1.1909  0.2488
   11MOL    H21 2441   2.411   2.917   0.165 -0.4911 -0.0094 -0.1532
   11MOL    H22 2442   2.342   2.952   7.693 -0.1749  1.5471  2.8232
   11MOL    H23 2443   2.445   2.984   7.568 -2.3165 -0.7368  0.2218
   11MOL    H24 2444   2.405   3.118   7.681  1.1567  0.4134 -0.1328
   11MOL    H25 2445   2.827   3.113   0.061  0.0148 -0.2848  0.0988
   11MOL    C26 2446   2.582   2.811   7.763 -0.0050 -0.4916 -0.2620
   11MOL    C27 2447   2.660   2.744   7.640  0.4274  0.3466 -0.5677
   11MOL    C28 2448   2.614   2.811   7.507 -0.5990 -0.2663 -0.2829
   11MOL    C29 2449   2.810   2.761   7.666  0.2085  0.3726 -1.0904
   11MOL    O30 2450   2.868   2.798   0.001  0.9099  0.0698  0.1529
   11MOL    O31 2451   2.873   2.726   7.556  0.7406  0.8023 -0.6038
   11MOL    H32 2452   2.630   2.771   0.085  1.3352 -0.7633 -1.0937
   11MOL    H33 2453   2.481   2.768   7.763 -1.2574  2.3403 -1.4329
   11MOL    H34 2454   2.655   2.912   7.501 -0.3144 -0.3364  0.4041
   11MOL    H35 2455   2.507   2.800   7.496 -0.9701  3.1270 -0.6567
   11MOL    H36 2456   2.646   2.772   7.411 -0.2909  2.6524 -1.4211
   11MOL    H37 2457   2.959   2.759   7.578  1.2711  0.8694 -2.7333
   11MOL    C38 2458   2.623   2.592   7.637  0.4257  0.6561 -0.3507
   11MOL    C39 2459   2.664   2.473   7.734 -0.0839 -0.6336 -0.1401
   11MOL    C40 2460   2.818   2.457   7.746 -0.0935 -0.0175  0.2971
   11MOL    C41 2461   2.599   2.507   0.103 -0.1904  1.2074  0.3823
   11MOL    O42 2462   2.664   2.501   0.210 -0.3242 -0.4654  0.1984
   11MOL    O43 2463   2.462   2.530   0.097  0.3625  0.2910  0.5105
   11MOL    H44 2464   2.515   2.590   7.623  0.5874  1.8834 -2.0021
   11MOL    H45 2465   2.652   2.559   7.537  0.3898 -1.1679  0.2274
   11MOL    H46 2466   2.843   2.357   0.014  1.3040  1.0312  2.3474
   11MOL    H47 2467   2.848   2.531   0.052 -2.9406  1.1219  0.3666
   11MOL    H48 2468   2.862   2.474   7.648 -2.2546  2.6373 -0.2549
   11MOL    H49 2469   2.431   2.556   0.182  0.6027  1.2913  0.2924
   11MOL    C50 2470   2.597   2.330   7.703 -0.2189 -0.2763 -0.1753
   11MOL    C51 2471   2.603   2.252   7.566 -0.6106  0.1480  0.3377
   11MOL    C52 2472   2.564   2.112   7.601  0.8086  0.0128  0.3127
   11MOL    C53 2473   2.480   2.297   7.488 -0.3242  0.0354  0.4317
   11MOL    O54 2474   2.370   2.245   7.479  0.5250 -0.5393  0.1014
   11MOL    O55 2475   2.504   2.411   7.427  0.2883  0.2802 -0.3554
   11MOL    H56 2476   2.625   2.260   0.015  1.1270  0.8951  0.4175
   11MOL    H57 2477   2.493   2.338   7.733 -0.1255  0.3151  0.0099
   11MOL    H58 2478   2.545   2.045   7.517 -3.1143  0.5299  0.6746
   11MOL    H59 2479   2.472   2.117   7.660  0.0912  1.5175 -0.9074
   11MOL    H60 2480   2.642   2.067   7.661 -0.7529  0.5676  2.8608
   11MOL    H61 2481   2.427   2.449   7.388 -1.2929 -0.9020  1.5542
   11MOL    C62 2482   2.739   2.252   7.491  0.2945 -0.1127  0.0754
   11MOL    C63 2483   2.763   2.201   7.341 -0.1231  0.0058  0.2906
   11MOL    C64 2484   2.678   2.082   7.297 -0.6852  0.2863 -0.5224
   11MOL    C65 2485   2.722   2.324   7.250 -0.0531 -0.3006 -0.8174
   11MOL    O66 2486   2.648   2.322   7.153  0.2756 -0.0266 -0.1794
   11MOL    O67 2487   2.789   2.436   7.291  0.2417 -0.3472  0.4966
   11MOL    H68 2488   2.775   2.353   7.507 -0.4016  0.1173  0.1998
   11MOL    H69 2489   2.801   2.199   7.563  1.9079  1.6342 -0.0103
   11MOL    H70 2490   2.571   2.087   7.315 -1.1206 -0.0012 -2.9085
   11MOL    H71 2491   2.701   1.996   7.360 -1.4073  0.9402  0.6606
   11MOL    H72 2492   2.698   2.063   7.191 -0.4387  4.0073 -1.2087
   11MOL    H73 2493   2.775   2.514   7.239 -0.5955 -0.2675  0.8313
   11MOL    C74 2494   2.914   2.170   7.325  0.2137 -0.2267  0.5492
   11MOL    C75 2495   2.992   2.114   7.197 -0.4505  0.7566 -0.0247
   11MOL    C76 2496   2.954   2.206   7.077  0.2855 -0.2194 -0.1021
   11MOL    C77 2497   3.147   2.145   7.219  0.0678 -0.0756  0.1492
   11MOL    O78 2498   3.210   2.229   7.157  0.1233  0.1747 -0.0791
   11MOL    O79 2499   3.200   2.082   7.327 -0.3589  0.2108  0.2470
   11MOL    H80 2500   2.964   2.254   7.374  1.7398 -1.3059  0.8914
   11MOL    H81 2501   2.934   2.094   7.401  0.9796 -1.7001 -1.0862
   11MOL    H82 2502   2.960   2.313   7.095 -0.7337 -0.3932  1.2955
   11MOL    H83 2503   2.851   2.189   7.044 -0.3959  1.6026  0.9860
   11MOL    H84 2504   3.009   2.185   6.985 -0.7012 -0.4350 -0.6551
   11MOL    H85 2505   3.283   2.128   7.335 -1.0646  1.2680  1.7368
   11MOL    C86 2506   2.962   1.954   7.189  0.7794 -0.0583 -0.6842
   11MOL    C87 2507   2.955   1.882   7.050  1.2046 -0.0353 -0.0319
   11MOL    C88 2508   2.961   1.732   7.090 -0.0990  0.3703 -0.4008
   11MOL    C89 2509   2.816   1.906   6.983  0.0765  0.8474  0.8512
   11MOL    O90 2510   2.715   1.849   7.013 -0.4094 -0.0935 -0.3657
   11MOL    O91 2511   2.818   1.997   6.886 -0.5182 -0.3318 -0.2289
   11MOL    H92 2512   3.040   1.899   7.242  1.6955  0.7694 -1.1418
   11MOL    H93 2513   2.868   1.937   7.241  0.9982  0.8447  0.0201
   11MOL    H94 2514   2.884   1.699   7.161  1.0703  1.0577  1.2177
   11MOL    H95 2515   3.059   1.704   7.130  0.3376  1.3864 -0.7678
   11MOL    H96 2516   2.947   1.674   6.999 -0.1653  0.9820 -0.7779
   11MOL    H97 2517   2.727   1.997   6.862 -0.1503  0.0186 -1.6546
   11MOL    C98 2518   3.082   1.915   6.959  0.4092 -1.0703  0.1978
   11MOL    C99 2519   3.152   1.821   6.843 -0.3468 -0.1478 -0.2690
   11MOL   C100 2520   3.226   1.710   6.916  0.4030 -0.5361  0.8338
   11MOL   C101 2521   3.056   1.761   6.741  0.2388  0.1813 -0.2660
   11MOL   O102 2522   2.944   1.800   6.720 -0.3552  0.5956 -0.0046
   11MOL   O103 2523   3.110   1.667   6.660  0.0366  0.7169 -0.9371
   11MOL   H104 2524   3.058   2.006   6.903  3.4289  0.6144  1.5168
   11MOL   H105 2525   3.161   1.952   7.024  0.0604 -0.5072  0.2985
   11MOL   H106 2526   3.150   1.645   6.961  0.2132  0.3329  1.7872
   11MOL   H107 2527   3.289   1.736   7.001 -0.1302 -1.8849  1.6797
   11MOL   H108 2528   3.275   1.637   6.852  1.6032  0.3525  0.7413
   11MOL   H109 2529   3.044   1.645   6.596  1.0158 -0.7216 -1.4710
   11MOL   C110 2530   3.271   1.912   6.775 -0.1009  0.9726  0.1482
   11MOL   C111 2531   3.244   2.055   6.714 -0.3978 -0.6850  0.0201
   11MOL   C112 2532   3.108   2.074   6.649 -0.2444 -0.1824  0.3494
   11MOL   C113 2533   3.246   2.163   6.830  0.3183  0.4460 -0.0836
   11MOL   O114 2534   3.165   2.254   6.831 -0.1398  0.2058 -0.3071
   11MOL   O115 2535   3.343   2.147   6.923  0.2932 -0.1087 -0.4093
   11MOL   H116 2536   3.355   1.913   6.844 -0.5575 -2.1449  0.8164
   11MOL   H117 2537   3.310   1.850   6.694  2.1053  3.0103 -0.4204
   11MOL   H118 2538   3.113   2.171   6.598  0.4314  0.3768  1.4461
   11MOL   H119 2539   3.021   2.070   6.714  1.7254 -1.0235  3.0476
   11MOL   H120 2540   3.086   2.003   6.569  0.9368 -0.0125 -0.1517
   11MOL   H121 2541   3.340   2.222   6.981  2.4630 -0.2588 -0.0846
   11MOL   C122 2542   3.365   2.074   6.620  0.5483  0.4001 -0.2915
   11MOL   C123 2543   3.389   2.193   6.516  0.8426 -0.9478 -0.9345
   11MOL   C124 2544   3.523   2.172   6.447  0.1124  0.1010 -0.4459
   11MOL   C125 2545   3.284   2.189   6.400 -0.1424  0.3675 -0.4475
   11MOL   O126 2546   3.211   2.285   6.378 -0.4110 -0.6209  0.2908
   11MOL   O127 2547   3.297   2.080   6.317 -0.8083  0.3884  0.9176
   11MOL   H128 2548   3.453   2.061   6.681 -0.0048  0.2100  0.4640
   11MOL   H129 2549   3.370   1.985   6.558 -4.2770  0.6045 -1.2095
   11MOL   H130 2550   3.604   2.148   6.516  0.6024  0.5692 -0.8551
   11MOL   H131 2551   3.543   2.251   6.374 -0.8190  0.6553 -0.1088
   11MOL   H132 2552   3.516   2.081   6.387 -0.0883  0.1018 -0.4262
   11MOL   H133 2553   3.252   2.091   6.234 -1.1160 -2.3313  0.6764
   11MOL   C134 2554   3.387   2.324   6.606 -0.2152  0.0507 -0.0528
   11MOL   C135 2555   3.460   2.460   6.578 -0.1882 -0.1827  0.5243
   11MOL   C136 2556   3.408   2.560   6.684 -0.4702 -0.7657 -0.0109
   11MOL   C137 2557   3.613   2.434   6.593 -0.7157 -0.2324  0.1280
   11MOL   O138 2558   3.701   2.425   6.506 -0.7596 -0.0581 -0.2470
   11MOL   O139 2559   3.641   2.431   6.723 -0.2396  0.8816 -0.0954
   11MOL   H140 2560   3.284   2.346   6.633 -0.4541 -0.7438 -0.3010
   11MOL   H141 2561   3.428   2.283   6.699  0.6372 -0.6801 -0.7321
   11MOL   H142 2562   3.300   2.574   6.683 -0.3379  0.2949 -0.0214
   11MOL   H143 2563   3.456   2.658   6.678 -2.2931 -0.0073 -3.9771
   11MOL   H144 2564   3.417   2.519   6.784 -2.8121 -0.3639  0.3949
   11MOL   H145 2565   3.735   2.417   6.726 -0.3039 -0.1943 -2.0779
   11MOL   C146 2566   3.421   2.517   6.438 -0.3431 -0.1526  0.2782
   11MOL   C147 2567   3.449   2.661   6.383  0.7557  0.2894  0.2001
   11MOL   C148 2568   3.425   2.647   6.227  0.1026  0.6580  0.4101
   11MOL   C149 2569   3.343   2.764   6.433  0.4849  0.0799  0.5623
   11MOL   O150 2570   3.380   2.851   6.505 -0.0634 -0.2704  0.7104
   11MOL   O151 2571   3.214   2.752   6.389  0.1340 -0.4056  0.2808
   11MOL   H152 2572   3.462   2.450   6.361 -2.6797 -0.2632 -0.9134
   11MOL   H153 2573   3.314   2.499   6.437 -0.4428  0.4630 -0.5388
   11MOL   H154 2574   3.406   2.742   6.177  1.0005  1.6365  1.8980
   11MOL   H155 2575   3.324   2.607   6.214 -0.0715  0.5461  2.0281
   11MOL   H156 2576   3.507   2.604   6.170 -0.8425 -0.3382 -0.2399
   11MOL   H157 2577   3.161   2.798   6.453  2.2136  1.7718  0.5249
   11MOL   C158 2578   3.601   2.702   6.413  0.4153  0.0424  0.3880
   11MOL   C159 2579   3.680   2.836   6.371  0.4205 -0.0969 -0.6595
   11MOL   C160 2580   3.640   2.875   6.226 -0.3854 -0.0946  0.2228
   11MOL   C161 2581   3.656   2.950   6.469 -0.7925  0.2513 -0.1358
   11MOL   O162 2582   3.609   3.059   6.448 -0.1142 -0.4130  0.2724
   11MOL   O163 2583   3.693   2.914   6.591  0.5217 -0.0533  0.7235
   11MOL   H164 2584   3.604   2.686   6.520 -1.1669  1.4413  0.6546
   11MOL   H165 2585   3.652   2.611   6.381 -1.4398 -1.1369  0.7289
   11MOL   H166 2586   3.541   2.918   6.220 -0.2657  0.3357  1.2650
   11MOL   H167 2587   3.641   2.791   6.156  1.8596  0.3143 -0.2954
   11MOL   H168 2588   3.703   2.953   6.184  0.3375 -0.1095  1.2442
   11MOL   H169 2589   3.675   2.985   6.651  0.6252 -0.0248  0.7211
   11MOL   C170 2590   3.836   2.780   6.371  0.0999  0.0453  0.2400
   11MOL   C171 2591   3.972   2.860   6.337  0.1277 -0.4866 -0.7860
   11MOL   C172 2592   4.081   2.794   6.427 -0.5333  0.1669 -0.3163
   11MOL   C173 2593   4.006   2.835   6.195 -0.3653 -0.1761 -0.3697
   11MOL   O174 2594   4.118   2.792   6.154 -0.6731 -0.0866 -0.6891
   11MOL   O175 2595   3.909   2.872   6.110  0.4621  0.3735  0.1363
   11MOL   H176 2596   3.847   2.737   6.471  2.1528 -2.0773 -0.8407
   11MOL   H177 2597   3.840   2.691   6.308  0.5241 -0.5681  1.1321
   11MOL   H178 2598   4.089   2.820   6.532  0.0154 -1.5418  0.0880
   11MOL   H179 2599   4.182   2.827   6.401  0.7379 -0.8000  3.0758
   11MOL   H180 2600   4.078   2.686   6.412  4.1453 -0.0809 -0.2367
   11MOL   H181 2601   3.927   2.849   6.020  0.9096  0.1696  0.2745
   11MOL   C182 2602   3.971   3.013   6.369 -0.3672  0.1743  0.1961
   11MOL   C183 2603   4.100   3.110   6.353 -0.8957 -0.8051 -0.0695
   11MOL   C184 2604   4.200   3.093   6.475  0.2718 -0.2845 -0.0956
   11MOL   C185 2605   4.183   3.098   6.222  0.2929 -0.1515 -0.1484
   11MOL   O186 2606   4.306   3.090   6.222 -0.4911 -0.0338  0.7592
   11MOL   O187 2607   4.098   3.109   6.119  0.4569  0.5187  0.0930
   11MOL   H188 2608   3.885   3.057   6.319 -0.2777  2.5689  2.0074
   11MOL   H189 2609   3.939   3.011   6.474 -0.2531 -1.2859  0.2138
   11MOL   H190 2610   4.270   3.009   6.477 -1.8296 -2.0792 -0.9748
   11MOL   H191 2611   4.141   3.075   6.564  0.5046  0.1895  0.1557
   11MOL   H192 2612   4.257   3.184   6.494 -0.6234  0.2363  0.1252
   11MOL   H193 2613   4.133   3.094   6.033 -0.1574 -1.7644  0.1914
   11MOL   C194 2614   4.058   3.262   6.346  0.1310 -1.0733  0.4899
   11MOL   C195 2615   3.984   3.342   6.456 -0.2635  0.1553 -0.0800
   11MOL   C196 2616   3.841   3.284   6.483 -0.3592 -0.1186  0.4748
   11MOL   C197 2617   4.057   3.329   6.589 -0.2223 -0.3114  0.0719
   11MOL   O198 2618   4.022   3.261   6.683  0.1826  0.1354 -0.4211
   11MOL   O199 2619   4.163   3.413   6.595  0.3632  0.2202 -0.6117
   11MOL   H200 2620   4.150   3.319   6.329 -1.9501  1.4196 -3.2117
   11MOL   H201 2621   4.000   3.284   6.257  0.5813 -2.1141 -0.0653
   11MOL   H202 2622   3.785   3.360   6.537 -3.7325 -1.0494 -1.5565
   11MOL   H203 2623   3.848   3.191   6.541  1.9918  0.1753  0.7258
   11MOL   H204 2624   3.790   3.259   6.390  1.3687  1.1928 -0.8666
   11MOL   H205 2625   4.217   3.386   6.668 -1.0523 -2.0166 -0.3521
   11MOL   C206 2626   3.975   3.498   6.413 -0.6407 -0.0376  0.0579
   11MOL   C207 2627   3.895   3.559   6.290 -0.7633 -0.0788  0.2309
   11MOL   C208 2628   3.984   3.558   6.162  0.1707  0.1202 -0.1264
   11MOL   C209 2629   3.771   3.486   6.254 -0.1766  0.1036  0.7085
   11MOL   O210 2630   3.751   3.421   6.149  0.4133 -0.2672 -0.0922
   11MOL   O211 2631   3.683   3.489   6.353  0.6698  0.2066 -0.8406
   11MOL   H212 2632   3.932   3.540   6.504  1.0511 -2.3447  1.9838
   11MOL   H213 2633   4.078   3.533   6.418 -1.3287  1.8712  1.4464
   11MOL   H214 2634   3.986   3.459   6.115  1.1962 -0.1729  0.5201
   11MOL   H215 2635   4.088   3.577   6.189  0.0012  0.2354  0.4573
   11MOL   H216 2636   3.948   3.623   6.083  1.2133  0.8535 -0.0041
   11MOL   H217 2637   3.620   3.421   6.333  1.2433 -0.3958 -0.5988
   11MOL   C218 2638   3.856   3.708   6.324 -0.1348 -0.3220  0.0826
   11MOL   C219 2639   3.955   3.835   6.322 -0.1921  0.1803  0.4934
   11MOL   C220 2640   4.081   3.809   6.400 -0.0867  0.0410  0.0841
   11MOL   C221 2641   4.004   3.872   6.173 -0.1904 -0.0160 -0.8055
   11MOL   O222 2642   4.113   3.922   6.161 -0.5463  0.0970  0.7030
   11MOL   O223 2643   3.910   3.862   6.075  0.6297  0.2080 -0.5795
   11MOL   H224 2644   3.779   3.743   6.255  0.2461  0.6137  0.1249
   11MOL   H225 2645   3.812   3.704   6.424  0.2049 -0.6848  0.2198
   11MOL   H226 2646   4.136   3.729   6.351 -0.4079 -0.7085  0.9460
   11MOL   H227 2647   4.058   3.784   6.504 -1.1223 -0.9747 -0.3790
   11MOL   H228 2648   4.149   3.895   6.402  0.0346 -0.0584  0.2218
   11MOL   H229 2649   3.937   3.912   5.999  0.3988  0.2439 -0.6399
   11MOL   C230 2650   3.876   3.959   6.380  0.0357  0.4097  0.1530
   11MOL   C231 2651   3.777   4.045   6.293 -0.3122 -0.3193  0.2147
   11MOL   C232 2652   3.678   4.108   6.387  0.2928 -0.0115  0.1397
   11MOL   C233 2653   3.840   4.155   6.207  0.1203  0.2502 -0.2449
   11MOL   O234 2654   3.949   4.212   6.236  0.4133 -0.0727 -0.2589
   11MOL   O235 2655   3.759   4.189   6.100  0.5373 -0.2391 -0.5047
   11MOL   H236 2656   3.821   3.913   6.462  0.8993 -0.8586  0.0293
   11MOL   H237 2657   3.947   4.023   6.431 -0.3467 -0.1285  1.3754
   11MOL   H238 2658   3.734   4.173   6.454  0.2752  0.7483 -0.5602
   11MOL   H239 2659   3.617   4.039   6.445 -0.8819  0.9970  0.1484
   11MOL   H240 2660   3.612   4.166   6.322  1.4545  0.0331 -1.0079
   11MOL   H241 2661   3.807   4.246   6.042 -0.2350  0.2478 -0.6638
   11MOL   H242 2662   3.711   3.981   6.234 -0.1170 -0.3371  0.0146
   12MOL     C1 2663   2.773   0.591   2.714 -0.4476 -0.5114  0.3103
   12MOL     C2 2664   2.830   0.691   2.613 -0.2844 -0.1817 -0.4187
   12MOL     C3 2665   2.940   0.764   2.694 -0.0550 -0.5564 -0.2222
   12MOL     C4 2666   2.896   0.605   2.501 -0.3947  0.3980  0.1203
   12MOL     O5 2667   2.883   0.487   2.485 -0.0519  0.5058  0.0588
   12MOL     O6 2668   2.971   0.681   2.421 -0.3504 -0.4618 -0.1529
   12MOL     H7 2669   2.679   0.547   2.680  1.0192 -3.0073 -0.6921
   12MOL     H8 2670   2.746   0.649   2.803 -2.7845 -1.3563  0.1872
   12MOL     H9 2671   3.022   0.699   2.723  0.8439 -0.3641 -2.2281
   12MOL    H10 2672   2.904   0.807   2.787  1.7377 -1.1173  0.7502
   12MOL    H11 2673   2.981   0.847   2.637 -0.9479  0.6723  0.9164
   12MOL    H12 2674   2.996   0.623   2.351  1.7389 -1.7587  1.5837
   12MOL    H13 2675   2.842   0.522   2.764 -0.9987  1.8442  4.5744
   12MOL    C14 2676   2.727   0.802   2.560 -0.2641 -0.4390  0.3969
   12MOL    C15 2677   2.580   0.770   2.524 -0.2597  0.0117 -0.1114
   12MOL    C16 2678   2.570   0.653   2.421 -0.5760 -0.1492  0.8412
   12MOL    C17 2679   2.508   0.738   2.651 -0.2358 -0.1640  0.0466
   12MOL    O18 2680   2.428   0.642   2.673  0.4766 -0.2573 -0.5187
   12MOL    O19 2681   2.539   0.818   2.755 -0.3921 -0.1593 -0.8362
   12MOL    H20 2682   2.730   0.886   2.629  1.0115 -0.8237  0.8375
   12MOL    H21 2683   2.772   0.844   2.470  1.0704  0.1628  1.3212
   12MOL    H22 2684   2.654   0.646   2.352 -1.2629  2.4869 -0.3386
   12MOL    H23 2685   2.478   0.660   2.363 -0.6257  0.3140  0.9716
   12MOL    H24 2686   2.552   0.557   2.470 -2.2588 -0.2818  0.0080
   12MOL    H25 2687   2.499   0.795   2.837  0.1681  0.6761 -0.3254
   12MOL    C26 2688   2.513   0.895   2.463  0.2208 -0.0425 -0.3097
   12MOL    C27 2689   2.361   0.934   2.463  0.8304 -0.8892 -0.5343
   12MOL    C28 2690   2.310   0.975   2.606  0.3215 -0.2020 -0.6046
   12MOL    C29 2691   2.348   1.065   2.379  0.5044 -1.0198 -0.3555
   12MOL    O30 2692   2.313   1.175   2.427  0.2030  0.4837  0.0794
   12MOL    O31 2693   2.370   1.045   2.248  0.1395 -0.0851 -0.3171
   12MOL    H32 2694   2.560   0.986   2.502  0.3028  0.3236 -1.2559
   12MOL    H33 2695   2.541   0.893   2.358 -0.2410 -0.4346 -0.4273
   12MOL    H34 2696   2.223   1.040   2.614  1.5888  1.3325  0.8788
   12MOL    H35 2697   2.392   1.013   2.666 -0.0122  0.4462 -0.5580
   12MOL    H36 2698   2.292   0.892   2.675 -0.7579  0.7634  0.2823
   12MOL    H37 2699   2.407   0.963   2.219  0.8138  0.0063  0.2940
   12MOL    C38 2700   2.272   0.810   2.405 -0.3101 -0.5076  0.3906
   12MOL    C39 2701   2.108   0.814   2.399 -0.1882 -0.3219 -0.3502
   12MOL    C40 2702   2.042   0.794   2.538  0.3944 -0.1533  0.2196
   12MOL    C41 2703   2.068   0.952   2.341  0.0858  0.7776 -0.1231
   12MOL    O42 2704   2.065   0.978   2.221 -0.1319 -0.3534  0.0080
   12MOL    O43 2705   2.043   1.044   2.432  0.0247 -0.3995  0.4977
   12MOL    H44 2706   2.302   0.797   2.301  1.7004  2.3640  0.5504
   12MOL    H45 2707   2.301   0.718   2.456 -0.0991 -2.1043 -2.5470
   12MOL    H46 2708   2.073   0.865   2.614  1.2326  0.2779 -0.5219
   12MOL    H47 2709   2.067   0.695   2.578 -3.4280 -2.2277 -2.1797
   12MOL    H48 2710   1.933   0.801   2.546  0.3042  3.1275 -2.6296
   12MOL    H49 2711   2.022   1.118   2.377  1.3184 -0.7979 -0.5411
   12MOL    C50 2712   2.057   0.708   2.296 -0.3351  1.3919 -0.1075
   12MOL    C51 2713   2.043   0.553   2.318  0.1303 -0.4930 -0.6482
   12MOL    C52 2714   2.031   0.485   2.178 -0.0495 -0.2020  0.2125
   12MOL    C53 2715   2.169   0.503   2.386 -0.0891 -0.4100  0.3725
   12MOL    O54 2716   2.178   0.485   2.506 -0.2654 -0.2520  0.5071
   12MOL    O55 2717   2.269   0.496   2.300 -0.0377 -0.0255 -0.6879
   12MOL    H56 2718   1.959   0.732   2.254  0.5824 -0.9759 -3.8729
   12MOL    H57 2719   2.118   0.722   2.207  0.3599 -1.8141 -0.1897
   12MOL    H58 2720   2.094   0.531   2.102 -1.9767  0.5858 -0.9548
   12MOL    H59 2721   1.932   0.497   2.135 -0.1890  2.2653  1.1082
   12MOL    H60 2722   2.055   0.379   2.180 -0.0233 -0.1910  2.9552
   12MOL    H61 2723   2.346   0.472   2.351  0.8145  0.9623 -1.4842
   12MOL    C62 2724   1.909   0.537   2.399  0.2069  0.8570 -0.0274
   12MOL    C63 2725   1.829   0.401   2.426  0.4027 -0.0698 -0.1563
   12MOL    C64 2726   1.740   0.374   2.303 -0.7163 -0.6031 -0.0157
   12MOL    C65 2727   1.920   0.281   2.458 -0.2452 -0.1051 -0.5737
   12MOL    O66 2728   1.982   0.268   2.569  0.4462 -0.0140  0.0606
   12MOL    O67 2729   1.949   0.208   2.345  0.6852 -0.0948  0.2190
   12MOL    H68 2730   1.910   0.591   2.493  1.0681 -1.0402  1.1002
   12MOL    H69 2731   1.841   0.583   2.327 -0.1248 -0.6734 -0.7351
   12MOL    H70 2732   1.808   0.346   2.223 -1.5925  0.5011 -1.1772
   12MOL    H71 2733   1.690   0.465   2.268  0.1775  0.3862  1.1955
   12MOL    H72 2734   1.676   0.289   2.322  0.8706 -1.9525 -0.6176
   12MOL    H73 2735   1.910   0.251   2.271 -0.0551  0.7961  1.1186
   12MOL    C74 2736   1.730   0.413   2.553  0.0008  0.2904 -0.3952
   12MOL    C75 2737   1.656   0.538   2.613 -0.1223  0.2060 -0.8351
   12MOL    C76 2738   1.747   0.618   2.712  0.7326  0.3987 -0.3406
   12MOL    C77 2739   1.602   0.628   2.494 -0.6142  0.3024  0.4082
   12MOL    O78 2740   1.639   0.742   2.482  0.3879 -0.6425 -0.3245
   12MOL    O79 2741   1.519   0.560   2.412  0.0089 -0.1693  0.2665
   12MOL    H80 2742   1.649   0.344   2.532 -0.7102  1.0794 -0.2577
   12MOL    H81 2743   1.778   0.371   2.641 -1.4640  1.3229  0.9142
   12MOL    H82 2744   1.758   0.722   2.679  0.0942  0.4509 -0.3883
   12MOL    H83 2745   1.845   0.572   2.726 -0.4083 -2.0945 -0.3312
   12MOL    H84 2746   1.720   0.622   2.817 -1.2293 -0.3644 -0.8069
   12MOL    H85 2747   1.488   0.625   2.350 -1.0793 -2.0020 -1.1442
   12MOL    C86 2748   1.536   0.474   2.696  0.5442  0.2017 -0.2299
   12MOL    C87 2749   1.409   0.554   2.741  0.1265  0.0793  0.6940
   12MOL    C88 2750   1.342   0.469   2.851  0.8388  0.2305 -0.4645
   12MOL    C89 2751   1.447   0.694   2.800 -0.4625  0.5513  0.1101
   12MOL    O90 2752   1.455   0.795   2.733  0.0604 -0.0606  0.3047
   12MOL    O91 2753   1.486   0.687   2.929  0.1931  0.2066 -0.5452
   12MOL    H92 2754   1.486   0.391   2.645  3.0686 -1.5481  0.0579
   12MOL    H93 2755   1.578   0.428   2.785  0.0303 -0.7786 -0.4838
   12MOL    H94 2756   1.292   0.379   2.817  1.8695 -0.0036 -1.3929
   12MOL    H95 2757   1.257   0.518   2.899 -1.3197 -2.3778 -1.5349
   12MOL    H96 2758   1.406   0.447   2.936  0.2941  0.3870 -0.0062
   12MOL    H97 2759   1.523   0.770   2.956  1.5484 -1.0278  1.4623
   12MOL    C98 2760   1.305   0.570   2.618 -0.6338 -0.1275  0.2926
   12MOL    C99 2761   1.154   0.614   2.618  0.1399 -0.2445  0.2204
   12MOL   C100 2762   1.132   0.661   2.474  0.2275 -0.3457 -0.3157
   12MOL   C101 2763   1.067   0.484   2.646 -0.1120  0.4881  0.3564
   12MOL   O102 2764   0.997   0.418   2.568 -0.3042 -0.3195  0.1178
   12MOL   O103 2765   1.071   0.453   2.778  0.0879 -0.0825  0.0305
   12MOL   H104 2766   1.346   0.652   2.560 -0.4347  0.5315  1.3446
   12MOL   H105 2767   1.322   0.482   2.555  0.1264  0.2138  0.0188
   12MOL   H106 2768   1.168   0.764   2.463  0.8298 -0.6810 -1.6240
   12MOL   H107 2769   1.024   0.655   2.455  0.0687  1.2519 -0.0044
   12MOL   H108 2770   1.185   0.604   2.398  0.8209  0.0305 -0.1828
   12MOL   H109 2771   1.017   0.378   2.800 -1.4119  1.1970  0.8320
   12MOL   C110 2772   1.121   0.723   2.719 -0.0839  0.2782  0.0467
   12MOL   C111 2773   0.987   0.809   2.711  0.2724  0.7797 -0.0554
   12MOL   C112 2774   1.019   0.941   2.641 -0.3533 -0.1244 -0.0172
   12MOL   C113 2775   0.869   0.734   2.656 -0.1664 -0.0841  0.2543
   12MOL   O114 2776   0.806   0.766   2.555 -0.3991 -0.3489 -0.0898
   12MOL   O115 2777   0.836   0.629   2.738 -0.2457  0.3432 -0.3652
   12MOL   H116 2778   1.129   0.685   2.821  0.0833 -0.2125 -0.1450
   12MOL   H117 2779   1.204   0.793   2.721 -0.6361  0.9395 -0.0937
   12MOL   H118 2780   1.107   0.987   2.685  0.6666 -1.4207 -0.6582
   12MOL   H119 2781   0.932   1.006   2.640 -0.5806 -0.3676  1.9691
   12MOL   H120 2782   1.046   0.927   2.537  0.2659 -1.3429  0.2984
   12MOL   H121 2783   0.769   0.582   2.690 -0.3598  0.0025  0.1183
   12MOL   C122 2784   0.933   0.849   2.859  0.9059  0.2937 -0.0456
   12MOL   C123 2785   0.993   0.945   2.975 -1.0980  0.0883 -0.4164
   12MOL   C124 2786   0.940   0.897   3.113 -0.0498  0.4384 -0.0887
   12MOL   C125 2787   1.153   0.908   2.999  0.3167  0.1098 -0.5002
   12MOL   O126 2788   1.249   0.983   2.997 -0.5465  1.0919 -0.4985
   12MOL   O127 2789   1.171   0.775   3.040 -0.0200  0.6943 -0.7363
   12MOL   H128 2790   0.835   0.889   2.832  0.8315  0.8060  0.9618
   12MOL   H129 2791   0.912   0.758   2.916  1.2280  0.3173  0.1090
   12MOL   H130 2792   0.957   0.792   3.140 -1.0616  0.8141  2.0864
   12MOL   H131 2793   0.835   0.924   3.112 -0.6115 -1.5984  0.5595
   12MOL   H132 2794   0.997   0.956   3.184 -2.1086  1.1786  0.9841
   12MOL   H133 2795   1.252   0.747   3.079  0.0234 -0.0844 -1.3705
   12MOL   C134 2796   0.984   1.094   2.930  0.7138 -0.2645  0.1206
   12MOL   C135 2797   0.926   1.221   3.000 -0.4290  0.2291 -0.7166
   12MOL   C136 2798   0.790   1.182   3.050  0.1428  0.5714  0.7846
   12MOL   C137 2799   1.001   1.261   3.127  0.0217  0.4034 -0.6559
   12MOL   O138 2800   0.959   1.344   3.203 -0.0615  0.3855 -0.0600
   12MOL   O139 2801   1.125   1.210   3.138  0.2866  0.2270 -0.0572
   12MOL   H140 2802   1.084   1.116   2.894  0.7634 -0.6266  0.0400
   12MOL   H141 2803   0.922   1.092   2.840  1.8838 -0.0256 -0.7010
   12MOL   H142 2804   0.732   1.271   3.077  0.3913  1.4122 -1.3554
   12MOL   H143 2805   0.792   1.127   3.144 -2.4791 -0.1390  0.4522
   12MOL   H144 2806   0.727   1.130   2.978 -1.5709  1.6267  1.4886
   12MOL   H145 2807   1.174   1.250   3.208 -1.3598 -1.3677  2.0852
   12MOL   C146 2808   0.905   1.344   2.909  0.2535 -0.4033 -0.0734
   12MOL   C147 2809   1.012   1.411   2.804  0.3519 -0.3644  0.8299
   12MOL   C148 2810   0.930   1.534   2.757  0.1659  0.0549  1.0311
   12MOL   C149 2811   1.139   1.453   2.883  0.8859 -0.0385 -0.6152
   12MOL   O150 2812   1.167   1.569   2.903  1.1062  0.4290  0.2480
   12MOL   O151 2813   1.217   1.347   2.914 -1.0221  0.2311 -0.5146
   12MOL   H152 2814   0.816   1.320   2.850 -0.1294 -0.8190  0.6782
   12MOL   H153 2815   0.865   1.424   2.972 -1.4999 -1.8160  0.6353
   12MOL   H154 2816   0.991   1.599   2.694  0.7732 -1.8067 -0.3660
   12MOL   H155 2817   0.903   1.595   2.843  0.5497  0.2854  0.9918
   12MOL   H156 2818   0.839   1.520   2.700  0.8528 -0.9508  0.1733
   12MOL   H157 2819   1.303   1.370   2.944 -0.5741 -3.2217  1.1816
   12MOL   C158 2820   1.066   1.323   2.678  1.1235 -0.0131  0.0799
   12MOL   C159 2821   1.186   1.353   2.567 -0.6316  0.0379 -0.3861
   12MOL   C160 2822   1.155   1.265   2.455 -0.2681 -0.1045  0.0616
   12MOL   C161 2823   1.173   1.503   2.526  0.1440  0.4124  0.9239
   12MOL   O162 2824   1.245   1.590   2.576 -0.0016  0.0007 -0.0442
   12MOL   O163 2825   1.070   1.531   2.440  0.4228  0.3252 -0.2629
   12MOL   H164 2826   1.082   1.219   2.708 -1.0715 -0.7487 -1.1642
   12MOL   H165 2827   0.974   1.306   2.621  0.4030 -1.1494  1.5401
   12MOL   H166 2828   1.223   1.281   2.371  0.5869 -1.1336  0.5544
   12MOL   H167 2829   1.050   1.272   2.426 -0.1173  2.2863  0.0174
   12MOL   H168 2830   1.146   1.160   2.482 -0.1558  0.4679  2.3734
   12MOL   H169 2831   1.059   1.624   2.423  1.1785  0.1598 -1.7319
   12MOL   C170 2832   1.323   1.318   2.630  0.6348  0.4611  0.2575
   12MOL   C171 2833   1.456   1.290   2.547  0.0364  0.0301 -0.1148
   12MOL   C172 2834   1.447   1.139   2.497  0.1067 -0.1310  0.5930
   12MOL   C173 2835   1.466   1.376   2.417  0.4044 -0.0461  0.1319
   12MOL   O174 2836   1.439   1.339   2.305 -0.6429 -0.0812  0.2795
   12MOL   O175 2837   1.483   1.506   2.447  0.5300 -0.4683  0.5497
   12MOL   H176 2838   1.353   1.400   2.694  0.9291 -1.7519  3.0279
   12MOL   H177 2839   1.305   1.233   2.695  0.7699 -0.4967 -0.9299
   12MOL   H178 2840   1.387   1.142   2.406  1.4817  0.5175 -0.3187
   12MOL   H179 2841   1.395   1.081   2.573  0.2592  0.3528  1.0721
   12MOL   H180 2842   1.543   1.102   2.462 -0.2739 -0.0352 -0.5772
   12MOL   H181 2843   1.477   1.562   2.371  1.0216 -0.8727  0.2120
   12MOL   C182 2844   1.585   1.322   2.634 -0.0130  0.1481 -0.1386
   12MOL   C183 2845   1.660   1.215   2.725 -0.5017  0.8169  0.1238
   12MOL   C184 2846   1.558   1.120   2.793  0.2506  0.0392  0.2332
   12MOL   C185 2847   1.754   1.126   2.643  0.1140 -0.1344  0.3212
   12MOL   O186 2848   1.781   1.155   2.527  0.2885  0.1830 -0.2646
   12MOL   O187 2849   1.823   1.028   2.711  0.3463 -0.4853  0.0737
   12MOL   H188 2850   1.658   1.345   2.556  0.2387 -1.0428 -0.2569
   12MOL   H189 2851   1.565   1.406   2.701 -1.9896  0.4948 -1.1330
   12MOL   H190 2852   1.609   1.052   2.862  0.3392  0.9076  1.0354
   12MOL   H191 2853   1.514   1.050   2.722 -0.3123  2.9960 -2.4234
   12MOL   H192 2854   1.480   1.164   2.855 -2.6049 -1.3159 -2.3075
   12MOL   H193 2855   1.894   0.990   2.663 -0.4442  2.5982 -3.8105
   12MOL   C194 2856   1.760   1.288   2.831  0.1037  0.2735  0.6458
   12MOL   C195 2857   1.722   1.344   2.973  0.4255  1.1074 -0.4871
   12MOL   C196 2858   1.842   1.422   3.030  0.3141 -0.0031 -0.3166
   12MOL   C197 2859   1.587   1.432   2.967  0.9426  0.2019 -0.1592
   12MOL   O198 2860   1.476   1.397   2.925 -0.2856  0.6534  0.4857
   12MOL   O199 2861   1.604   1.557   3.024 -0.2331 -0.1267  0.1494
   12MOL   H200 2862   1.840   1.216   2.850 -1.0031 -1.0171  0.4680
   12MOL   H201 2863   1.812   1.375   2.788 -1.2861  1.2917  1.0111
   12MOL   H202 2864   1.852   1.520   2.984  1.3157 -0.3120 -0.7750
   12MOL   H203 2865   1.929   1.369   2.991 -0.1436  1.0156 -2.7865
   12MOL   H204 2866   1.854   1.420   3.139  0.2672 -0.0138 -0.3114
   12MOL   H205 2867   1.525   1.608   3.037  1.4377  2.5829  0.0871
   12MOL   C206 2868   1.717   1.218   3.069 -0.4908 -0.0138 -0.3427
   12MOL   C207 2869   1.646   1.201   3.207  0.8110  0.0185 -0.3111
   12MOL   C208 2870   1.665   1.327   3.301 -0.4734 -0.6334  0.7053
   12MOL   C209 2871   1.496   1.192   3.175  0.3062 -0.5929  0.2439
   12MOL   O210 2872   1.406   1.266   3.222  0.2275 -0.0141 -0.3572
   12MOL   O211 2873   1.468   1.098   3.091  0.0109 -0.1171 -0.0468
   12MOL   H212 2874   1.705   1.130   3.006  0.4066  0.3971 -1.0963
   12MOL   H213 2875   1.824   1.205   3.087 -0.2353  1.3277 -0.8199
   12MOL   H214 2876   1.610   1.325   3.395 -1.8494 -0.0620 -0.0692
   12MOL   H215 2877   1.621   1.411   3.248  0.1904 -1.0210 -0.4892
   12MOL   H216 2878   1.767   1.365   3.303 -0.3439 -0.9661  0.5292
   12MOL   H217 2879   1.380   1.082   3.062 -0.5397 -2.1131  2.5860
   12MOL   C218 2880   1.677   1.063   3.291  0.6818 -0.0727  0.7953
   12MOL   C219 2881   1.818   1.000   3.301 -0.0795  0.9291 -0.0030
   12MOL   C220 2882   1.793   0.870   3.375  0.6872  0.0247  0.6374
   12MOL   C221 2883   1.878   0.957   3.163  0.3385  0.5148 -0.1062
   12MOL   O222 2884   1.986   1.002   3.122  0.3206  0.3174 -0.5327
   12MOL   O223 2885   1.797   0.880   3.085 -0.7093 -0.0419  0.4161
   12MOL   H224 2886   1.621   1.071   3.384  1.9381  2.1942  1.4009
   12MOL   H225 2887   1.618   0.985   3.244  2.0022  0.6844 -2.1970
   12MOL   H226 2888   1.737   0.800   3.313 -0.5661  2.0953 -0.6125
   12MOL   H227 2889   1.731   0.895   3.461 -0.9995  0.5513 -0.6982
   12MOL   H228 2890   1.883   0.822   3.415 -0.1786 -2.1303  0.0304
   12MOL   H229 2891   1.845   0.861   3.006 -3.0513 -0.9777 -0.8348
   12MOL   C230 2892   1.916   1.095   3.380  0.3978 -0.0768 -0.6189
   12MOL   C231 2893   2.060   1.059   3.417 -0.3738  0.4200 -0.1099
   12MOL   C232 2894   2.137   1.178   3.465  0.4292 -0.3852 -0.1150
   12MOL   C233 2895   2.069   0.953   3.525  0.2307 -0.1723  0.4600
   12MOL   O234 2896   2.115   0.844   3.503 -0.3950 -0.3222  0.4858
   12MOL   O235 2897   2.022   0.996   3.650  0.3946 -0.0954 -0.1431
   12MOL   H236 2898   1.920   1.185   3.320  1.1591  0.7790  0.7014
   12MOL   H237 2899   1.867   1.128   3.471  2.4842  0.5877  0.2868
   12MOL   H238 2900   2.160   1.236   3.376 -1.8393  2.3148  1.0210
   12MOL   H239 2901   2.222   1.148   3.527  0.2612  0.8126  0.6962
   12MOL   H240 2902   2.069   1.232   3.530 -2.7491 -1.1669 -2.6571
   12MOL   H241 2903   2.030   0.921   3.707  0.7008  0.7218  0.9016
   12MOL   H242 2904   2.119   1.011   3.339 -0.5716 -0.6078  0.3669
   13MOL     C1 2905   5.414   2.226   1.405  0.1544  0.3587  0.4423
   13MOL     C2 2906   5.317   2.341   1.364 -0.1908  0.5005 -0.4957
   13MOL     C3 2907   5.353   2.411   1.228  0.2490  0.2584  0.3616
   13MOL     C4 2908   5.179   2.277   1.338 -0.6977 -0.1085 -0.1588
   13MOL     O5 2909   5.152   2.157   1.355  0.7304  0.2524  0.6391
   13MOL     O6 2910   5.094   2.372   1.296 -0.2359 -0.0351 -0.0084
   13MOL     H7 2911   5.514   2.265   1.426  0.4239  1.1692 -2.2413
   13MOL     H8 2912   5.436   2.156   1.325  0.0906 -0.9011  1.4998
   13MOL     H9 2913   5.455   2.448   1.242  0.4232  0.4770 -1.3575
   13MOL    H10 2914   5.293   2.499   1.204 -2.7213 -1.9172 -0.3892
   13MOL    H11 2915   5.348   2.354   1.135  0.6487 -0.0007  0.4967
   13MOL    H12 2916   5.002   2.351   1.297 -0.2976  0.0988 -1.3051
   13MOL    H13 2917   5.380   2.161   1.486 -0.0135 -1.0222 -0.7321
   13MOL    C14 2918   5.308   2.453   1.470  0.1174 -0.6389 -0.5111
   13MOL    C15 2919   5.290   2.422   1.626  0.7424 -0.3825 -0.4533
   13MOL    C16 2920   5.174   2.321   1.648  0.8589  0.4420 -0.0320
   13MOL    C17 2921   5.420   2.366   1.688  0.6146 -0.6500  0.2419
   13MOL    O18 2922   5.429   2.268   1.755 -0.3643  0.5355 -0.3348
   13MOL    O19 2923   5.521   2.451   1.665  0.4278  0.7462  0.2950
   13MOL    H20 2924   5.399   2.513   1.459 -1.5638  2.3865  1.1102
   13MOL    H21 2925   5.232   2.526   1.442 -0.2250 -0.9250 -0.3208
   13MOL    H22 2926   5.175   2.293   1.753 -1.5630  0.3879  0.0114
   13MOL    H23 2927   5.183   2.227   1.595 -3.2859  0.6795 -1.3613
   13MOL    H24 2928   5.073   2.355   1.624  0.6840  0.9539  1.4100
   13MOL    H25 2929   5.598   2.419   1.711 -1.8963 -2.2904  2.2665
   13MOL    C26 2930   5.254   2.569   1.692 -0.7485  0.1492 -0.2805
   13MOL    C27 2931   5.187   2.601   1.829  0.6494  0.0765  0.7293
   13MOL    C28 2932   5.036   2.578   1.812  0.2787 -0.4301  0.4370
   13MOL    C29 2933   5.238   2.506   1.940  0.3654 -0.7344 -0.0655
   13MOL    O30 2934   5.166   2.428   2.004  0.3573  0.1972 -0.1593
   13MOL    O31 2935   5.373   2.513   1.949  0.6256  0.0173 -0.7175
   13MOL    H32 2936   5.346   2.626   1.701 -0.0541 -1.2214  1.5025
   13MOL    H33 2937   5.201   2.629   1.618  3.1570  2.8134 -1.0394
   13MOL    H34 2938   4.975   2.592   1.901 -0.5650 -0.6445 -0.1045
   13MOL    H35 2939   5.020   2.478   1.770  0.0405  0.0556 -0.6521
   13MOL    H36 2940   5.006   2.654   1.739 -0.8054  0.5765  1.8997
   13MOL    H37 2941   5.393   2.442   2.007 -0.8111  0.5178  0.4261
   13MOL    C38 2942   5.205   2.752   1.865  0.3768  0.0661 -0.3465
   13MOL    C39 2943   5.113   2.832   1.964 -0.1870 -0.1139  0.2482
   13MOL    C40 2944   4.985   2.886   1.906 -0.7790 -0.7998  0.2417
   13MOL    C41 2945   5.085   2.751   2.090 -0.1153 -0.4525  0.0652
   13MOL    O42 2946   4.976   2.728   2.138  0.0644  0.5941  0.3677
   13MOL    O43 2947   5.197   2.704   2.155 -0.3424 -0.2612  0.7618
   13MOL    H44 2948   5.311   2.757   1.889  0.2490 -2.1804  0.8442
   13MOL    H45 2949   5.193   2.797   1.766 -0.0418 -0.9409 -0.7659
   13MOL    H46 2950   5.011   2.952   1.824  0.8862 -0.2195  1.2217
   13MOL    H47 2951   4.923   2.948   1.970  0.5061  3.6701 -2.6717
   13MOL    H48 2952   4.920   2.806   1.870 -1.3498 -1.2056  2.0922
   13MOL    H49 2953   5.164   2.650   2.225  0.8173 -1.9392  0.0600
   13MOL    C50 2954   5.216   2.951   2.000 -0.7436 -0.0063  0.0279
   13MOL    C51 2955   5.199   3.078   2.091 -0.3602 -0.8864 -0.1529
   13MOL    C52 2956   5.338   3.110   2.154  0.5570 -0.5998 -0.3557
   13MOL    C53 2957   5.164   3.198   2.004 -0.1331 -0.6489 -0.5929
   13MOL    O54 2958   5.229   3.306   2.008 -0.2927 -0.6096 -0.5253
   13MOL    O55 2959   5.063   3.174   1.921  0.3084  0.1680  0.5195
   13MOL    H56 2960   5.299   2.902   2.049 -0.0828 -0.1272 -1.1901
   13MOL    H57 2961   5.267   3.001   1.917 -0.1368  0.0251  0.4216
   13MOL    H58 2962   5.378   3.036   2.223  0.3370  0.3073  0.7625
   13MOL    H59 2963   5.352   3.200   2.213  3.3344  0.1482 -2.0583
   13MOL    H60 2964   5.405   3.114   2.067 -0.9962 -0.8057 -1.5916
   13MOL    H61 2965   5.029   3.248   1.874 -1.5976 -1.4909 -0.7848
   13MOL    C62 2966   5.098   3.046   2.213  0.0802  0.2441 -0.0341
   13MOL    C63 2967   5.038   3.153   2.311  0.4764  0.2767  0.0998
   13MOL    C64 2968   4.935   3.068   2.385 -0.3995  0.1252 -0.3448
   13MOL    C65 2969   5.145   3.196   2.413  1.1421 -0.0190 -0.0789
   13MOL    O66 2970   5.153   3.141   2.525 -0.5294  0.2294 -0.3926
   13MOL    O67 2971   5.214   3.312   2.379 -0.3218 -0.7707 -0.2929
   13MOL    H68 2972   5.012   3.008   2.159 -0.8160  0.5943  1.1271
   13MOL    H69 2973   5.140   2.958   2.262 -1.0163 -0.2309  0.0670
   13MOL    H70 2974   4.862   3.028   2.314 -1.0056 -0.6388  0.6953
   13MOL    H71 2975   4.887   3.127   2.463  1.3582  2.2360 -0.8018
   13MOL    H72 2976   4.978   2.977   2.427 -0.4704  1.5508  2.9715
   13MOL    H73 2977   5.260   3.343   2.455 -1.1964 -0.0644 -0.0374
   13MOL    C74 2978   4.969   3.265   2.235 -0.2577 -0.8370  0.2462
   13MOL    C75 2979   4.872   3.375   2.305 -0.4043  1.3442 -0.2599
   13MOL    C76 2980   4.729   3.316   2.275  0.2033  0.1364 -0.2509
   13MOL    C77 2981   4.893   3.399   2.456  1.1218 -0.4106  1.0467
   13MOL    O78 2982   4.801   3.390   2.540  0.2261 -0.5040 -0.2099
   13MOL    O79 2983   5.007   3.463   2.484 -0.0590 -0.5169  0.4153
   13MOL    H80 2984   5.055   3.313   2.187  1.3010 -2.7970  0.9735
   13MOL    H81 2985   4.913   3.219   2.153  0.4374 -0.0078 -0.7201
   13MOL    H82 2986   4.689   3.318   2.174  0.5622  0.8642 -0.3838
   13MOL    H83 2987   4.651   3.355   2.339  1.2597  1.5491  0.1954
   13MOL    H84 2988   4.732   3.213   2.311  2.7406 -0.9402 -3.3546
   13MOL    H85 2989   5.010   3.486   2.576  0.3390  1.6706 -0.1254
   13MOL    C86 2990   4.876   3.511   2.216  0.0615 -0.0978  0.5137
   13MOL    C87 2991   4.808   3.647   2.243 -0.2934 -0.4146  0.2646
   13MOL    C88 2992   4.818   3.726   2.112 -0.4962 -0.2918 -0.1292
   13MOL    C89 2993   4.654   3.627   2.270  0.7633 -0.0924 -0.4957
   13MOL    O90 2994   4.570   3.638   2.181  0.1744  0.4806 -0.6091
   13MOL    O91 2995   4.628   3.594   2.394  0.3358  0.4412 -0.5631
   13MOL    H92 2996   4.983   3.526   2.204  0.2007 -0.8643  0.7723
   13MOL    H93 2997   4.850   3.478   2.115  3.6084 -0.3289 -0.3968
   13MOL    H94 2998   4.768   3.685   2.024 -0.5581 -1.4264  0.4234
   13MOL    H95 2999   4.919   3.748   2.079  0.1318 -1.7348  0.7703
   13MOL    H96 3000   4.767   3.822   2.123  3.3779  1.7249  1.1153
   13MOL    H97 3001   4.538   3.567   2.398  0.7666 -0.8372  1.2051
   13MOL    C98 3002   4.880   3.728   2.360  0.5468 -0.0360  0.0247
   13MOL    C99 3003   4.887   3.887   2.375  0.1837 -0.2730  0.2249
   13MOL   C100 3004   4.993   3.931   2.271 -0.5203 -0.1607  0.5151
   13MOL   C101 3005   4.754   3.963   2.359  0.0308  0.1458 -0.1288
   13MOL   O102 3006   4.732   4.049   2.279 -0.1518 -0.5658  0.1407
   13MOL   O103 3007   4.657   3.909   2.436 -0.3748 -0.2292  0.0663
   13MOL   H104 3008   4.829   3.698   2.452  0.2684  0.6589  0.1005
   13MOL   H105 3009   4.984   3.694   2.359  2.2405  4.8012 -1.9500
   13MOL   H106 3010   5.029   3.857   2.199 -0.9214  1.1033 -1.0205
   13MOL   H107 3011   5.091   3.951   2.314  0.3447 -2.1287 -0.4908
   13MOL   H108 3012   4.964   4.017   2.211 -1.1524 -0.5478  0.2637
   13MOL   H109 3013   4.577   3.957   2.451 -2.1700 -3.9183  3.3146
   13MOL   C110 3014   4.948   3.906   2.517 -0.0495 -0.3446  0.7208
   13MOL   C111 3015   4.967   4.047   2.589 -0.7016 -0.7355 -0.1725
   13MOL   C112 3016   5.035   4.156   2.495  0.1040 -0.3604  0.0395
   13MOL   C113 3017   4.827   4.095   2.642 -0.7343 -0.4756 -0.4912
   13MOL   O114 3018   4.788   4.211   2.633  0.3238 -0.2772  0.1694
   13MOL   O115 3019   4.753   4.002   2.698 -0.0347 -0.0461 -0.3763
   13MOL   H116 3020   4.880   3.851   2.583 -0.1667  1.3414  2.0437
   13MOL   H117 3021   5.043   3.853   2.525  1.5877  2.3598 -0.2315
   13MOL   H118 3022   4.963   4.183   2.417  0.8649  1.7332  0.0520
   13MOL   H119 3023   5.129   4.131   2.448  0.7032 -0.6352  1.3560
   13MOL   H120 3024   5.048   4.251   2.545 -3.7775  0.5011 -0.3916
   13MOL   H121 3025   4.676   4.050   2.725 -0.3716 -0.6663 -0.2313
   13MOL   C122 3026   5.071   4.009   2.707 -0.3052  0.4710 -0.0446
   13MOL   C123 3027   5.098   4.104   2.831  0.3779  0.1552 -0.0394
   13MOL   C124 3028   5.216   4.045   2.908 -0.5488 -0.8244 -0.1460
   13MOL   C125 3029   5.130   4.243   2.783  0.4237  0.3824 -0.2162
   13MOL   O126 3030   5.053   4.343   2.789 -0.2973  0.6833 -0.2499
   13MOL   O127 3031   5.255   4.247   2.734 -0.0167 -0.7031  0.0512
   13MOL   H128 3032   5.038   3.912   2.743 -0.5962  0.2463 -0.9070
   13MOL   H129 3033   5.169   3.998   2.659 -0.0232 -1.1239  0.8597
   13MOL   H130 3034   5.290   4.006   2.839 -0.9816 -0.0201 -1.0866
   13MOL   H131 3035   5.199   3.968   2.983 -2.8337  0.5601  0.8285
   13MOL   H132 3036   5.260   4.135   2.952 -2.9257  0.2694  0.0797
   13MOL   H133 3037   5.263   4.334   2.698 -0.8966 -0.5091  0.2988
   13MOL   C134 3038   4.976   4.104   2.932  0.1103 -0.2227  0.3973
   13MOL   C135 3039   4.973   4.162   3.076 -0.5289  0.1289  0.3007
   13MOL   C136 3040   5.083   4.096   3.165  0.4255  0.7382 -0.0502
   13MOL   C137 3041   4.981   4.311   3.078 -0.2717 -0.1743 -0.5733
   13MOL   O138 3042   4.914   4.392   3.010  0.4899 -0.3267 -0.1968
   13MOL   O139 3043   5.066   4.356   3.175  0.4121  0.0489 -0.5592
   13MOL   H140 3044   4.899   4.160   2.879 -0.9647 -1.2102  0.9096
   13MOL   H141 3045   4.931   4.006   2.943  1.4804 -0.9176 -0.0082
   13MOL   H142 3046   5.066   4.094   3.273 -0.2653 -3.9321 -0.1682
   13MOL   H143 3047   5.184   4.135   3.152  1.3626 -1.1940  1.2385
   13MOL   H144 3048   5.078   3.990   3.142 -1.3244  0.7359  0.2052
   13MOL   H145 3049   5.082   4.449   3.176 -2.1491  0.5386  0.4320
   13MOL   C146 3050   4.844   4.104   3.150  0.0497 -0.0445  0.4555
   13MOL   C147 3051   4.698   4.145   3.137  0.3674 -1.0037  0.1504
   13MOL   C148 3052   4.660   4.279   3.203  0.4183  0.6143  0.1971
   13MOL   C149 3053   4.661   4.154   2.983 -0.0018  0.1851 -1.3779
   13MOL   O150 3054   4.604   4.063   2.928 -0.1092  0.1822 -0.3189
   13MOL   O151 3055   4.693   4.272   2.918 -0.8806  0.2059  0.4721
   13MOL   H152 3056   4.847   3.995   3.154 -1.7541 -0.0413  3.7027
   13MOL   H153 3057   4.863   4.121   3.256  1.6497  0.9341  0.0235
   13MOL   H154 3058   4.679   4.279   3.310 -0.9440 -0.1391  0.4407
   13MOL   H155 3059   4.555   4.304   3.193  0.4339  0.4288 -0.4813
   13MOL   H156 3060   4.699   4.374   3.165 -0.3929  0.5761 -0.7602
   13MOL   H157 3061   4.735   4.334   2.975  0.2177  0.2612 -0.3853
   13MOL   C158 3062   4.604   4.025   3.198 -1.0499 -1.2358  0.0128
   13MOL   C159 3063   4.568   4.021   3.351 -0.3355 -0.0926 -0.6579
   13MOL   C160 3064   4.690   4.036   3.441 -0.0059 -0.3137 -0.1674
   13MOL   C161 3065   4.465   4.132   3.390  0.9596  0.3108 -0.5156
   13MOL   O162 3066   4.472   4.204   3.492 -0.0776  0.4480 -0.0266
   13MOL   O163 3067   4.371   4.130   3.298  0.8190 -0.5978 -0.2363
   13MOL   H164 3068   4.510   4.020   3.144 -2.0805 -2.1772  1.8546
   13MOL   H165 3069   4.650   3.930   3.170  2.0211  0.0288  0.5247
   13MOL   H166 3070   4.666   4.021   3.547  0.1808  2.2564  0.2577
   13MOL   H167 3071   4.747   4.129   3.438  0.1204 -0.3627  0.5328
   13MOL   H168 3072   4.765   3.963   3.408  0.2759 -0.5381  0.9388
   13MOL   H169 3073   4.303   4.194   3.310  1.1610 -0.4282  0.9059
   13MOL   C170 3074   4.494   3.881   3.371 -0.4134  0.5493  0.0078
   13MOL   C171 3075   4.389   3.836   3.482 -0.8808 -0.4423 -0.5852
   13MOL   C172 3076   4.435   3.876   3.623  0.0648  0.5828 -0.7512
   13MOL   C173 3077   4.253   3.896   3.457 -0.3434 -0.3114 -0.0157
   13MOL   O174 3078   4.185   3.963   3.533 -0.7129  0.3851  0.0187
   13MOL   O175 3079   4.203   3.847   3.341  0.0931 -0.6337  0.1193
   13MOL   H176 3080   4.462   3.840   3.276 -0.6988  0.6420  0.0646
   13MOL   H177 3081   4.579   3.814   3.386  1.8088  3.3208  0.3769
   13MOL   H178 3082   4.465   3.980   3.637  2.1936 -0.1082  0.0289
   13MOL   H179 3083   4.524   3.819   3.651 -0.1206  0.3986 -0.5294
   13MOL   H180 3084   4.357   3.859   3.698  0.5210 -0.6434 -0.5471
   13MOL   H181 3085   4.111   3.871   3.339  0.8397  2.3683 -0.4241
   13MOL   C182 3086   4.362   3.675   3.479  0.5840 -0.7767  0.0373
   13MOL   C183 3087   4.448   3.545   3.529 -0.6260 -0.0802  0.6801
   13MOL   C184 3088   4.583   3.543   3.449  0.4566  0.9953  0.1773
   13MOL   C185 3089   4.471   3.555   3.680  0.5146 -0.3257  0.0565
   13MOL   O186 3090   4.389   3.600   3.757 -0.1360  0.9177 -0.8378
   13MOL   O187 3091   4.592   3.517   3.720 -0.3050  0.0926  0.4490
   13MOL   H188 3092   4.271   3.655   3.536 -0.2324 -1.3717 -1.4352
   13MOL   H189 3093   4.354   3.648   3.373  0.8591  1.4876 -0.5839
   13MOL   H190 3094   4.651   3.624   3.474  0.6018  1.6673 -2.2938
   13MOL   H191 3095   4.567   3.552   3.342 -0.4124 -1.6223  0.0461
   13MOL   H192 3096   4.639   3.450   3.458 -0.0679  0.8536  2.5635
   13MOL   H193 3097   4.593   3.521   3.814  1.2654  0.2724  0.4240
   13MOL   C194 3098   4.379   3.409   3.488  0.7216 -0.7253  0.0582
   13MOL   C195 3099   4.232   3.360   3.522 -0.2842  0.7216  0.3945
   13MOL   C196 3100   4.183   3.406   3.665  0.0248 -0.0316 -0.1345
   13MOL   C197 3101   4.137   3.416   3.410 -0.6923  0.0352  0.0445
   13MOL   O198 3102   4.172   3.468   3.301  0.1939 -0.1844  0.0061
   13MOL   O199 3103   4.003   3.391   3.432  0.5965  0.2567 -0.7424
   13MOL   H200 3104   4.396   3.399   3.380  0.5429  2.5283 -0.3172
   13MOL   H201 3105   4.450   3.345   3.540  1.1186 -0.8453 -0.6203
   13MOL   H202 3106   4.079   3.376   3.680 -0.0548  0.3482  0.0732
   13MOL   H203 3107   4.167   3.512   3.681 -0.1401 -0.2844  1.4817
   13MOL   H204 3108   4.240   3.358   3.745 -0.1944  0.6459  0.4312
   13MOL   H205 3109   3.954   3.434   3.364 -0.6461 -3.5612 -2.3854
   13MOL   C206 3110   4.222   3.197   3.502 -0.5624 -0.2969 -0.5131
   13MOL   C207 3111   4.338   3.098   3.553 -0.0376  0.0075  0.5650
   13MOL   C208 3112   4.266   2.963   3.518  0.5117  0.0069 -0.1814
   13MOL   C209 3113   4.463   3.106   3.465 -0.2991 -0.4380 -0.5449
   13MOL   O210 3114   4.575   3.138   3.509 -0.7112 -0.0505 -0.4539
   13MOL   O211 3115   4.437   3.088   3.333  0.7604  0.1821  0.2962
   13MOL   H212 3116   4.131   3.168   3.553  1.4658 -1.9403  2.2945
   13MOL   H213 3117   4.192   3.174   3.399 -0.2833  1.2224 -0.9459
   13MOL   H214 3118   4.187   2.935   3.587 -1.0188  0.4461 -1.7117
   13MOL   H215 3119   4.319   2.868   3.532  0.5020  0.1877  1.1241
   13MOL   H216 3120   4.210   2.963   3.425  0.0797  0.0050  0.0788
   13MOL   H217 3121   4.518   3.067   3.291  0.0866  0.0937 -0.9736
   13MOL   C218 3122   4.360   3.109   3.714 -0.2469 -0.3514  0.1351
   13MOL   C219 3123   4.401   2.986   3.808 -0.2147 -0.3197  0.2970
   13MOL   C220 3124   4.274   2.899   3.827  0.3880 -0.1856 -0.1748
   13MOL   C221 3125   4.506   2.893   3.741  0.1638 -0.4557 -0.0275
   13MOL   O222 3126   4.501   2.774   3.732  0.2597  0.4844 -0.1389
   13MOL   O223 3127   4.617   2.964   3.722 -0.3939 -0.1580 -0.0443
   13MOL   H224 3128   4.431   3.186   3.746  0.0097 -0.5349  0.0134
   13MOL   H225 3129   4.262   3.132   3.756 -1.5177 -2.2449 -1.7216
   13MOL   H226 3130   4.282   2.837   3.916 -0.0730  0.2812  0.1986
   13MOL   H227 3131   4.256   2.827   3.748 -1.9499 -1.2218  1.2645
   13MOL   H228 3132   4.182   2.957   3.834 -0.2450 -0.8578 -2.5232
   13MOL   H229 3133   4.697   2.919   3.700 -1.1881 -2.4099  1.4828
   13MOL   C230 3134   4.453   3.033   3.947 -0.0066 -1.2551  0.0626
   13MOL   C231 3135   4.342   3.090   4.051 -0.1322 -0.2556  0.1489
   13MOL   C232 3136   4.389   3.098   4.203 -0.2978  0.1659  0.1306
   13MOL   C233 3137   4.301   3.232   4.014 -0.0401 -0.1847 -0.2618
   13MOL   O234 3138   4.371   3.325   3.977  0.5595 -0.3212 -0.4257
   13MOL   O235 3139   4.174   3.246   4.047  0.3172  0.6694  0.0041
   13MOL   H236 3140   4.513   2.961   4.002  0.8962  0.9138  2.0007
   13MOL   H237 3141   4.531   3.107   3.931 -1.2605  0.4371  1.6330
   13MOL   H238 3142   4.495   3.075   4.217  0.2252  1.4869 -1.4762
   13MOL   H239 3143   4.328   3.032   4.264 -1.2685  0.6922 -0.2746
   13MOL   H240 3144   4.360   3.189   4.254  0.2259 -0.1355  0.9805
   13MOL   H241 3145   4.138   3.325   4.008 -0.2160  0.3153 -0.2113
   13MOL   H242 3146   4.251   3.030   4.048 -0.5635  0.4562 -2.3386
   14MOL     C1 3147   4.006   3.068   5.811  0.2746 -0.2960  1.0034
   14MOL     C2 3148   3.906   3.004   5.705 -0.0014 -0.1112  0.7676
   14MOL     C3 3149   3.971   3.001   5.561  0.6774  0.1936 -0.4018
   14MOL     C4 3150   3.880   2.860   5.741 -0.4881 -0.0857 -0.6113
   14MOL     O5 3151   3.919   2.813   5.845 -0.5065  0.7600 -0.1698
   14MOL     O6 3152   3.811   2.799   5.648  0.3783  0.4970  0.2594
   14MOL     H7 3153   4.095   3.012   5.839  0.8898  0.4798  0.6128
   14MOL     H8 3154   3.962   3.082   5.910  0.9341  1.1591  1.1020
   14MOL     H9 3155   3.906   2.949   5.491 -0.9170  3.2860 -1.3452
   14MOL    H10 3156   4.064   2.945   5.571 -0.9859 -2.8449 -1.2830
   14MOL    H11 3157   3.992   3.104   5.532 -1.3018  0.4782 -0.9202
   14MOL    H12 3158   3.817   2.706   5.663  1.3582  0.2556 -1.4477
   14MOL    H13 3159   4.054   3.159   5.776 -1.2139  1.0483  2.3436
   14MOL    C14 3160   3.767   3.081   5.696 -0.4373 -0.7741  0.4874
   14MOL    C15 3161   3.672   3.111   5.817 -0.7789  0.1138  0.1066
   14MOL    C16 3162   3.631   2.978   5.873 -0.2158 -0.0851  0.2914
   14MOL    C17 3163   3.749   3.199   5.916 -0.1191 -0.5381 -0.1334
   14MOL    O18 3164   3.812   3.302   5.880 -0.3281 -0.0109  0.4293
   14MOL    O19 3165   3.746   3.154   6.046 -0.0676 -0.4752  0.7888
   14MOL    H20 3166   3.794   3.181   5.662 -1.4010 -0.9625 -0.8632
   14MOL    H21 3167   3.717   3.041   5.608  1.0181  1.1955 -1.2869
   14MOL    H22 3168   3.625   2.909   5.789  1.9383  0.6252 -0.4777
   14MOL    H23 3169   3.535   2.965   5.922  0.4206  0.2600  1.6389
   14MOL    H24 3170   3.702   2.928   5.938  0.1752 -1.0576 -0.8597
   14MOL    H25 3171   3.780   3.227   6.095 -0.2842 -0.3988  0.8262
   14MOL    C26 3172   3.555   3.189   5.753 -0.0938  0.1463 -0.0976
   14MOL    C27 3173   3.415   3.217   5.827  0.2187  0.1941 -0.2534
   14MOL    C28 3174   3.442   3.260   5.976 -0.1626 -0.3796 -0.6429
   14MOL    C29 3175   3.348   3.338   5.755  0.1757 -0.4347  0.7992
   14MOL    O30 3176   3.404   3.396   5.660 -0.2064  0.4903  0.1193
   14MOL    O31 3177   3.240   3.391   5.817 -0.1130  0.0233 -0.2130
   14MOL    H32 3178   3.596   3.284   5.717  0.6654  0.0569  0.5028
   14MOL    H33 3179   3.527   3.143   5.659  0.6773  1.0782 -0.7980
   14MOL    H34 3180   3.493   3.188   6.039 -0.1809  1.8805  2.0613
   14MOL    H35 3181   3.355   3.307   6.023  0.1726  0.4873 -0.8864
   14MOL    H36 3182   3.514   3.342   5.978  0.4826 -0.9575 -0.1736
   14MOL    H37 3183   3.215   3.476   5.784 -2.3602  0.2054  1.8252
   14MOL    C38 3184   3.307   3.097   5.828 -0.5606  0.7969  0.3481
   14MOL    C39 3185   3.258   3.010   5.704  0.7718  0.2071 -0.3159
   14MOL    C40 3186   3.255   3.100   5.574  0.2615 -0.4891  0.0586
   14MOL    C41 3187   3.342   2.883   5.694 -0.6710  0.8927 -0.4723
   14MOL    O42 3188   3.358   2.815   5.793  0.2798 -0.1574  0.1911
   14MOL    O43 3189   3.390   2.852   5.573  0.2654  0.5470 -0.1114
   14MOL    H44 3190   3.335   3.023   5.904  2.6342  2.2122  0.6210
   14MOL    H45 3191   3.215   3.132   5.876  0.7694  3.5119  0.9752
   14MOL    H46 3192   3.349   3.154   5.562  0.2565 -0.3137  0.8059
   14MOL    H47 3193   3.179   3.174   5.598  0.0011  0.4240 -3.3323
   14MOL    H48 3194   3.241   3.044   5.481  0.0941 -3.2721  1.6955
   14MOL    H49 3195   3.420   2.763   5.572 -2.6521 -0.4706 -0.5711
   14MOL    C50 3196   3.107   2.968   5.743  0.4446  0.1291  0.2835
   14MOL    C51 3197   3.004   2.908   5.640 -0.0586  0.6185  0.6710
   14MOL    C52 3198   2.952   3.028   5.546  0.6363  0.0012 -1.0993
   14MOL    C53 3199   3.072   2.795   5.557  0.5341  0.1875  0.3617
   14MOL    O54 3200   3.080   2.798   5.435  1.2201  0.2993  0.3293
   14MOL    O55 3201   3.101   2.688   5.629  0.4634  0.2537 -0.0122
   14MOL    H56 3202   3.112   2.888   5.818  1.4638  1.0536  1.2360
   14MOL    H57 3203   3.041   3.041   5.789 -0.6578  0.2704 -1.5083
   14MOL    H58 3204   2.868   2.990   5.486  1.5127 -0.0392 -2.3210
   14MOL    H59 3205   3.023   3.061   5.470 -0.7646 -0.0802 -2.4960
   14MOL    H60 3206   2.920   3.117   5.600  0.7323  0.5001 -1.8548
   14MOL    H61 3207   3.138   2.618   5.577 -1.7723 -1.1512  0.1886
   14MOL    C62 3208   2.875   2.854   5.727 -0.2710 -0.2539 -0.5955
   14MOL    C63 3209   2.741   2.807   5.672 -0.4633  0.5389  0.2662
   14MOL    C64 3210   2.762   2.738   5.535  0.2956 -0.4496 -0.4706
   14MOL    C65 3211   2.688   2.699   5.777 -0.3187  0.3070  0.0713
   14MOL    O66 3212   2.693   2.575   5.759 -0.0546 -0.1211  0.7724
   14MOL    O67 3213   2.646   2.762   5.891  0.0522  0.2427 -0.0221
   14MOL    H68 3214   2.917   2.771   5.784 -0.3454 -0.1241 -0.3503
   14MOL    H69 3215   2.854   2.931   5.801  2.2017 -0.2258  0.1044
   14MOL    H70 3216   2.794   2.807   5.457  0.4748 -0.2203 -0.1980
   14MOL    H71 3217   2.675   2.678   5.506  0.1201 -0.9836  1.0997
   14MOL    H72 3218   2.833   2.656   5.550  3.2901  1.8407 -1.6479
   14MOL    H73 3219   2.627   2.708   5.966  1.3340 -0.6846 -0.3436
   14MOL    C74 3220   2.641   2.928   5.672 -0.6322  0.8094 -0.2514
   14MOL    C75 3221   2.506   2.927   5.594 -0.1620 -0.4320 -0.2370
   14MOL    C76 3222   2.536   2.938   5.440 -0.7409 -0.3565 -0.1570
   14MOL    C77 3223   2.429   2.798   5.620 -0.1939 -0.2716  0.7505
   14MOL    O78 3224   2.401   2.717   5.533 -0.3307 -0.0103 -0.2649
   14MOL    O79 3225   2.382   2.789   5.746  0.5957 -0.3168 -0.1535
   14MOL    H80 3226   2.629   2.967   5.773 -0.4494  0.4869 -0.1055
   14MOL    H81 3227   2.709   3.007   5.639 -0.4716  0.3910 -0.9196
   14MOL    H82 3228   2.452   2.971   5.379 -0.8866 -0.9023 -0.2610
   14MOL    H83 3229   2.565   2.838   5.407  0.4400 -0.5613  1.4082
   14MOL    H84 3230   2.625   2.998   5.425 -1.3316  1.2244  2.3870
   14MOL    H85 3231   2.327   2.713   5.756 -0.0377  0.1583 -0.0220
   14MOL    C86 3232   2.414   3.046   5.646  0.5047 -0.0234  0.2609
   14MOL    C87 3233   2.432   3.201   5.638 -0.1188  0.0711  0.4041
   14MOL    C88 3234   2.566   3.249   5.695 -0.1101  0.3366  0.1656
   14MOL    C89 3235   2.424   3.241   5.493  0.6823  0.4152  0.6011
   14MOL    O90 3236   2.510   3.298   5.431  0.2091 -0.0085  0.1037
   14MOL    O91 3237   2.307   3.204   5.444 -0.4055 -0.0979  0.0927
   14MOL    H92 3238   2.313   3.027   5.609  0.7410 -0.7091 -0.0531
   14MOL    H93 3239   2.403   3.028   5.753 -0.7692 -0.7175  0.0259
   14MOL    H94 3240   2.567   3.207   5.795 -0.7519 -0.3337 -0.1056
   14MOL    H95 3241   2.579   3.357   5.689 -2.2385  0.5277 -2.0922
   14MOL    H96 3242   2.647   3.207   5.635 -0.8832  0.4411 -0.9744
   14MOL    H97 3243   2.306   3.221   5.351 -1.0105  1.2813  0.3273
   14MOL    C98 3244   2.318   3.270   5.731  0.4154 -0.1104 -0.0133
   14MOL    C99 3245   2.273   3.424   5.721 -0.2508 -0.3027  0.0510
   14MOL   C100 3246   2.385   3.519   5.683 -0.5113 -0.5966  0.8040
   14MOL   C101 3247   2.165   3.439   5.611 -0.1102 -0.8214  0.1743
   14MOL   O102 3248   2.047   3.410   5.630  0.6806  0.2700  0.1044
   14MOL   O103 3249   2.210   3.487   5.496 -0.2854  0.3159 -0.2439
   14MOL   H104 3250   2.228   3.210   5.720 -0.7325  1.7903 -1.0509
   14MOL   H105 3251   2.336   3.244   5.836 -0.4170 -0.1678  0.1228
   14MOL   H106 3252   2.467   3.516   5.755 -1.8381 -3.1422  2.2912
   14MOL   H107 3253   2.354   3.623   5.688  2.9589  0.5473  0.0867
   14MOL   H108 3254   2.427   3.512   5.582 -1.9508 -1.6668  0.2472
   14MOL   H109 3255   2.304   3.490   5.502 -0.2652 -0.1601 -0.3237
   14MOL   C110 3256   2.200   3.472   5.854 -0.4896 -0.0473  0.5374
   14MOL   C111 3257   2.275   3.507   5.992  0.1229  0.1377 -0.3470
   14MOL   C112 3258   2.381   3.395   6.024 -0.3328 -0.9432  0.2078
   14MOL   C113 3259   2.353   3.638   6.002 -0.2171  0.1321  0.0924
   14MOL   O114 3260   2.449   3.651   6.077  0.2401 -0.3684 -0.4514
   14MOL   O115 3261   2.326   3.731   5.907  0.2750 -0.4724  0.2135
   14MOL   H116 3262   2.139   3.558   5.826  2.5429  2.1947  0.6259
   14MOL   H117 3263   2.130   3.389   5.867 -0.3059 -0.5084 -1.2632
   14MOL   H118 3264   2.330   3.302   6.052 -1.1369  0.0478  2.1344
   14MOL   H119 3265   2.443   3.422   6.109 -1.6154  0.3618  0.7524
   14MOL   H120 3266   2.457   3.387   5.946  1.5736  0.2990  1.9147
   14MOL   H121 3267   2.386   3.804   5.906  0.4329 -0.5207  2.9697
   14MOL   C122 3268   2.162   3.501   6.107 -0.5612 -0.0382 -0.1922
   14MOL   C123 3269   2.024   3.579   6.109 -0.5407  0.3824  0.6463
   14MOL   C124 3270   1.924   3.530   6.000 -0.5741 -0.0374 -0.3531
   14MOL   C125 3271   1.963   3.557   6.240 -0.2094  0.2275 -0.1858
   14MOL   O126 3272   1.863   3.488   6.258 -0.3496  0.3845  0.2051
   14MOL   O127 3273   2.038   3.611   6.341  0.0569 -0.7681  0.8210
   14MOL   H128 3274   2.143   3.399   6.139 -1.0966  0.6563  1.7926
   14MOL   H129 3275   2.221   3.542   6.190 -0.4195 -1.3881  0.3796
   14MOL   H130 3276   1.944   3.542   5.894  1.2099 -1.4731 -0.1902
   14MOL   H131 3277   1.823   3.568   6.019 -0.4518 -0.2500  0.7622
   14MOL   H132 3278   1.905   3.422   6.001  0.1537 -0.1993 -1.8011
   14MOL   H133 3279   2.004   3.592   6.427 -1.1184  0.4576  0.6520
   14MOL   C134 3280   2.048   3.736   6.091  0.1668 -0.5247  0.4519
   14MOL   C135 3281   1.942   3.852   6.091  0.1093 -0.2603 -0.1885
   14MOL   C136 3282   1.888   3.881   5.947  0.2581 -0.0133  0.4661
   14MOL   C137 3283   1.834   3.835   6.193  0.1957  0.0619 -0.6609
   14MOL   O138 3284   1.852   3.858   6.314  0.6644 -0.0793  0.7315
   14MOL   O139 3285   1.722   3.774   6.144 -0.0847 -0.5248  0.6728
   14MOL   H140 3286   2.124   3.765   6.164 -0.3508 -0.4858  0.9808
   14MOL   H141 3287   2.099   3.752   5.997  0.7627 -1.2078  0.6524
   14MOL   H142 3288   1.840   3.797   5.896 -1.6816  1.1179  0.3790
   14MOL   H143 3289   1.967   3.904   5.875 -0.2682  1.1265  0.2426
   14MOL   H144 3290   1.814   3.961   5.942  1.6078  1.1924 -1.6617
   14MOL   H145 3291   1.735   3.733   6.060  3.2474  2.5349 -0.4104
   14MOL   C146 3292   2.030   3.984   6.137  0.9862  0.6800  0.4751
   14MOL   C147 3293   1.999   4.137   6.107 -0.0547  0.9331  0.5602
   14MOL   C148 3294   2.040   4.172   5.961 -0.7003  0.1916  0.2978
   14MOL   C149 3295   1.848   4.171   6.141 -0.8352 -0.0526 -0.5294
   14MOL   O150 3296   1.789   4.137   6.251  0.2893  0.1581  0.3875
   14MOL   O151 3297   1.790   4.227   6.039  0.2739 -0.3627  0.2228
   14MOL   H152 3298   2.036   3.977   6.246  0.1001  0.5158  0.5136
   14MOL   H153 3299   2.135   3.971   6.109  0.2221 -1.6687 -1.4502
   14MOL   H154 3300   2.148   4.165   5.947 -0.7831 -1.0316  0.2411
   14MOL   H155 3301   2.017   4.276   5.937  0.1027 -0.1428 -2.1225
   14MOL   H156 3302   2.000   4.107   5.884  0.7247  0.7987 -1.0018
   14MOL   H157 3303   1.703   4.263   6.051  0.2317 -1.0858  2.3090
   14MOL   C158 3304   2.098   4.212   6.206  0.4851  0.4668  0.5414
   14MOL   C159 3305   2.128   4.370   6.204 -0.6543  0.2994  0.0634
   14MOL   C160 3306   2.236   4.388   6.094  0.6748  0.5404 -0.0202
   14MOL   C161 3307   2.009   4.458   6.177 -0.7814  0.0591  0.4322
   14MOL   O162 3308   2.007   4.530   6.073 -0.2853 -0.6980 -0.8653
   14MOL   O163 3309   1.917   4.454   6.271  0.4932 -0.4641 -0.1459
   14MOL   H164 3310   2.053   4.185   6.301 -1.8860  1.8500 -0.1455
   14MOL   H165 3311   2.191   4.156   6.212  0.8180  0.8376 -0.8384
   14MOL   H166 3312   2.204   4.354   5.995 -1.5860 -2.0795  1.5620
   14MOL   H167 3313   2.321   4.341   6.141 -0.4289  1.2279  2.7749
   14MOL   H168 3314   2.271   4.491   6.082  2.0017  0.2148  1.0355
   14MOL   H169 3315   1.840   4.490   6.230  0.2773 -2.1559 -1.2718
   14MOL   C170 3316   2.189   4.389   6.350  0.3419 -0.1964  0.1582
   14MOL   C171 3317   2.268   4.522   6.396  0.7792 -0.4302  0.7134
   14MOL   C172 3318   2.192   4.648   6.339 -0.8306 -0.4375  0.0557
   14MOL   C173 3319   2.252   4.534   6.551  0.0742  0.3731 -0.3280
   14MOL   O174 3320   2.200   4.627   6.614  0.5810  0.3671  0.0868
   14MOL   O175 3321   2.292   4.417   6.606  0.8844 -0.3793 -0.9985
   14MOL   H176 3322   2.096   4.378   6.406 -0.1307 -2.5186 -1.0481
   14MOL   H177 3323   2.249   4.303   6.380 -0.6782 -0.9328  0.1085
   14MOL   H178 3324   2.234   4.743   6.370 -0.6903  0.0890 -1.6910
   14MOL   H179 3325   2.089   4.652   6.377 -0.2119 -2.2935  2.0506
   14MOL   H180 3326   2.202   4.649   6.230  1.7988  1.6566  0.2646
   14MOL   H181 3327   2.290   4.416   6.701 -2.3367  0.5343 -1.0285
   14MOL   C182 3328   2.419   4.503   6.346  0.1915 -0.0947 -0.3561
   14MOL   C183 3329   2.540   4.556   6.423  0.6643  0.2974 -0.1596
   14MOL   C184 3330   2.519   4.704   6.441  0.3428 -0.4412 -0.2925
   14MOL   C185 3331   2.563   4.495   6.560  0.0032  0.5031 -0.0666
   14MOL   O186 3332   2.576   4.563   6.660 -0.2519 -0.2991 -0.4398
   14MOL   O187 3333   2.568   4.357   6.552  0.1661 -0.8820 -0.6684
   14MOL   H188 3334   2.434   4.399   6.318 -0.4217 -0.1734 -0.3846
   14MOL   H189 3335   2.425   4.563   6.255  0.6448 -1.2619 -1.0992
   14MOL   H190 3336   2.592   4.758   6.501  0.2960 -1.4604  0.6866
   14MOL   H191 3337   2.426   4.721   6.496  1.2751 -0.2630  1.2467
   14MOL   H192 3338   2.514   4.747   6.341  3.1759 -2.2332 -1.2494
   14MOL   H193 3339   2.591   4.329   6.639 -1.5109  0.9131  0.3896
   14MOL   C194 3340   2.673   4.516   6.350 -0.7985  0.2289  0.5997
   14MOL   C195 3341   2.804   4.612   6.347  0.1478 -0.2507  0.2888
   14MOL   C196 3342   2.914   4.530   6.272  0.2034 -0.0177  0.0248
   14MOL   C197 3343   2.779   4.749   6.267  0.3678  0.8413 -0.3934
   14MOL   O198 3344   2.735   4.851   6.324  0.5454 -0.2190  0.5233
   14MOL   O199 3345   2.816   4.749   6.138 -0.7617 -0.1046 -0.1431
   14MOL   H200 3346   2.693   4.410   6.358 -0.3534  0.1997 -0.8204
   14MOL   H201 3347   2.643   4.528   6.246 -2.2466 -1.4967  0.7976
   14MOL   H202 3348   2.875   4.489   6.178  2.0422 -1.4844 -0.1330
   14MOL   H203 3349   2.954   4.451   6.335  1.8310  0.1310 -0.7917
   14MOL   H204 3350   2.996   4.592   6.235 -0.9793  1.6183  0.1325
   14MOL   H205 3351   2.829   4.833   6.097 -0.7504 -0.0761 -0.0808
   14MOL   C206 3352   2.865   4.647   6.489 -0.0680 -0.2367  0.3238
   14MOL   C207 3353   3.013   4.688   6.532 -0.2650  0.0932 -0.9010
   14MOL   C208 3354   3.101   4.556   6.541  0.1252 -0.3335 -0.3753
   14MOL   C209 3355   3.069   4.778   6.421  0.8251 -0.6509  0.5416
   14MOL   O210 3356   3.028   4.893   6.400  0.6433 -0.5218 -0.3853
   14MOL   O211 3357   3.159   4.721   6.340 -0.0958  0.3510  0.4943
   14MOL   H212 3358   2.804   4.730   6.525 -0.3913 -0.4933  0.3710
   14MOL   H213 3359   2.839   4.559   6.549 -2.2483  0.7559  0.9049
   14MOL   H214 3360   3.074   4.489   6.623  2.3809  1.2691  1.7731
   14MOL   H215 3361   3.207   4.578   6.555  0.8189 -2.6678 -1.7806
   14MOL   H216 3362   3.098   4.498   6.449 -0.9145 -0.6535 -0.1462
   14MOL   H217 3363   3.180   4.787   6.276 -0.1045 -0.4487 -0.3433
   14MOL   C218 3364   3.008   4.758   6.677  1.3157  0.6109  0.2234
   14MOL   C219 3365   3.126   4.806   6.770 -0.6195 -0.1826 -0.2016
   14MOL   C220 3366   3.213   4.688   6.812 -0.3278 -0.2811  0.3864
   14MOL   C221 3367   3.204   4.910   6.684  0.1001 -0.8180 -0.1945
   14MOL   O222 3368   3.317   4.894   6.634 -0.4706  0.1318  0.5193
   14MOL   O223 3369   3.132   5.026   6.678 -0.7136  0.6602  0.6658
   14MOL   H224 3370   2.948   4.845   6.650  0.2797 -0.2534 -0.3182
   14MOL   H225 3371   2.950   4.685   6.735  3.4303 -0.4258  1.0731
   14MOL   H226 3372   3.270   4.716   6.901 -1.3451  0.4702  0.8106
   14MOL   H227 3373   3.294   4.667   6.742  1.1604 -1.1910  2.3072
   14MOL   H228 3374   3.163   4.593   6.831  0.5342 -0.1171  3.9515
   14MOL   H229 3375   3.170   5.098   6.630  1.6539  0.7406  2.4969
   14MOL   C230 3376   3.052   4.867   6.893 -0.2416  0.9186 -0.1874
   14MOL   C231 3377   3.139   4.921   7.013 -0.4983 -0.0584  0.1423
   14MOL   C232 3378   3.256   5.012   6.977  0.5415  0.5601  0.2902
   14MOL   C233 3379   3.050   4.985   7.116  0.8235 -0.1653  0.3695
   14MOL   O234 3380   3.027   5.105   7.120 -0.6473  1.1798  0.3078
   14MOL   O235 3381   2.995   4.898   7.207  0.3706 -0.0049  0.1993
   14MOL   H236 3382   2.986   4.949   6.866 -1.4288  0.1548  0.3380
   14MOL   H237 3383   2.986   4.789   6.932  0.0243  0.5292 -0.5164
   14MOL   H238 3384   3.294   5.056   7.069 -0.7100 -1.7668  1.9866
   14MOL   H239 3385   3.217   5.089   6.911  3.0293  1.0246 -0.6822
   14MOL   H240 3386   3.343   4.967   6.930  0.0096  0.7500 -0.9086
   14MOL   H241 3387   2.963   4.949   7.279  3.1969  0.2236  1.3728
   14MOL   H242 3388   3.179   4.837   7.069 -0.8169  0.8247  1.7283
   15MOL     C1 3389   2.566   7.228   6.199  0.6300  0.1929 -0.0527
   15MOL     C2 3390   2.524   7.206   6.055 -0.0815 -0.2718  0.8161
   15MOL     C3 3391   2.510   7.357   6.009 -0.0824  0.3693  0.6589
   15MOL     C4 3392   2.645   7.131   5.980  0.2726 -0.0964  0.2806
   15MOL     O5 3393   2.627   7.062   5.879  0.2850  0.1907 -0.3823
   15MOL     O6 3394   2.763   7.162   6.036 -0.4138 -0.4403 -0.2031
   15MOL     H7 3395   2.617   7.146   6.248  0.3514 -0.0906 -0.2356
   15MOL     H8 3396   2.478   7.251   6.258 -0.4675 -2.2251 -0.6988
   15MOL     H9 3397   2.465   7.370   5.911 -1.6183  0.6965  1.3919
   15MOL    H10 3398   2.606   7.408   6.004  1.0972 -1.4725  3.1187
   15MOL    H11 3399   2.449   7.400   6.089 -0.5722 -0.1034  0.5426
   15MOL    H12 3400   2.833   7.146   5.974 -1.0228  0.6666 -1.2036
   15MOL    H13 3401   2.640   7.308   6.214  0.4845  0.1884  0.6885
   15MOL    C14 3402   2.383   7.146   6.024  0.5633 -0.4660 -0.4088
   15MOL    C15 3403   2.320   7.005   6.072 -0.7875 -0.8263  0.4322
   15MOL    C16 3404   2.383   6.888   6.003 -0.2397  0.2044  0.0765
   15MOL    C17 3405   2.341   7.000   6.223  0.3387 -0.2143 -0.1607
   15MOL    O18 3406   2.261   7.056   6.297  0.4176 -0.1196  0.5666
   15MOL    O19 3407   2.454   6.932   6.265  0.1302 -0.4243  0.1391
   15MOL    H20 3408   2.308   7.223   6.043 -1.1607 -1.9062 -1.2239
   15MOL    H21 3409   2.381   7.147   5.915 -2.6754  3.8738 -0.4517
   15MOL    H22 3410   2.358   6.879   5.897 -0.0062 -3.4478  0.2622
   15MOL    H23 3411   2.343   6.802   6.057 -1.9766  1.3724  0.6874
   15MOL    H24 3412   2.490   6.878   6.019 -0.5338 -1.0854  1.3430
   15MOL    H25 3413   2.458   6.952   6.357  0.2661 -1.0398  0.2739
   15MOL    C26 3414   2.166   7.012   6.028 -1.1180 -0.2508  0.7342
   15MOL    C27 3415   2.062   6.896   6.031 -0.1357 -0.0677 -0.0897
   15MOL    C28 3416   1.918   6.960   6.025 -0.0045 -1.4743  0.3247
   15MOL    C29 3417   2.068   6.810   5.904 -0.5796  0.2194 -0.0158
   15MOL    O30 3418   2.011   6.849   5.803  0.4425  0.4066 -0.6320
   15MOL    O31 3419   2.143   6.703   5.911 -0.5615  0.0156  0.2951
   15MOL    H32 3420   2.117   7.095   6.078  0.5682  2.3134 -1.7166
   15MOL    H33 3421   2.169   7.048   5.925  0.3827  2.5544  1.7000
   15MOL    H34 3422   1.836   6.889   6.014 -0.0071 -1.4588  0.2430
   15MOL    H35 3423   1.914   7.026   5.938  2.5152  0.7571  1.8387
   15MOL    H36 3424   1.907   7.035   6.104  0.6485 -0.7687 -0.2372
   15MOL    H37 3425   2.116   6.644   5.841  0.8838 -2.7907  2.0001
   15MOL    C38 3426   2.069   6.807   6.164  0.2855  0.1772 -0.3646
   15MOL    C39 3427   1.959   6.712   6.228  0.2434 -0.4491 -0.3909
   15MOL    C40 3428   1.866   6.800   6.307  0.3034  0.3277  0.0668
   15MOL    C41 3429   1.885   6.627   6.115 -0.2696 -0.4006 -0.9068
   15MOL    O42 3430   1.937   6.550   6.036  0.2271  0.9137 -0.1422
   15MOL    O43 3431   1.753   6.657   6.117 -0.7047  0.0712  0.0119
   15MOL    H44 3432   2.168   6.763   6.166  0.0658 -0.2666  1.3950
   15MOL    H45 3433   2.104   6.878   6.239  3.9129  0.0454 -1.8365
   15MOL    H46 3434   1.816   6.872   6.241 -2.5028 -1.9391 -0.3768
   15MOL    H47 3435   1.926   6.861   6.375 -1.7973  2.2824  0.2093
   15MOL    H48 3436   1.792   6.756   6.374  1.7052 -1.2385  0.6152
   15MOL    H49 3437   1.729   6.724   6.179  0.2409  0.9912 -0.5835
   15MOL    C50 3438   2.053   6.617   6.322  0.6441 -0.5699  0.7948
   15MOL    C51 3439   1.993   6.522   6.429  0.2689 -0.3616 -0.3117
   15MOL    C52 3440   1.983   6.610   6.554 -0.4936 -0.2442 -0.4382
   15MOL    C53 3441   1.856   6.468   6.377  0.0630  0.1456  0.2357
   15MOL    O54 3442   1.748   6.514   6.418 -0.2393 -0.2794  0.0349
   15MOL    O55 3443   1.870   6.374   6.280 -0.7577 -1.0216  0.0800
   15MOL    H56 3444   2.084   6.554   6.239 -1.6515 -2.1047  1.0628
   15MOL    H57 3445   2.134   6.677   6.363  3.4360 -1.6218 -2.9408
   15MOL    H58 3446   1.921   6.695   6.526 -0.9281  0.2128  1.7930
   15MOL    H59 3447   2.068   6.620   6.623  1.8859  0.3149 -3.3612
   15MOL    H60 3448   1.918   6.544   6.612 -2.6949  1.4616 -0.9408
   15MOL    H61 3449   1.787   6.342   6.247 -0.8657 -0.0880 -0.5713
   15MOL    C62 3450   2.104   6.415   6.461  0.3567  0.2178  0.3734
   15MOL    C63 3451   2.093   6.307   6.571  0.0431  0.4476 -0.5187
   15MOL    C64 3452   2.236   6.244   6.571 -0.2703  0.1751 -0.0980
   15MOL    C65 3453   2.088   6.354   6.721 -0.4357 -0.0898 -0.8489
   15MOL    O66 3454   1.984   6.338   6.784 -0.3715 -0.4676 -0.3355
   15MOL    O67 3455   2.199   6.418   6.769  0.5382 -0.4729  0.4723
   15MOL    H68 3456   2.123   6.366   6.365  1.0458  0.2777  0.4773
   15MOL    H69 3457   2.194   6.470   6.487  1.3091 -1.6120  1.0027
   15MOL    H70 3458   2.249   6.175   6.489  1.0712  1.4653 -1.0044
   15MOL    H71 3459   2.270   6.184   6.655 -0.6742 -0.0257 -0.0807
   15MOL    H72 3460   2.317   6.318   6.566  0.3270 -0.5021 -0.4919
   15MOL    H73 3461   2.206   6.451   6.857  0.7835  1.0875 -0.1226
   15MOL    C74 3462   1.979   6.199   6.531  0.3503  0.2123 -0.1673
   15MOL    C75 3463   1.967   6.052   6.592 -0.1420 -0.2212  0.1842
   15MOL    C76 3464   1.859   5.982   6.510 -0.2391 -0.1889 -0.2096
   15MOL    C77 3465   2.103   5.969   6.577  0.1337 -0.2833 -0.1358
   15MOL    O78 3466   2.186   5.942   6.665  0.2144  0.6282 -0.0049
   15MOL    O79 3467   2.126   5.944   6.442  0.3485 -0.1042  0.3856
   15MOL    H80 3468   1.879   6.241   6.530 -0.4707 -1.6856 -0.0986
   15MOL    H81 3469   1.983   6.187   6.423 -1.3509 -0.7668 -0.1308
   15MOL    H82 3470   1.767   6.034   6.540  0.8647  1.2018  0.8128
   15MOL    H83 3471   1.858   5.878   6.541 -1.9476  0.2415  1.2500
   15MOL    H84 3472   1.877   5.979   6.402 -3.2610 -1.3730 -0.7329
   15MOL    H85 3473   2.057   5.973   6.385 -0.4564 -0.9474  0.9144
   15MOL    C86 3474   1.929   6.051   6.738  0.0966 -0.2401 -0.1141
   15MOL    C87 3475   1.862   5.929   6.817  0.5496  0.4590 -0.1595
   15MOL    C88 3476   1.937   5.795   6.798  0.8562 -0.3676 -0.2467
   15MOL    C89 3477   1.878   5.986   6.965 -0.2963 -0.5386  0.8332
   15MOL    O90 3478   1.922   5.921   7.061  0.6015 -0.0327 -1.1912
   15MOL    O91 3479   1.831   6.111   6.980 -0.0149  0.3323  0.3260
   15MOL    H92 3480   2.017   6.086   6.792 -0.8630  0.9182  0.7233
   15MOL    H93 3481   1.851   6.126   6.749 -2.1913 -2.4134 -1.0194
   15MOL    H94 3482   2.044   5.813   6.808  1.0062 -1.2097 -0.2779
   15MOL    H95 3483   1.926   5.742   6.703 -0.6245  0.8210 -0.7648
   15MOL    H96 3484   1.911   5.710   6.860 -3.1109  0.6815 -0.3562
   15MOL    H97 3485   1.807   6.135   7.068 -0.9820  2.0687 -0.4050
   15MOL    C98 3486   1.710   5.911   6.781 -0.0910  0.1604  0.0997
   15MOL    C99 3487   1.601   5.843   6.873 -0.8902 -0.3234 -0.2452
   15MOL   C100 3488   1.483   5.819   6.783  0.0755  0.2326  0.5585
   15MOL   C101 3489   1.644   5.696   6.910 -0.0534  0.6584  0.5163
   15MOL   O102 3490   1.629   5.595   6.833  0.1311  0.4402  0.9402
   15MOL   O103 3491   1.721   5.696   7.022  0.4638 -0.4084  0.1050
   15MOL   H104 3492   1.676   6.014   6.769 -2.3135 -0.5164  0.3911
   15MOL   H105 3493   1.706   5.859   6.685  0.5847  0.5728 -0.1506
   15MOL   H106 3494   1.509   5.774   6.688  1.9115  1.2897  0.5457
   15MOL   H107 3495   1.440   5.917   6.760  2.6491  1.4384  0.7888
   15MOL   H108 3496   1.408   5.762   6.838  0.1828 -1.7344 -1.2946
   15MOL   H109 3497   1.762   5.612   7.027 -0.1212 -0.7936 -1.4492
   15MOL   C110 3498   1.560   5.937   6.992  0.7651  0.4519 -0.6673
   15MOL   C111 3499   1.419   5.932   7.068 -0.1458 -0.5396 -0.2114
   15MOL   C112 3500   1.295   5.962   6.974  0.0798  0.0645  0.6296
   15MOL   C113 3501   1.403   5.784   7.130 -0.1735 -0.3532 -0.4131
   15MOL   O114 3502   1.294   5.732   7.146 -0.4409 -0.1485  0.1157
   15MOL   O115 3503   1.513   5.723   7.175  0.2543  0.7652  0.2595
   15MOL   H116 3504   1.634   5.926   7.072 -2.1134 -2.2891  1.7313
   15MOL   H117 3505   1.574   6.043   6.971  0.4008  0.3171 -1.6206
   15MOL   H118 3506   1.250   5.871   6.933  1.1321  0.8142 -2.2948
   15MOL   H119 3507   1.333   6.027   6.895  0.1856 -1.0801 -0.2857
   15MOL   H120 3508   1.220   6.011   7.037 -1.3594  0.9850 -1.7357
   15MOL   H121 3509   1.597   5.760   7.152 -1.2871  2.7992 -2.2708
   15MOL   C122 3510   1.434   6.046   7.183  0.1966 -0.6753 -0.3849
   15MOL   C123 3511   1.354   6.045   7.319  0.9265  1.0633  0.5474
   15MOL   C124 3512   1.204   6.041   7.288 -0.8214 -0.2690 -0.1759
   15MOL   C125 3513   1.389   5.926   7.411  0.1560 -0.3615  0.2516
   15MOL   O126 3514   1.306   5.858   7.473  0.0754  0.4274 -0.4131
   15MOL   O127 3515   1.527   5.910   7.427 -0.0509 -0.8830  0.1335
   15MOL   H128 3516   1.540   6.054   7.206  0.0659 -1.5329  0.5316
   15MOL   H129 3517   1.405   6.138   7.132 -0.6974 -0.9304 -0.3596
   15MOL   H130 3518   1.192   6.128   7.224 -1.8745  0.1292  0.5505
   15MOL   H131 3519   1.136   6.052   7.372  0.3324  3.2237  0.3895
   15MOL   H132 3520   1.178   5.948   7.237 -0.7656 -0.2319 -0.2718
   15MOL   H133 3521   1.550   5.839   7.485  0.7071  0.8040  1.9365
   15MOL   C134 3522   1.395   6.171   7.402  0.5634 -0.1635 -0.0627
   15MOL   C135 3523   1.347   6.327   7.384  0.4936  0.5109  0.1007
   15MOL   C136 3524   1.427   6.413   7.485  0.4223  0.3274  0.5588
   15MOL   C137 3525   1.392   6.365   7.236 -0.3027  0.3843 -0.2653
   15MOL   O138 3526   1.321   6.378   7.134 -0.1843  0.2549 -0.4510
   15MOL   O139 3527   1.530   6.380   7.224  0.0022  0.4433  0.9990
   15MOL   H140 3528   1.369   6.152   7.506  1.2602  1.3248  0.4013
   15MOL   H141 3529   1.504   6.170   7.401  0.5573 -1.1765 -2.0606
   15MOL   H142 3530   1.392   6.415   7.589  1.8268  1.8511  1.0274
   15MOL   H143 3531   1.426   6.517   7.452 -0.6403  0.7852  1.9552
   15MOL   H144 3532   1.534   6.396   7.480  0.4012  0.6968 -1.4089
   15MOL   H145 3533   1.561   6.378   7.134  2.3742 -0.4504  1.7855
   15MOL   C146 3534   1.191   6.345   7.406 -0.3048  0.1050 -0.4445
   15MOL   C147 3535   1.111   6.477   7.450  0.0023  0.1139  0.2312
   15MOL   C148 3536   1.130   6.499   7.604 -0.3602 -0.1319  0.8634
   15MOL   C149 3537   1.149   6.610   7.383  0.7463  0.8587 -0.0101
   15MOL   O150 3538   1.240   6.624   7.298 -0.1576  0.4289 -0.1786
   15MOL   O151 3539   1.072   6.714   7.431  0.3555 -0.4192 -0.4001
   15MOL   H152 3540   1.139   6.319   7.314 -2.5048  1.1670  0.4586
   15MOL   H153 3541   1.157   6.269   7.476  1.1940 -0.0320  0.1645
   15MOL   H154 3542   1.227   6.539   7.634 -1.0134 -0.2092  3.1039
   15MOL   H155 3543   1.117   6.405   7.658 -1.4507 -0.3226  0.2854
   15MOL   H156 3544   1.057   6.567   7.648 -0.2997  1.1113 -0.8705
   15MOL   H157 3545   1.109   6.790   7.390  0.9256 -1.5340 -2.0378
   15MOL   C158 3546   0.954   6.457   7.426 -0.3489 -0.2441  1.0192
   15MOL   C159 3547   0.882   6.442   7.293  0.2304 -0.3311  0.3060
   15MOL   C160 3548   0.855   6.289   7.288 -0.0039 -0.3587  0.2518
   15MOL   C161 3549   0.752   6.525   7.307 -0.2815  0.6106 -0.8661
   15MOL   O162 3550   0.638   6.481   7.337 -0.6013 -0.0279  0.6624
   15MOL   O163 3551   0.786   6.655   7.304 -0.2596 -0.0224  0.3112
   15MOL   H164 3552   0.927   6.384   7.503 -0.7400  0.3144  1.4160
   15MOL   H165 3553   0.909   6.541   7.479  2.6580  0.0762  3.2376
   15MOL   H166 3554   0.806   6.255   7.197 -2.1493  0.7274  0.9726
   15MOL   H167 3555   0.783   6.259   7.365 -1.6861 -2.0734 -1.9355
   15MOL   H168 3556   0.941   6.222   7.298 -0.1813 -0.6135  0.0824
   15MOL   H169 3557   0.872   6.649   7.267  0.1607 -0.5765  1.3509
   15MOL   C170 3558   0.960   6.474   7.161  0.0086  0.1639 -0.7533
   15MOL   C171 3559   0.913   6.463   7.010 -0.2903  0.0057  0.6591
   15MOL   C172 3560   0.938   6.317   6.964  0.4742  0.1981  0.2327
   15MOL   C173 3561   0.766   6.500   6.968  0.5661 -1.0388  0.4161
   15MOL   O174 3562   0.694   6.442   6.892 -0.0579  0.0370 -0.3922
   15MOL   O175 3563   0.726   6.612   7.032 -0.5961 -0.1381 -0.2927
   15MOL   H176 3564   0.977   6.582   7.167  0.3719  0.1074 -0.7947
   15MOL   H177 3565   1.053   6.419   7.153 -1.2557 -2.7132  2.5746
   15MOL   H178 3566   1.039   6.281   6.986 -0.3596 -3.6203 -1.7525
   15MOL   H179 3567   0.932   6.295   6.858 -2.8435 -1.8927  0.7990
   15MOL   H180 3568   0.861   6.252   7.004 -0.0073  0.2972 -0.5222
   15MOL   H181 3569   0.635   6.632   7.017 -0.9458 -1.7252 -0.3310
   15MOL   C182 3570   1.013   6.557   6.923  0.2491 -0.1955  0.3442
   15MOL   C183 3571   0.998   6.716   6.892  0.3541 -0.4913  0.2327
   15MOL   C184 3572   1.139   6.747   6.830 -0.3979 -0.0135  0.1062
   15MOL   C185 3573   0.896   6.742   6.773  0.0275 -0.0596  0.1901
   15MOL   O186 3574   0.790   6.806   6.780 -0.0684 -0.0598  0.1833
   15MOL   O187 3575   0.941   6.674   6.662 -0.4348 -0.0473 -0.2458
   15MOL   H188 3576   1.106   6.542   6.979  0.4327 -2.9290 -0.6346
   15MOL   H189 3577   1.036   6.499   6.834  0.4026 -0.1726  0.3690
   15MOL   H190 3578   1.146   6.835   6.766 -0.0602  0.3619  0.6588
   15MOL   H191 3579   1.180   6.668   6.767  0.2210  0.2729  0.1387
   15MOL   H192 3580   1.216   6.767   6.904  0.6559  2.4288 -1.5790
   15MOL   H193 3581   0.887   6.697   6.588 -1.9426 -0.1782  0.7973
   15MOL   C194 3582   0.982   6.806   7.020  0.2530 -0.3305 -0.1367
   15MOL   C195 3583   0.963   6.964   7.032 -0.0443  0.5311 -0.9953
   15MOL   C196 3584   1.066   7.037   6.944 -0.1949  0.0750  0.3465
   15MOL   C197 3585   0.822   7.004   6.990  0.5608 -0.1740 -0.1424
   15MOL   O198 3586   0.798   7.093   6.905  0.6892 -0.0164  0.1165
   15MOL   O199 3587   0.735   6.927   7.059  0.4362  0.4700  0.6839
   15MOL   H200 3588   0.912   6.761   7.091 -0.2263  1.1485  0.3381
   15MOL   H201 3589   1.077   6.787   7.070  0.3797  0.6831  0.0089
   15MOL   H202 3590   1.060   7.008   6.840 -2.6203 -0.6268  0.6536
   15MOL   H203 3591   1.169   7.020   6.976  0.7630  3.0212 -0.9796
   15MOL   H204 3592   1.051   7.145   6.947 -1.5066 -0.1061  0.8250
   15MOL   H205 3593   0.651   6.928   7.015  0.5396 -0.2099  0.4757
   15MOL   C206 3594   0.984   6.975   7.189  0.4003 -0.0220  0.3867
   15MOL   C207 3595   1.004   7.111   7.273  0.7754  0.1921  0.1299
   15MOL   C208 3596   0.906   7.216   7.218 -0.0172 -0.6149 -0.4267
   15MOL   C209 3597   0.975   7.072   7.424  0.4540 -0.2518 -0.1908
   15MOL   O210 3598   1.061   7.014   7.486  0.3901  0.7351 -0.0298
   15MOL   O211 3599   0.865   7.128   7.473  0.0648  0.2266  0.0032
   15MOL   H212 3600   0.898   6.918   7.224 -0.0779  0.7605  0.4826
   15MOL   H213 3601   1.072   6.920   7.224 -1.1538 -2.6131  0.3545
   15MOL   H214 3602   0.812   7.161   7.225 -1.4642  1.8918  0.3266
   15MOL   H215 3603   0.933   7.250   7.118  1.1757 -1.4987 -0.4138
   15MOL   H216 3604   0.886   7.298   7.286 -0.7272  0.0300 -1.3934
   15MOL   H217 3605   0.844   7.099   7.560  1.2016 -0.5707  0.0301
   15MOL   C218 3606   1.157   7.155   7.260  0.0352  0.0350  0.2322
   15MOL   C219 3607   1.213   7.290   7.314 -0.1131 -0.2151  0.0019
   15MOL   C220 3608   1.161   7.313   7.455  0.4310  0.5473  0.3252
   15MOL   C221 3609   1.373   7.286   7.315  0.8505  0.4406  0.3289
   15MOL   O222 3610   1.442   7.301   7.416  0.3158 -0.2156 -0.3298
   15MOL   O223 3611   1.427   7.273   7.189 -0.4834 -0.1336 -0.7309
   15MOL   H224 3612   1.225   7.082   7.304 -1.1951 -1.4413 -0.2708
   15MOL   H225 3613   1.188   7.152   7.155  1.4696  0.0283  0.6458
   15MOL   H226 3614   1.052   7.316   7.463  0.5896 -1.1602  3.8053
   15MOL   H227 3615   1.198   7.400   7.509  2.2451  0.1174 -0.1897
   15MOL   H228 3616   1.195   7.227   7.512  0.1517  0.2304  0.0164
   15MOL   H229 3617   1.519   7.294   7.198 -0.7510  0.5211  0.6882
   15MOL   C230 3618   1.162   7.419   7.227 -0.2983 -0.0411 -0.3726
   15MOL   C231 3619   1.221   7.559   7.256  0.3306  0.2767 -0.0121
   15MOL   C232 3620   1.365   7.583   7.216  0.3281  0.2632  0.7823
   15MOL   C233 3621   1.131   7.668   7.196 -0.0084  0.4794  0.9902
   15MOL   O234 3622   1.052   7.633   7.105 -0.5012  0.1302 -0.5476
   15MOL   O235 3623   1.151   0.027   7.237  0.2442  0.5393 -0.0113
   15MOL   H236 3624   1.183   7.410   7.120  1.2715 -1.7467  0.0561
   15MOL   H237 3625   1.053   7.419   7.233 -0.2174  0.0832  1.1486
   15MOL   H238 3626   1.387   7.690   7.203  0.8990  0.0661  0.0449
   15MOL   H239 3627   1.382   7.532   7.121 -1.8386  1.0936 -0.0722
   15MOL   H240 3628   1.436   7.538   7.285  2.5054  0.3614 -1.3082
   15MOL   H241 3629   1.220   0.037   7.302 -0.8833 -1.0380  1.4953
   15MOL   H242 3630   1.224   7.581   7.363  1.2047  2.3517 -0.4441
   16MOL     C1 3631   3.350   4.304   6.767 -0.5371  0.2439 -0.3339
   16MOL     C2 3632   3.430   4.315   6.900 -0.6638 -0.2403  0.2897
   16MOL     C3 3633   3.412   4.461   6.944 -0.0099 -0.4626 -0.2008
   16MOL     C4 3634   3.356   4.224   7.013 -0.3553  0.1620 -0.1697
   16MOL     O5 3635   3.353   4.255   7.132 -0.0152 -0.1949  0.6783
   16MOL     O6 3636   3.287   4.114   6.967  0.0161  0.0694  0.5507
   16MOL     H7 3637   3.387   4.355   6.678 -0.3406  0.8718  0.1124
   16MOL     H8 3638   3.251   4.345   6.790 -1.3466 -2.5761  1.4542
   16MOL     H9 3639   3.449   4.485   7.043  1.4480 -0.5785 -0.7171
   16MOL    H10 3640   3.303   4.474   6.941  0.1367  0.7365 -0.6980
   16MOL    H11 3641   3.440   4.533   6.867  2.2968 -1.4853 -0.3514
   16MOL    H12 3642   3.225   4.067   7.020  0.0355  1.7339  2.0615
   16MOL    H13 3643   3.317   4.208   6.725  1.0925  0.7649 -2.9426
   16MOL    C14 3644   3.579   4.287   6.899  0.2326  0.3696 -0.5214
   16MOL    C15 3645   3.652   4.150   6.860 -0.1834  0.7432 -0.5037
   16MOL    C16 3646   3.609   4.101   6.711 -0.9743  0.2287  0.9541
   16MOL    C17 3647   3.807   4.186   6.850  0.1883  0.1941 -0.3258
   16MOL    O18 3648   3.877   4.180   6.750  0.2011 -0.4380  0.2228
   16MOL    O19 3649   3.848   4.229   6.972 -0.2824  0.3250 -0.3511
   16MOL    H20 3650   3.625   4.369   6.845 -0.9045  0.9730 -0.5926
   16MOL    H21 3651   3.603   4.297   7.004 -0.0625 -2.0819 -0.1906
   16MOL    H22 3652   3.664   4.012   6.681  0.4874  1.1630  0.7454
   16MOL    H23 3653   3.639   4.177   6.638  1.6804  0.7994  2.5459
   16MOL    H24 3654   3.502   4.085   6.703 -1.1043  1.1400  0.7533
   16MOL    H25 3655   3.935   4.266   6.973 -1.0135  2.1392  1.7469
   16MOL    C26 3656   3.627   4.037   6.969 -0.2579 -0.4168 -0.5757
   16MOL    C27 3657   3.678   3.889   6.963 -0.0433  0.0564 -0.1706
   16MOL    C28 3658   3.820   3.880   6.909 -0.0841  0.4965 -0.0322
   16MOL    C29 3659   3.693   3.846   7.104 -0.2495  0.2080 -0.5795
   16MOL    O30 3660   3.803   3.819   7.157  0.6658  0.1098  0.1655
   16MOL    O31 3661   3.575   3.847   7.175 -0.4448  0.7090 -0.8416
   16MOL    H32 3662   3.649   4.094   7.059 -0.3299 -0.6389 -0.4170
   16MOL    H33 3663   3.519   4.022   6.964 -0.4896  1.3745 -1.0677
   16MOL    H34 3664   3.835   3.922   6.810  0.0331 -1.9379 -1.0988
   16MOL    H35 3665   3.863   3.781   6.896 -1.0960 -0.0514  0.7186
   16MOL    H36 3666   3.878   3.947   6.972 -0.8240  2.2109 -1.1480
   16MOL    H37 3667   3.591   3.839   7.268 -1.6995 -1.6640 -0.7761
   16MOL    C38 3668   3.582   3.792   6.881 -0.2177 -0.5199  0.3064
   16MOL    C39 3669   3.612   3.649   6.818  0.0380  0.0117 -0.6055
   16MOL    C40 3670   3.706   3.656   6.693  0.3116 -0.1683  0.0472
   16MOL    C41 3671   3.667   3.558   6.929 -0.5347  0.9246 -0.1080
   16MOL    O42 3672   3.611   3.544   7.037 -0.4242  0.2352 -0.2002
   16MOL    O43 3673   3.783   3.494   6.896  0.2446 -0.3078 -0.2732
   16MOL    H44 3674   3.495   3.772   6.943 -0.6284  0.0129 -0.0917
   16MOL    H45 3675   3.546   3.858   6.803  1.5908 -0.1795 -0.2770
   16MOL    H46 3676   3.727   3.556   6.658 -4.1451 -1.0714 -0.3262
   16MOL    H47 3677   3.808   3.682   6.719  0.2574 -0.4326  0.5374
   16MOL    H48 3678   3.669   3.717   6.610  1.0095 -0.4232 -0.4479
   16MOL    H49 3679   3.811   3.423   6.951  0.6088 -0.3163 -0.4701
   16MOL    C50 3680   3.473   3.594   6.758  0.0653  0.9853  0.2500
   16MOL    C51 3681   3.433   3.435   6.760  0.1324 -0.0029  0.7558
   16MOL    C52 3682   3.551   3.353   6.699  0.5229 -0.1302  0.7562
   16MOL    C53 3683   3.399   3.390   6.902  0.1953 -0.2159 -0.3181
   16MOL    O54 3684   3.448   3.291   6.958 -0.0040 -0.2678 -0.4877
   16MOL    O55 3685   3.319   3.477   6.963  0.5047  0.0118  0.3587
   16MOL    H56 3686   3.382   3.639   6.799 -0.8344 -0.1111 -0.5213
   16MOL    H57 3687   3.484   3.627   6.655 -0.4453 -0.8565 -0.4044
   16MOL    H58 3688   3.551   3.245   6.709 -1.0167 -0.5936 -3.0971
   16MOL    H59 3689   3.650   3.367   6.741  0.4236  0.6601  0.7327
   16MOL    H60 3690   3.563   3.363   6.591 -0.2843  0.3268  0.6962
   16MOL    H61 3691   3.273   3.450   7.041 -2.0422  1.0418 -0.7520
   16MOL    C62 3692   3.293   3.418   6.683 -0.0808 -0.0966  0.2488
   16MOL    C63 3693   3.224   3.276   6.665 -0.3625 -0.1868 -0.1184
   16MOL    C64 3694   3.132   3.289   6.542  0.6042  0.0064  0.1810
   16MOL    C65 3695   3.319   3.157   6.632  0.3324  0.2722  0.4181
   16MOL    O66 3696   3.360   3.073   6.712 -0.2586 -0.1652  0.4465
   16MOL    O67 3697   3.353   3.152   6.502 -0.1986  0.0037  0.4582
   16MOL    H68 3698   3.225   3.494   6.721  0.2734  0.0821  0.5225
   16MOL    H69 3699   3.311   3.461   6.584  0.9948 -1.2189 -0.0648
   16MOL    H70 3700   3.187   3.327   6.455  0.4424 -1.0934 -0.4171
   16MOL    H71 3701   3.038   3.343   6.534 -1.1798 -3.1958 -1.3159
   16MOL    H72 3702   3.109   3.190   6.502  0.4828 -0.2525  0.8975
   16MOL    H73 3703   3.414   3.081   6.487 -0.3366 -0.2451  1.0734
   16MOL    C74 3704   3.130   3.248   6.782 -0.2713 -0.9179  0.0511
   16MOL    C75 3705   3.030   3.122   6.793  0.0031  0.3095 -0.0325
   16MOL    C76 3706   2.897   3.176   6.833  0.4394 -0.0427 -0.0154
   16MOL    C77 3707   3.002   3.037   6.664  0.3265 -0.2539  0.9235
   16MOL    O78 3708   3.090   2.975   6.605  0.5074 -0.3898 -0.2230
   16MOL    O79 3709   2.869   3.044   6.619 -0.3789 -0.3230  0.0271
   16MOL    H80 3710   3.187   3.234   6.874 -0.3840  0.2779  0.3066
   16MOL    H81 3711   3.081   3.341   6.811  0.8644 -0.9294  2.1370
   16MOL    H82 3712   2.858   3.241   6.754  1.1794 -0.1435 -0.4618
   16MOL    H83 3713   2.907   3.243   6.919  1.1421  2.7721 -2.2164
   16MOL    H84 3714   2.824   3.095   6.839 -1.0849  1.1852 -1.2383
   16MOL    H85 3715   2.847   2.991   6.544 -0.5961  1.0922 -0.9333
   16MOL    C86 3716   3.086   3.040   6.915 -0.0812  0.6551 -0.4429
   16MOL    C87 3717   3.047   2.888   6.957  0.1953  0.0282  0.4382
   16MOL    C88 3718   2.897   2.872   6.947 -0.4510  0.9570 -0.0762
   16MOL    C89 3719   3.118   2.784   6.863  0.0369 -0.4176  0.0800
   16MOL    O90 3720   3.212   2.820   6.791  1.0579  0.0550 -0.3047
   16MOL    O91 3721   3.063   2.658   6.851  0.3345  0.0302  0.1839
   16MOL    H92 3722   3.195   3.035   6.927 -0.2980 -1.0739  1.2421
   16MOL    H93 3723   3.046   3.089   7.004 -0.1359  0.1795 -0.2021
   16MOL    H94 3724   2.836   2.953   6.986 -2.0803  0.7206 -2.0327
   16MOL    H95 3725   2.860   2.782   6.997  0.9241  0.2059 -0.4024
   16MOL    H96 3726   2.861   2.856   6.845 -0.2759 -1.5243  0.2110
   16MOL    H97 3727   3.094   2.616   6.772  0.5575  0.2910  0.1306
   16MOL    C98 3728   3.084   2.865   7.114  0.1963  0.1095  0.2713
   16MOL    C99 3729   3.165   2.737   7.164  0.8374 -0.0301  0.2456
   16MOL   C100 3730   3.174   2.755   7.317  0.3695  0.2292  0.4414
   16MOL   C101 3731   3.086   2.606   7.149 -0.5651 -0.8858  0.0627
   16MOL   O102 3732   2.969   2.601   7.122  0.5192 -0.3139 -0.3649
   16MOL   O103 3733   3.161   2.493   7.170 -0.0528  0.1439 -0.0091
   16MOL   H104 3734   3.148   2.946   7.149  0.0638 -0.5561  2.1329
   16MOL   H105 3735   2.995   2.882   7.175  0.6884  1.2349  0.6860
   16MOL   H106 3736   3.237   2.677   7.360 -0.9084 -0.4093  1.1839
   16MOL   H107 3737   3.078   2.755   7.369 -0.1600 -1.1633 -0.5201
   16MOL   H108 3738   3.228   2.848   7.338 -2.2052  2.2320 -1.4895
   16MOL   H109 3739   3.115   2.413   7.148 -1.7779  0.7011  1.5085
   16MOL   C110 3740   3.307   2.736   7.098  0.2154 -0.3483  0.1805
   16MOL   C111 3741   3.450   2.701   7.165 -0.1785 -0.1192  0.3833
   16MOL   C112 3742   3.487   2.816   7.268 -0.1461  0.5183 -0.0881
   16MOL   C113 3743   3.454   2.559   7.232  0.2000 -0.0736  0.7402
   16MOL   O114 3744   3.481   2.546   7.351 -0.4594  0.8729  0.4277
   16MOL   O115 3745   3.446   2.458   7.139 -0.3875  0.8305  0.3693
   16MOL   H116 3746   3.303   2.661   7.018 -0.6870 -0.6942  0.5473
   16MOL   H117 3747   3.327   2.828   7.043 -1.6034  0.7993  1.3868
   16MOL   H118 3748   3.468   2.912   7.219 -1.7382 -0.2015 -0.9047
   16MOL   H119 3749   3.594   2.828   7.286 -0.2790  1.6167  0.0032
   16MOL   H120 3750   3.439   2.810   7.366  0.9978  1.3191  0.5379
   16MOL   H121 3751   3.482   2.392   7.196  0.7129  0.6087 -0.5733
   16MOL   C122 3752   3.571   2.691   7.060 -0.0988  0.1796  0.2198
   16MOL   C123 3753   3.652   2.809   6.982  0.3782  0.1958 -0.2358
   16MOL   C124 3754   3.732   2.733   6.865  0.4486  0.4595  0.3784
   16MOL   C125 3755   3.554   2.923   6.934  0.1622  0.6631  0.3980
   16MOL   O126 3756   3.510   3.011   7.003  0.0558  0.4894  0.5305
   16MOL   O127 3757   3.516   2.900   6.808  0.4570 -0.4974 -0.3623
   16MOL   H128 3758   3.653   2.627   7.092 -0.6797  0.0430  1.4936
   16MOL   H129 3759   3.537   2.631   6.976  0.0397  1.9691 -1.1305
   16MOL   H130 3760   3.668   2.695   6.786 -2.6999 -1.8183  3.8500
   16MOL   H131 3761   3.788   2.646   6.899 -0.8812 -0.5970 -0.1011
   16MOL   H132 3762   3.805   2.802   6.824  0.5778  0.7846  1.1411
   16MOL   H133 3763   3.441   2.950   6.779 -0.0999 -0.0760  1.7033
   16MOL   C134 3764   3.755   2.874   7.077  0.2046  0.0416 -0.1771
   16MOL   C135 3765   3.883   2.965   7.047  0.9411  0.2256  0.2111
   16MOL   C136 3766   3.999   2.861   7.038 -0.2797  0.8146 -0.2177
   16MOL   C137 3767   3.884   3.043   6.914 -0.2793 -0.1480 -0.6257
   16MOL   O138 3768   3.782   3.087   6.868 -0.3091  0.3632  0.4296
   16MOL   O139 3769   4.005   3.075   6.871  0.2448  0.0984  0.1947
   16MOL   H140 3770   3.707   2.939   7.149 -1.3437 -0.5342 -0.6734
   16MOL   H141 3771   3.787   2.793   7.143 -2.5067 -1.5735 -0.7700
   16MOL   H142 3772   4.091   2.908   7.003  0.6608 -1.6567 -1.1948
   16MOL   H143 3773   3.982   2.777   6.970 -1.0644 -0.0498  1.0330
   16MOL   H144 3774   4.012   2.808   7.132  0.1996  0.7833 -0.3002
   16MOL   H145 3775   3.999   3.132   6.796  1.4548  2.2514  1.6929
   16MOL   C146 3776   3.922   3.049   7.174 -0.4248 -0.3067  0.2499
   16MOL   C147 3777   3.874   3.192   7.220  0.6918 -0.6742 -0.0476
   16MOL   C148 3778   3.950   3.294   7.135  0.1677 -0.7677  0.8319
   16MOL   C149 3779   3.718   3.208   7.212 -0.0723 -0.6228 -0.1559
   16MOL   O150 3780   3.638   3.181   7.305 -0.2089 -0.5331 -0.5527
   16MOL   O151 3781   3.683   3.260   7.089  0.1345 -0.5158  0.4246
   16MOL   H152 3782   3.910   2.983   7.260  0.2519 -0.2810  0.3643
   16MOL   H153 3783   4.030   3.060   7.165 -0.6662  2.2873 -0.0486
   16MOL   H154 3784   3.910   3.393   7.159  0.5151 -0.2846 -0.5533
   16MOL   H155 3785   3.941   3.278   7.027 -0.4217 -1.2719  0.9511
   16MOL   H156 3786   4.057   3.302   7.153  0.2896 -0.2422 -0.1029
   16MOL   H157 3787   3.593   3.263   7.063  0.5611 -1.2817 -1.2052
   16MOL   C158 3788   3.919   3.210   7.373  0.1767  0.4011  0.3031
   16MOL   C159 3789   3.928   3.346   7.458  0.2156  0.2161  0.6215
   16MOL   C160 3790   3.797   3.429   7.444  0.1197 -0.4418 -0.1691
   16MOL   C161 3791   3.942   3.294   7.602  0.6133  0.0852  0.4893
   16MOL   O162 3792   3.848   3.299   7.679 -0.5842  0.5737 -0.1660
   16MOL   O163 3793   4.055   3.221   7.625  0.5663 -0.3336  0.0303
   16MOL   H164 3794   3.860   3.139   7.431 -1.6712  2.6237  1.2493
   16MOL   H165 3795   4.019   3.167   7.380  0.1404  0.3195  0.3185
   16MOL   H166 3796   3.718   3.355   7.450  2.7637 -3.4683 -0.9732
   16MOL   H167 3797   3.790   3.477   7.346 -0.1157  0.9416  0.5034
   16MOL   H168 3798   3.781   3.508   7.518  2.1606 -0.5603  0.4350
   16MOL   H169 3799   4.047   3.166   7.702 -1.1405  0.4450  0.4402
   16MOL   C170 3800   4.057   3.434   7.421  0.1956  1.0101 -0.0802
   16MOL   C171 3801   4.102   3.571   7.491  0.0949 -0.0992  0.1905
   16MOL   C172 3802   4.230   3.604   7.408 -0.5206  0.2029  0.7062
   16MOL   C173 3803   4.001   3.688   7.461 -0.4118 -0.8975  0.1357
   16MOL   O174 3804   3.940   3.753   7.537 -0.1604  0.2050 -0.1517
   16MOL   O175 3805   3.976   3.695   7.326 -0.0859 -0.2656 -0.3932
   16MOL   H176 3806   4.144   3.368   7.425  0.0246  0.8561  1.4242
   16MOL   H177 3807   4.062   3.440   7.313  2.0948 -1.9828 -0.2342
   16MOL   H178 3808   4.263   3.708   7.413  3.9154 -0.9952 -1.2160
   16MOL   H179 3809   4.218   3.599   7.299 -0.7502 -0.1565  0.7504
   16MOL   H180 3810   4.310   3.534   7.429 -0.3503  0.2163  0.1299
   16MOL   H181 3811   3.912   3.758   7.297 -0.3696  0.0391  0.8758
   16MOL   C182 3812   4.132   3.546   7.643 -1.3421 -0.3337  0.2105
   16MOL   C183 3813   4.212   3.646   7.738 -0.1870 -0.3052 -0.7604
   16MOL   C184 3814   4.362   3.653   7.690 -0.0719 -0.4226 -0.3690
   16MOL   C185 3815   4.155   3.789   7.754  0.0787  0.0632  0.1762
   16MOL   O186 3816   4.214   3.888   7.711  0.1658  0.2022  0.2659
   16MOL   O187 3817   4.031   3.794   0.045  0.4061 -0.6021 -0.2586
   16MOL   H188 3818   4.035   3.522   7.686 -1.4233 -0.4375 -0.0282
   16MOL   H189 3819   4.195   3.458   7.631  1.7998  1.8447  0.1906
   16MOL   H190 3820   4.367   3.684   7.585  1.0020  0.2911 -0.1055
   16MOL   H191 3821   4.405   3.554   7.697  1.7791  0.4368  0.6010
   16MOL   H192 3822   4.421   3.728   7.742  2.7186 -2.0303 -1.1599
   16MOL   H193 3823   4.009   3.885   0.036  1.2383 -0.4236 -0.5760
   16MOL   C194 3824   4.211   3.575   0.107  0.0404  0.6566 -0.1382
   16MOL   C195 3825   4.260   3.642   0.247 -0.3785 -0.4748  0.1897
   16MOL   C196 3826   4.283   3.522   0.343 -0.3988 -0.1693 -0.2900
   16MOL   C197 3827   4.400   3.716   0.233 -0.3076  0.4942  1.0203
   16MOL   O198 3828   4.506   3.654   0.229 -0.3865  0.1678 -0.1617
   16MOL   O199 3829   4.393   3.850   0.228 -0.6560 -0.4113 -0.1261
   16MOL   H200 3830   4.110   3.535   0.113  0.5470 -0.8664 -1.3647
   16MOL   H201 3831   4.273   3.487   0.089  0.6557  1.0462  0.0380
   16MOL   H202 3832   4.348   3.448   0.296 -1.4616  0.3140 -2.5992
   16MOL   H203 3833   4.189   3.470   0.355 -0.9749  0.9681  0.2005
   16MOL   H204 3834   4.330   3.559   0.434 -2.1498 -0.8790  0.9108
   16MOL   H205 3835   4.480   3.888   0.233 -0.3190 -1.2223  0.1403
   16MOL   C206 3836   4.143   3.737   0.308  0.5471  0.3948  0.2108
   16MOL   C207 3837   4.121   3.770   0.462 -0.1728 -0.9867 -0.3428
   16MOL   C208 3838   4.057   3.643   0.528 -0.0829 -0.0459  0.4104
   16MOL   C209 3839   4.249   3.823   0.526  0.4110  0.2566  0.1086
   16MOL   O210 3840   4.303   3.762   0.618 -0.0813 -0.2913 -0.3051
   16MOL   O211 3841   4.297   3.940   0.481 -0.3073 -0.7180  0.2010
   16MOL   H212 3842   4.152   3.837   0.265 -1.9211  0.5518 -0.0044
   16MOL   H213 3843   4.048   3.691   0.282  0.0170  0.3991  2.0109
   16MOL   H214 3844   4.020   3.664   0.629  0.4971  1.1679  0.3731
   16MOL   H215 3845   4.123   3.558   0.546 -0.8888 -0.3911  1.7818
   16MOL   H216 3846   3.965   3.607   0.481  0.0874 -0.2153  0.2076
   16MOL   H217 3847   4.382   3.969   0.509 -0.3284  0.6314 -1.0895
   16MOL   C218 3848   4.012   3.882   0.468 -0.2786 -0.6993  0.1076
   16MOL   C219 3849   3.938   3.932   0.598 -0.0490 -0.6936  0.2600
   16MOL   C220 3850   3.809   3.836   0.611 -0.0129  0.3498  0.3971
   16MOL   C221 3851   4.014   3.913   0.736 -0.1165  0.1600  0.9740
   16MOL   O222 3852   3.991   3.822   0.813  0.4154  0.1381  0.0415
   16MOL   O223 3853   4.107   3.999   0.770 -0.3926  0.1209  0.3391
   16MOL   H224 3854   4.072   3.968   0.437  2.1361 -2.3069  0.2056
   16MOL   H225 3855   3.932   3.873   0.395 -1.3677  0.7941  1.0896
   16MOL   H226 3856   3.721   3.859   0.551  1.1342  2.3337 -0.5565
   16MOL   H227 3857   3.780   3.834   0.716 -1.6132  2.4688  0.0210
   16MOL   H228 3858   3.816   3.730   0.584  3.1872  0.4969  0.3958
   16MOL   H229 3859   4.140   3.981   0.857  0.3001  0.0974  0.0753
   16MOL   C230 3860   3.886   4.075   0.590 -0.1318 -0.0411  0.1437
   16MOL   C231 3861   3.786   4.128   0.691  0.3385  0.2818 -0.0078
   16MOL   C232 3862   3.820   4.273   0.727 -0.4059 -0.0379 -0.0464
   16MOL   C233 3863   3.641   4.115   0.645 -0.2550 -0.9102 -0.1175
   16MOL   O234 3864   3.607   4.082   0.537  0.2306 -0.0755 -0.1842
   16MOL   O235 3865   3.548   4.140   0.743 -0.5054 -0.3982  0.0793
   16MOL   H236 3866   3.978   4.132   0.605 -0.4405  0.4727  0.0919
   16MOL   H237 3867   3.862   4.079   0.484  1.4990 -1.6618 -0.3200
   16MOL   H238 3868   3.753   4.324   0.795 -0.0337 -1.4693  1.4215
   16MOL   H239 3869   3.827   4.343   0.644  1.0712 -0.0297  0.0753
   16MOL   H240 3870   3.920   4.283   0.768 -0.6424 -0.5838  0.6650
   16MOL   H241 3871   3.464   4.129   0.703 -0.8885  0.0744  0.7404
   16MOL   H242 3872   3.794   4.091   0.793 -3.0517  1.1309  0.6209
   17MOL     C1 3873   7.546   0.720   1.504 -0.2585  0.0722 -0.3589
   17MOL     C2 3874   7.450   0.823   1.431 -0.2552  0.0653 -1.2456
   17MOL     C3 3875   7.490   0.830   1.286  0.5284 -0.2132  0.0060
   17MOL     C4 3876   7.306   0.770   1.440 -0.3421 -0.3640  0.3672
   17MOL     O5 3877   7.283   0.655   1.490  0.0604 -0.3932  0.0318
   17MOL     O6 3878   7.211   0.861   1.395  0.2772 -0.4593 -0.5111
   17MOL     H7 3879   7.552   0.619   1.465 -1.0832 -0.4312  0.7784
   17MOL     H8 3880   7.505   0.712   1.605 -0.3992  1.5112 -0.2854
   17MOL     H9 3881   7.488   0.732   1.239 -0.6094  0.0869 -0.5868
   17MOL    H10 3882   7.593   0.862   1.276  0.1901  0.1768 -2.5172
   17MOL    H11 3883   7.432   0.892   1.217  1.5068  0.8538  0.1272
   17MOL    H12 3884   7.131   0.816   1.418  1.1006 -1.2319  0.9501
   17MOL    H13 3885   7.650   0.751   1.506  0.2595 -1.6477 -0.3666
   17MOL    C14 3886   7.461   0.970   1.496 -0.6205  1.3983  0.1674
   17MOL    C15 3887   7.450   0.988   1.660 -0.0099 -0.1605  0.8281
   17MOL    C16 3888   7.313   0.927   1.719 -0.2983  0.1051  0.3275
   17MOL    C17 3889   7.575   0.924   1.733  0.2140  0.5881  0.3083
   17MOL    O18 3890   7.572   0.850   1.827 -0.0183 -0.2144 -0.4748
   17MOL    O19 3891   7.683   0.973   1.670  0.0682  0.0055  0.1900
   17MOL    H20 3892   7.555   1.006   1.456  1.2062 -3.8367 -0.5408
   17MOL    H21 3893   7.387   1.038   1.452  0.6837  1.9455 -1.1933
   17MOL    H22 3894   7.291   0.963   1.820 -1.0290  0.1797  0.1427
   17MOL    H23 3895   7.321   0.819   1.726  1.2353  0.1457 -0.4304
   17MOL    H24 3896   7.230   0.962   1.659 -0.4979 -1.0317 -0.0674
   17MOL    H25 3897   7.760   0.953   1.721  0.3425  0.2987 -0.0964
   17MOL    C26 3898   7.452   1.146   1.675  0.2615 -0.3182  0.0678
   17MOL    C27 3899   7.420   1.225   1.811 -0.3538 -0.0169 -0.4058
   17MOL    C28 3900   7.474   1.153   1.937 -0.7003  0.1092 -0.3051
   17MOL    C29 3901   7.500   1.357   1.799 -0.1915  0.0816 -0.0733
   17MOL    O30 3902   7.596   1.375   1.874 -0.2292  0.5943 -0.4914
   17MOL    O31 3903   7.460   1.439   1.695  0.4797  0.6236 -0.1435
   17MOL    H32 3904   7.549   1.182   1.644 -0.0882  0.5638 -0.0158
   17MOL    H33 3905   7.392   1.194   1.598  0.1293  1.5087  1.2809
   17MOL    H34 3906   7.418   1.061   1.953 -0.0217 -0.4331 -1.0158
   17MOL    H35 3907   7.468   1.219   2.024 -3.1406 -0.3038 -0.1300
   17MOL    H36 3908   7.577   1.116   1.935 -1.1306 -1.2831  1.5794
   17MOL    H37 3909   7.522   1.511   1.697 -1.4566  2.3159  2.3161
   17MOL    C38 3910   7.268   1.251   1.817  0.0137  0.5526 -0.1827
   17MOL    C39 3911   7.184   1.311   1.933  0.3770  0.2072 -0.1802
   17MOL    C40 3912   7.043   1.310   1.857  0.2517  0.0318 -0.2735
   17MOL    C41 3913   7.189   1.207   2.051  0.3389 -0.3035  0.0815
   17MOL    O42 3914   7.245   1.237   2.155  0.5141  0.5714  0.0178
   17MOL    O43 3915   7.125   1.094   2.029 -0.6462 -0.0727  0.2227
   17MOL    H44 3916   7.243   1.300   1.723 -0.8034  0.6536  0.0780
   17MOL    H45 3917   7.221   1.153   1.808 -0.9856  1.0753 -0.7819
   17MOL    H46 3918   7.052   1.388   1.781  1.5040 -0.5416 -0.7245
   17MOL    H47 3919   6.955   1.342   1.914 -0.1268 -2.7053  0.7842
   17MOL    H48 3920   7.015   1.217   1.807  0.0206 -0.1605  0.2119
   17MOL    H49 3921   7.133   1.035   2.102  0.5596 -0.3967 -0.1633
   17MOL    C50 3922   7.237   1.459   1.974 -0.2257  0.2408  0.2931
   17MOL    C51 3923   7.150   1.569   2.026 -0.1574 -0.2744  0.0780
   17MOL    C52 3924   7.065   1.508   2.146 -0.0469 -0.1049  0.1289
   17MOL    C53 3925   7.263   1.667   2.083 -0.0098  0.2490 -0.2256
   17MOL    O54 3926   7.260   1.712   2.200  0.2623 -0.5355 -0.2467
   17MOL    O55 3927   7.361   1.708   1.999 -0.1500 -0.0162 -0.1073
   17MOL    H56 3928   7.321   1.447   2.042  1.0930 -0.6907 -1.4838
   17MOL    H57 3929   7.273   1.491   1.876 -0.8956  2.0709  0.6285
   17MOL    H58 3930   7.003   1.592   2.175 -0.5805 -0.5920  0.4075
   17MOL    H59 3931   7.117   1.470   2.234 -1.1445  1.3550  1.4199
   17MOL    H60 3932   6.993   1.431   2.117 -0.3593 -0.1291  0.9749
   17MOL    H61 3933   7.344   1.692   1.908  1.2686  2.1159 -0.7901
   17MOL    C62 3934   7.051   1.626   1.915  0.0997 -0.1218 -0.4181
   17MOL    C63 3935   7.015   1.782   1.896  0.3414 -0.1858 -0.1902
   17MOL    C64 3936   6.989   1.844   2.039  0.1606  0.2788  0.7628
   17MOL    C65 3937   7.135   1.851   1.832  0.5453  0.5156  0.7759
   17MOL    O66 3938   7.221   1.799   1.761 -0.0730 -0.2856 -0.3643
   17MOL    O67 3939   7.138   1.983   1.861 -0.2734  0.1404 -0.0848
   17MOL    H68 3940   7.097   1.592   1.822 -0.2982  1.0240 -1.0396
   17MOL    H69 3941   6.955   1.580   1.939  0.6926  0.5911  3.6124
   17MOL    H70 3942   7.078   1.859   2.099  0.0251  1.9623  0.5673
   17MOL    H71 3943   6.925   1.772   2.090  0.9391 -0.4251  0.7546
   17MOL    H72 3944   6.948   1.944   2.048 -1.4980 -0.3341  0.2204
   17MOL    H73 3945   7.207   2.015   1.805 -0.4922  0.5515 -0.1270
   17MOL    C74 3946   6.879   1.811   1.820 -0.0008 -0.2694 -0.3404
   17MOL    C75 3947   6.839   1.760   1.679 -0.0947 -0.0520 -0.0498
   17MOL    C76 3948   6.934   1.826   1.576 -0.1692 -0.4524  0.9947
   17MOL    C77 3949   6.837   1.601   1.670 -0.3281 -0.6402 -0.2396
   17MOL    O78 3950   6.893   1.539   1.582 -0.8361  0.2186  0.3204
   17MOL    O79 3951   6.776   1.532   1.767  0.4894  0.1025 -0.0590
   17MOL    H80 3952   6.800   1.773   1.885  1.2687 -1.5233  0.4953
   17MOL    H81 3953   6.855   1.917   1.827 -2.7257 -0.8889  0.7317
   17MOL    H82 3954   6.894   1.804   1.477 -1.5397  1.7897  1.0078
   17MOL    H83 3955   7.026   1.771   1.559 -0.4199 -0.1760 -1.4176
   17MOL    H84 3956   6.960   1.932   1.585 -0.2929 -0.4904  1.8023
   17MOL    H85 3957   6.786   1.439   1.753 -0.7170 -0.7649  4.0664
   17MOL    C86 3958   6.696   1.814   1.653  0.6073 -0.6280 -0.1811
   17MOL    C87 3959   6.583   1.761   1.550  0.9019 -0.3699  0.0854
   17MOL    C88 3960   6.644   1.725   1.410  0.2496 -0.2302 -0.3090
   17MOL    C89 3961   6.517   1.637   1.622 -0.0826 -0.0364  0.0297
   17MOL    O90 3962   6.542   1.522   1.592 -0.0262 -0.2270 -0.0032
   17MOL    O91 3963   6.434   1.664   1.727 -0.0838 -0.0603  0.2041
   17MOL    H92 3964   6.643   1.815   1.748 -2.6339  0.5539 -1.9027
   17MOL    H93 3965   6.707   1.919   1.627 -1.8498  0.2424  2.0149
   17MOL    H94 3966   6.731   1.660   1.414 -0.6869 -1.4563  0.1508
   17MOL    H95 3967   6.670   1.814   1.352  1.2542  0.4134  1.1054
   17MOL    H96 3968   6.575   1.664   1.352 -0.2568 -0.9311  1.0247
   17MOL    H97 3969   6.405   1.584   1.768  1.7262  0.0246  1.7474
   17MOL    C98 3970   6.471   1.873   1.529 -0.5655  0.1009  0.0307
   17MOL    C99 3971   6.339   1.864   1.444  0.6335  0.7959 -0.3469
   17MOL   C100 3972   6.368   1.824   1.295  0.3557 -0.4819 -0.0775
   17MOL   C101 3973   6.239   1.747   1.496  0.1646 -0.2238  0.1436
   17MOL   O102 3974   6.236   1.629   1.448  0.0840  0.0902 -0.0230
   17MOL   O103 3975   6.151   1.796   1.598 -0.3178 -0.0358 -0.9139
   17MOL   H104 3976   6.439   1.905   1.628  0.3923 -1.9916  1.0522
   17MOL   H105 3977   6.538   1.952   1.496 -1.0653  1.4409  2.1720
   17MOL   H106 3978   6.272   1.841   1.246  0.6988  3.3149  0.3850
   17MOL   H107 3979   6.400   1.721   1.281 -2.0284 -1.1293 -0.9956
   17MOL   H108 3980   6.436   1.892   1.244 -2.0360  3.0484  1.2525
   17MOL   H109 3981   6.094   1.731   1.637 -0.9363  0.3519 -1.1603
   17MOL   C110 3982   6.243   1.995   1.441 -0.4989  0.1503  0.6903
   17MOL   C111 3983   6.291   2.136   1.391 -0.0497 -0.0435  0.5013
   17MOL   C112 3984   6.448   2.161   1.402 -0.5510  1.0182  0.4615
   17MOL   C113 3985   6.252   2.152   1.240  0.7106 -0.4522  0.2266
   17MOL   O114 3986   6.182   2.076   1.173 -0.0472 -0.1930 -0.2733
   17MOL   O115 3987   6.314   2.261   1.187 -0.5772 -0.3230 -0.0634
   17MOL   H116 3988   6.148   1.964   1.397 -0.2312  1.0038 -0.5411
   17MOL   H117 3989   6.232   2.003   1.549 -2.6948  0.7816  0.4499
   17MOL   H118 3990   6.485   2.260   1.377  1.6332  0.2159  0.4429
   17MOL   H119 3991   6.509   2.108   1.329  0.1707  0.7149  1.2780
   17MOL   H120 3992   6.479   2.156   1.507 -0.2042 -2.8867  0.2650
   17MOL   H121 3993   6.268   2.266   1.104 -1.1949  1.0248  0.3446
   17MOL   C122 3994   6.209   2.229   1.491  0.0665 -0.0392  0.2486
   17MOL   C123 3995   6.185   2.385   1.463 -0.3604  0.0047 -0.4581
   17MOL   C124 3996   6.330   2.448   1.448 -0.4285 -0.1854  0.3494
   17MOL   C125 3997   6.099   2.421   1.340 -0.3492 -0.7260  0.0399
   17MOL   O126 3998   6.098   2.527   1.283  0.2385 -0.6563  0.3805
   17MOL   O127 3999   6.021   2.320   1.318  0.4025 -0.3356 -0.1994
   17MOL   H128 4000   6.114   2.176   1.498 -0.5918  1.1429  0.3221
   17MOL   H129 4001   6.241   2.217   1.595  0.4099 -1.1909  0.0172
   17MOL   H130 4002   6.372   2.434   1.348  1.6089  1.1474  0.9818
   17MOL   H131 4003   6.402   2.405   1.517  0.3789  0.5243 -0.0487
   17MOL   H132 4004   6.325   2.557   1.456  1.6230 -0.1645  1.7022
   17MOL   H133 4005   5.970   2.359   1.248  0.8141  3.6714  1.6022
   17MOL   C134 4006   6.132   2.458   1.589  0.4458 -0.0237  0.0403
   17MOL   C135 4007   5.986   2.447   1.651  0.1212 -0.6857  0.8123
   17MOL   C136 4008   5.903   2.569   1.607 -0.1404 -0.2887  0.0152
   17MOL   C137 4009   5.913   2.324   1.617  0.2833 -0.4579 -0.3851
   17MOL   O138 4010   5.811   2.318   1.547  0.0570  0.0130  0.4859
   17MOL   O139 4011   5.982   2.220   1.671 -0.5548  0.6368 -0.0478
   17MOL   H140 4012   6.206   2.443   1.667  0.3490  1.0345  0.3464
   17MOL   H141 4013   6.160   2.563   1.577  2.3540 -0.4118  0.8471
   17MOL   H142 4014   5.795   2.563   1.623 -0.3220  1.2678 -0.5205
   17MOL   H143 4015   5.910   2.573   1.498  2.6849  0.2419  0.1736
   17MOL   H144 4016   5.935   2.660   1.657 -3.8614  1.4722 -0.6086
   17MOL   H145 4017   5.936   2.147   1.632 -2.4169  1.4092  0.6298
   17MOL   C146 4018   5.997   2.458   1.807 -0.3317 -0.1183 -0.6417
   17MOL   C147 4019   5.886   2.460   1.924 -0.1800  0.1774 -0.4209
   17MOL   C148 4020   5.798   2.590   1.911 -0.6200  0.0434  0.4131
   17MOL   C149 4021   5.792   2.338   1.915  0.0660  1.4897 -0.3933
   17MOL   O150 4022   5.828   2.221   1.924 -0.2254  0.2360  0.3180
   17MOL   O151 4023   5.661   2.372   1.908  0.2949  0.3155  0.1701
   17MOL   H152 4024   6.069   2.390   1.852  0.0938  0.0065 -1.1236
   17MOL   H153 4025   6.057   2.547   1.828  0.7937 -1.7031  3.5340
   17MOL   H154 4026   5.727   2.576   1.830 -0.8837  1.5205  0.3762
   17MOL   H155 4027   5.847   2.687   1.902 -0.8381 -0.0746 -2.6289
   17MOL   H156 4028   5.737   2.598   2.001  0.3941  0.6847  1.0631
   17MOL   H157 4029   5.602   2.302   1.881 -1.3337  1.9423 -0.6195
   17MOL   C158 4030   5.953   2.468   2.067  0.7487  0.1553 -0.4091
   17MOL   C159 4031   5.981   2.344   2.161  0.5445 -0.5181 -0.0928
   17MOL   C160 4032   6.053   2.422   2.271  0.9326 -0.2073  0.0415
   17MOL   C161 4033   5.847   2.298   2.235 -0.1453 -0.2193  0.7519
   17MOL   O162 4034   5.734   2.346   2.219 -0.1692 -0.6583  0.2533
   17MOL   O163 4035   5.865   2.179   2.299  0.2130  0.0083 -0.3614
   17MOL   H164 4036   6.047   2.513   2.034  1.0649 -0.2996 -0.1171
   17MOL   H165 4037   5.910   2.552   2.122 -0.3705  0.1258 -1.2239
   17MOL   H166 4038   6.103   2.371   2.353  1.9143 -0.3172 -0.6164
   17MOL   H167 4039   5.975   2.487   2.311  2.2675  2.1782 -1.0961
   17MOL   H168 4040   6.120   2.497   2.229 -0.9034  0.2002 -2.2496
   17MOL   H169 4041   5.957   2.158   2.304  0.5481  1.4990 -0.2023
   17MOL   C170 4042   6.071   2.224   2.100  0.0276  0.4774 -0.0415
   17MOL   C171 4043   6.215   2.191   2.146 -0.2110 -0.5900  0.4568
   17MOL   C172 4044   6.307   2.319   2.121  0.4962  0.2693 -0.3290
   17MOL   C173 4045   6.221   2.149   2.293  0.1361  0.2353  0.3532
   17MOL   O174 4046   6.127   2.112   2.366 -0.2214  0.0263 -0.6989
   17MOL   O175 4047   6.347   2.156   2.337 -0.7412 -0.0242  0.1456
   17MOL   H176 4048   6.014   2.133   2.081  0.6081 -0.4232  2.3199
   17MOL   H177 4049   6.095   2.256   1.998  0.7260 -1.4994 -0.5332
   17MOL   H178 4050   6.304   2.363   2.021  1.7242  1.4541  0.1492
   17MOL   H179 4051   6.412   2.296   2.140  0.5900  1.7955  1.1459
   17MOL   H180 4052   6.294   2.399   2.194 -1.8134 -0.7692  0.4476
   17MOL   H181 4053   6.358   2.124   2.425  4.7479 -0.9103 -0.6779
   17MOL   C182 4054   6.282   2.078   2.064  0.1011 -0.4893  0.3827
   17MOL   C183 4055   6.206   1.937   2.049 -0.0655  0.2919  0.7759
   17MOL   C184 4056   6.126   1.878   2.169 -0.4716  0.1572 -0.1462
   17MOL   C185 4057   6.115   1.936   1.924 -0.4340 -0.4387  0.0490
   17MOL   O186 4058   5.994   1.916   1.925 -0.4668  0.6034  0.0573
   17MOL   O187 4059   6.187   1.971   1.811  0.2179 -0.2391 -0.6740
   17MOL   H188 4060   6.304   2.118   1.965 -0.4066  0.1676  0.5342
   17MOL   H189 4061   6.386   2.062   2.094 -0.2932  1.6667  3.0899
   17MOL   H190 4062   6.036   1.934   2.195  0.1093  0.3637  1.5166
   17MOL   H191 4063   6.187   1.875   2.259  1.3210 -1.6120 -1.4055
   17MOL   H192 4064   6.103   1.772   2.158  0.0072  0.1925 -1.5808
   17MOL   H193 4065   6.121   1.992   1.746 -0.6158 -0.7473 -0.0067
   17MOL   C194 4066   6.320   1.836   2.010 -0.0365 -0.3322  0.6319
   17MOL   C195 4067   6.411   1.752   2.113  0.3797  0.5100 -0.5281
   17MOL   C196 4068   6.534   1.702   2.039  0.1669 -0.5441  0.3770
   17MOL   C197 4069   6.458   1.842   2.227 -0.4678  0.0013 -0.4418
   17MOL   O198 4070   6.424   1.840   2.347  0.1833 -0.4981 -0.1320
   17MOL   O199 4071   6.567   1.918   2.183 -0.4976 -0.3086 -0.4447
   17MOL   H200 4072   6.277   1.756   1.949 -1.3863  0.2022  0.8541
   17MOL   H201 4073   6.389   1.881   1.939 -0.5218  1.7710  1.4627
   17MOL   H202 4074   6.580   1.772   1.970 -0.2737 -0.9036 -0.2878
   17MOL   H203 4075   6.517   1.618   1.971  3.0051  0.0580 -1.1724
   17MOL   H204 4076   6.612   1.670   2.108  1.8995 -1.9362 -2.1203
   17MOL   H205 4077   6.608   1.963   2.255 -0.0584  0.7499 -1.3459
   17MOL   C206 4078   6.343   1.630   2.185 -0.0457  0.0066  0.5831
   17MOL   C207 4079   6.306   1.488   2.117 -0.4357  0.0961 -0.4384
   17MOL   C208 4080   6.196   1.426   2.215 -0.0276 -0.4993 -0.4821
   17MOL   C209 4081   6.239   1.503   1.977 -0.2872 -0.7274 -0.0287
   17MOL   O210 4082   6.302   1.501   1.871  0.1263 -0.3686 -0.3971
   17MOL   O211 4083   6.103   1.508   1.979  0.6508 -0.4686  0.5509
   17MOL   H212 4084   6.415   1.612   2.265 -0.6381  2.4929  1.7388
   17MOL   H213 4085   6.259   1.670   2.241  0.7963  0.9185  1.2026
   17MOL   H214 4086   6.148   1.334   2.183 -1.0286  0.4916 -1.9132
   17MOL   H215 4087   6.113   1.497   2.216  0.3620 -0.0498  2.4184
   17MOL   H216 4088   6.222   1.413   2.320  2.2072 -0.0083 -0.9517
   17MOL   H217 4089   6.064   1.497   1.894 -0.4524  0.2009  0.9576
   17MOL   C218 4090   6.430   1.390   2.113 -0.3144  0.1960  0.1426
   17MOL   C219 4091   6.418   1.235   2.098 -0.2199  0.6359  0.0075
   17MOL   C220 4092   6.365   1.169   2.228  0.4602  0.2300  0.5629
   17MOL   C221 4093   6.333   1.201   1.971 -0.1675 -0.1395 -0.1751
   17MOL   O222 4094   6.217   1.162   1.973 -0.1026  0.3458 -0.1807
   17MOL   O223 4095   6.401   1.217   1.853  0.4410 -0.5433 -0.3167
   17MOL   H224 4096   6.497   1.431   2.037  0.6521  1.6301  1.7275
   17MOL   H225 4097   6.490   1.403   2.203  0.7308 -1.8534 -0.2410
   17MOL   H226 4098   6.262   1.189   2.256  0.6956 -0.0407  1.6374
   17MOL   H227 4099   6.426   1.192   2.316  1.4940 -0.3581  0.0152
   17MOL   H228 4100   6.362   1.060   2.225  1.8100  0.2186 -3.5829
   17MOL   H229 4101   6.339   1.198   1.785  0.6756 -0.1570 -0.6452
   17MOL   C230 4102   6.567   1.176   2.082 -0.5880 -0.4045 -0.6118
   17MOL   C231 4103   6.595   1.022   2.072  0.1065  0.2021  0.2956
   17MOL   C232 4104   6.706   0.999   1.973  0.3192  0.0530 -0.1038
   17MOL   C233 4105   6.638   0.961   2.203 -0.0144 -0.4013  0.0755
   17MOL   O234 4106   6.746   0.973   2.249  0.2553  0.1123  0.2060
   17MOL   O235 4107   6.532   0.899   2.265  0.5744 -0.6532  0.1049
   17MOL   H236 4108   6.611   1.212   1.989 -0.2732  0.2864 -0.1999
   17MOL   H237 4109   6.630   1.229   2.153 -0.2143  0.7408 -1.7607
   17MOL   H238 4110   6.670   1.036   1.877 -1.1088  2.3225  1.2398
   17MOL   H239 4111   6.727   0.893   1.964 -0.4098 -0.1147  0.2188
   17MOL   H240 4112   6.798   1.052   1.999 -0.0012  0.0693  0.9858
   17MOL   H241 4113   6.558   0.858   2.347  1.0772 -3.0127 -1.1863
   17MOL   H242 4114   6.496   0.993   2.037  0.3052 -0.0284 -0.0828
   18MOL     C1 4115   2.669   1.752   4.483  0.3783  0.7857  0.2017
   18MOL     C2 4116   2.738   1.887   4.502  0.2823  0.0608 -0.3499
   18MOL     C3 4117   2.636   2.007   4.497  0.2202 -0.3401 -0.5567
   18MOL     C4 4118   2.788   1.862   4.645  0.1935 -0.9405 -0.5615
   18MOL     O5 4119   2.772   1.948   4.734  0.4000 -0.1562 -0.2586
   18MOL     O6 4120   2.858   1.747   4.666 -0.0599 -0.1002 -0.1151
   18MOL     H7 4121   2.749   1.679   4.476  0.1814  0.7581 -1.8728
   18MOL     H8 4122   2.611   1.748   4.391 -0.1935  1.3993  0.5309
   18MOL     H9 4123   2.567   2.016   4.581 -0.3115 -0.6035 -0.9620
   18MOL    H10 4124   2.575   1.992   4.408 -0.2615  0.0477 -0.2972
   18MOL    H11 4125   2.692   2.100   4.489  1.9357 -1.2248  0.7630
   18MOL    H12 4126   2.894   1.740   4.753  0.5054 -0.7897 -0.3968
   18MOL    H13 4127   2.596   1.727   4.560 -3.2679  1.7793 -2.7831
   18MOL    C14 4128   2.869   1.905   4.423 -0.2129  0.6090 -0.0105
   18MOL    C15 4129   2.856   1.945   4.273  0.5082 -0.4167  0.0772
   18MOL    C16 4130   2.742   1.874   4.192  0.0739  0.0808  0.0244
   18MOL    C17 4131   2.824   2.090   4.269  0.4019  0.7768  0.6649
   18MOL    O18 4132   2.876   2.164   4.350 -0.1363  0.1821  0.1095
   18MOL    O19 4133   2.753   2.132   4.163 -1.0074  0.2323  0.1433
   18MOL    H20 4134   2.927   1.980   4.477  0.0253  1.6850 -1.7116
   18MOL    H21 4135   2.920   1.809   4.432  1.4097  1.4297 -0.4427
   18MOL    H22 4136   2.747   1.886   4.084 -3.1570 -0.7267 -0.2479
   18MOL    H23 4137   2.641   1.905   4.215 -0.9501 -0.7943 -3.0462
   18MOL    H24 4138   2.746   1.766   4.209  0.2716  0.5527  3.3005
   18MOL    H25 4139   2.746   2.226   4.154 -2.6706  0.0034 -1.1366
   18MOL    C26 4140   2.998   1.918   4.210  1.2496 -0.4836 -0.0753
   18MOL    C27 4141   3.057   1.972   4.076 -0.3122 -0.3435 -0.1234
   18MOL    C28 4142   3.081   2.122   4.088 -0.3468 -0.8534 -0.6656
   18MOL    C29 4143   3.198   1.913   4.058  0.5406 -0.2459 -0.2722
   18MOL    O30 4144   3.300   1.978   4.061 -0.2671  0.2953 -0.7576
   18MOL    O31 4145   3.201   1.778   4.038  0.7508 -0.0146 -0.2897
   18MOL    H32 4146   3.074   1.935   4.286  0.6614 -0.3488  0.4899
   18MOL    H33 4147   2.995   1.810   4.195 -2.5402 -0.4145 -0.2176
   18MOL    H34 4148   3.156   2.152   4.161 -0.3087 -1.0831 -0.6120
   18MOL    H35 4149   2.992   2.185   4.093  0.0687 -0.3496  0.3995
   18MOL    H36 4150   3.129   2.169   4.002 -1.1446  1.1808 -0.0261
   18MOL    H37 4151   3.273   1.737   3.992  2.8014  0.1593  2.6350
   18MOL    C38 4152   2.964   1.956   3.948 -0.4654 -0.2580 -0.0905
   18MOL    C39 4153   3.007   1.950   3.793  0.1686 -0.2358  0.5658
   18MOL    C40 4154   3.101   2.072   3.748  0.0630 -0.1924 -0.3085
   18MOL    C41 4155   3.076   1.814   3.753  0.4749  0.4167 -0.3082
   18MOL    O42 4156   3.199   1.813   3.725  0.7120  0.2800  0.1004
   18MOL    O43 4157   3.001   1.702   3.761  0.5045 -0.4143 -0.0483
   18MOL    H44 4158   2.913   1.861   3.960 -2.9326  0.8951 -1.1192
   18MOL    H45 4159   2.890   2.034   3.964 -1.1853 -0.7725 -0.9035
   18MOL    H46 4160   3.127   2.057   3.643  0.3030  0.7236 -0.3790
   18MOL    H47 4161   3.194   2.071   3.805  0.1114  2.4835 -0.2814
   18MOL    H48 4162   3.061   2.172   3.764  0.4026 -0.0340 -0.4453
   18MOL    H49 4163   2.914   1.721   3.792  0.1995 -2.1465  0.2341
   18MOL    C50 4164   2.885   1.949   3.697  0.4436  0.0852 -0.3670
   18MOL    C51 4165   2.764   2.051   3.697  0.8898  0.7507  0.0554
   18MOL    C52 4166   2.676   2.018   3.817 -0.7376 -0.5765 -0.3299
   18MOL    C53 4167   2.815   2.194   3.707  0.4058 -0.6837 -0.0321
   18MOL    O54 4168   2.789   2.276   3.800 -0.2178  0.7360 -0.1266
   18MOL    O55 4169   2.871   2.225   3.591  0.7737  0.7559  0.3867
   18MOL    H56 4170   2.922   1.953   3.594 -1.7098 -0.7361 -1.2206
   18MOL    H57 4171   2.830   1.855   3.708 -0.9358  0.7300 -1.4339
   18MOL    H58 4172   2.679   2.082   3.905 -1.6863  1.3343 -1.6648
   18MOL    H59 4173   2.697   1.920   3.862  1.7686  1.4725  3.2197
   18MOL    H60 4174   2.573   2.022   3.783 -1.1028 -1.0716  0.6853
   18MOL    H61 4175   2.879   2.318   3.575 -0.3410  1.1122  1.8440
   18MOL    C62 4176   2.677   2.037   3.564  0.0200 -0.1285 -0.2394
   18MOL    C63 4177   2.561   2.134   3.505 -0.4017  0.0477  0.5349
   18MOL    C64 4178   2.444   2.046   3.449 -0.1463  0.2076 -0.0135
   18MOL    C65 4179   2.499   2.223   3.609 -0.3870  0.2063  0.3367
   18MOL    O66 4180   2.407   2.193   3.683  0.1521 -0.9687  0.3805
   18MOL    O67 4181   2.566   2.342   3.619  0.3631  0.1689  0.2401
   18MOL    H68 4182   2.758   2.031   3.491  0.6520 -2.5978  0.6152
   18MOL    H69 4183   2.643   1.933   3.571  0.4708 -0.2786 -0.2333
   18MOL    H70 4184   2.400   1.988   3.530  1.8082 -3.0345 -1.2145
   18MOL    H71 4185   2.469   1.966   3.380  2.5606 -0.0756  1.2441
   18MOL    H72 4186   2.365   2.113   3.416 -0.1127 -0.4068 -1.3634
   18MOL    H73 4187   2.517   2.391   3.683  1.0913 -0.9266  1.6794
   18MOL    C74 4188   2.609   2.225   3.383  0.1872  0.1977 -0.0531
   18MOL    C75 4189   2.646   2.179   3.236  0.2250  0.3358  0.5103
   18MOL    C76 4190   2.723   2.045   3.227  0.1217  0.4164  0.3602
   18MOL    C77 4191   2.514   2.162   3.154  0.0874 -0.1008 -0.4558
   18MOL    O78 4192   2.410   2.226   3.181 -0.5687 -0.2098  0.3812
   18MOL    O79 4193   2.532   2.080   3.045 -0.3526  0.1971 -0.0546
   18MOL    H80 4194   2.542   2.310   3.375  0.7253  0.7045  0.7522
   18MOL    H81 4195   2.698   2.276   3.420 -1.0108  0.6006  2.4279
   18MOL    H82 4196   2.817   2.052   3.281  1.1125 -1.4892 -1.0860
   18MOL    H83 4197   2.753   2.018   3.126  3.3024 -1.9664  1.8561
   18MOL    H84 4198   2.680   1.955   3.270  1.9617 -0.9559 -0.6281
   18MOL    H85 4199   2.453   2.080   2.993 -0.1188 -1.2894 -0.4459
   18MOL    C86 4200   2.744   2.280   3.177  0.3150  0.2270  0.5735
   18MOL    C87 4201   2.705   2.429   3.127 -0.0466  0.0018 -0.0959
   18MOL    C88 4202   2.839   2.496   3.088  0.0752 -0.5044  0.3075
   18MOL    C89 4203   2.611   2.429   3.010 -0.4165 -0.5550  0.0635
   18MOL    O90 4204   2.516   2.506   2.985  0.6406 -0.2579 -0.5516
   18MOL    O91 4205   2.655   2.344   2.917  0.2035 -0.3507 -0.2532
   18MOL    H92 4206   2.818   2.296   3.255  0.5455  1.4417  0.1043
   18MOL    H93 4207   2.787   2.236   3.087  0.4402  0.9499  0.2808
   18MOL    H94 4208   2.884   2.462   2.995  0.9131 -0.0706  0.5383
   18MOL    H95 4209   2.920   2.474   3.158  0.2983 -1.9950 -0.3951
   18MOL    H96 4210   2.829   2.602   3.066 -0.9445 -0.5652  0.4472
   18MOL    H97 4211   2.593   2.343   2.845 -1.9919 -0.5680  1.5806
   18MOL    C98 4212   2.655   2.511   3.259 -0.1213  0.0245  0.4990
   18MOL    C99 4213   2.664   2.675   3.284  0.6028  0.3239  0.2078
   18MOL   C100 4214   2.629   2.760   3.156  0.4333  0.4826  0.3484
   18MOL   C101 4215   2.552   2.704   3.394  0.4649  0.3676  1.3388
   18MOL   O102 4216   2.483   2.629   3.453  0.1222  0.3554 -0.0434
   18MOL   O103 4217   2.538   2.840   3.413 -0.5139  0.4209  0.2184
   18MOL   H104 4218   2.547   2.502   3.245 -0.1223 -1.0969  1.2073
   18MOL   H105 4219   2.671   2.464   3.356 -1.1072 -2.5899 -0.5720
   18MOL   H106 4220   2.643   2.867   3.169 -0.6586  0.6642  0.0946
   18MOL   H107 4221   2.528   2.741   3.118  1.0401 -1.0666 -0.5746
   18MOL   H108 4222   2.689   2.731   3.070 -0.2456 -1.1459  0.3958
   18MOL   H109 4223   2.463   2.843   3.470 -1.6700 -1.9548 -1.1071
   18MOL   C110 4224   2.805   2.727   3.339  0.1713  0.1643 -0.6887
   18MOL   C111 4225   2.891   2.678   3.468  0.1875  0.0172  0.3690
   18MOL   C112 4226   2.796   2.632   3.586 -0.4983  0.2950 -0.0167
   18MOL   C113 4227   2.973   2.553   3.431 -0.2705  0.0580  0.5390
   18MOL   O114 4228   2.964   2.450   3.493  0.0760  0.1185  0.6186
   18MOL   O115 4229   3.048   2.572   3.320  0.6992 -0.0143  0.3193
   18MOL   H116 4230   2.872   2.720   3.254  0.6095 -2.2036 -0.1846
   18MOL   H117 4231   2.800   2.835   3.344 -1.1242  0.0870 -0.0219
   18MOL   H118 4232   2.856   2.582   3.663  1.0700  1.0283 -0.7524
   18MOL   H119 4233   2.721   2.567   3.541 -0.1987  1.1269 -1.7398
   18MOL   H120 4234   2.736   2.709   3.634 -0.7087 -0.2909  0.6757
   18MOL   H121 4235   3.082   2.485   3.307 -4.3313 -2.3151  0.9948
   18MOL   C122 4236   2.994   2.791   3.504  0.2091  0.0574 -0.0859
   18MOL   C123 4237   2.978   2.901   3.619  0.2405  0.0480  0.3202
   18MOL   C124 4238   2.848   2.975   3.578  0.4449 -0.6305 -0.1422
   18MOL   C125 4239   2.968   2.842   3.762  0.8778 -0.3456  0.1663
   18MOL   O126 4240   3.023   2.739   3.800  0.1428 -0.3505  0.3963
   18MOL   O127 4241   2.894   2.919   3.843  0.1505 -0.0128 -0.2980
   18MOL   H128 4242   3.092   2.743   3.512  0.2729  0.3557  1.0822
   18MOL   H129 4243   3.012   2.852   3.416  2.6680  0.6776  0.8072
   18MOL   H130 4244   2.766   2.904   3.574  1.5030 -1.9212  0.4899
   18MOL   H131 4245   2.853   3.030   3.484  1.1534 -0.0659  0.2210
   18MOL   H132 4246   2.826   3.057   3.646  0.1829  1.2493 -2.4079
   18MOL   H133 4247   2.912   2.870   3.922  2.8170  0.7478 -0.3931
   18MOL   C134 4248   3.098   3.002   3.608  0.9998  0.0452 -0.0902
   18MOL   C135 4249   3.256   2.980   3.622 -0.4488  0.3354  0.8375
   18MOL   C136 4250   3.287   2.887   3.747  0.0462  0.5428  0.0233
   18MOL   C137 4251   3.296   2.913   3.489 -0.0414  0.5216  0.0078
   18MOL   O138 4252   3.338   2.796   3.496  0.2023  0.0713 -0.0245
   18MOL   O139 4253   3.295   2.984   3.371  0.2737  0.0580  0.0149
   18MOL   H140 4254   3.081   3.058   3.516 -0.8759 -0.0751  0.1705
   18MOL   H141 4255   3.071   3.071   3.688  0.1225 -1.2594  0.7505
   18MOL   H142 4256   3.239   2.792   3.722  1.5855 -0.9252  2.4644
   18MOL   H143 4257   3.252   2.934   3.839 -1.5740 -0.9262  0.1814
   18MOL   H144 4258   3.390   2.851   3.755  0.0812  0.6789  0.1978
   18MOL   H145 4259   3.320   2.926   3.300 -0.8585 -1.0859  0.5312
   18MOL   C146 4260   3.315   3.120   3.635  0.5913 -0.6695 -0.6295
   18MOL   C147 4261   3.466   3.165   3.654  0.2407  0.0417  0.8993
   18MOL   C148 4262   3.547   3.107   3.534  0.0937  0.0050 -0.0077
   18MOL   C149 4263   3.478   3.317   3.651 -0.3882  0.0937  0.2820
   18MOL   O150 4264   3.549   3.372   3.566 -0.4269 -0.0465 -0.1254
   18MOL   O151 4265   3.401   3.390   3.736 -0.1475 -0.0281  0.2396
   18MOL   H152 4266   3.288   3.181   3.549  0.0605  0.1437  0.1021
   18MOL   H153 4267   3.265   3.165   3.721 -0.1173 -1.8920 -0.3937
   18MOL   H154 4268   3.500   3.135   3.440 -1.0373 -1.6588  0.0341
   18MOL   H155 4269   3.545   2.999   3.526 -0.4401  0.0782 -0.9133
   18MOL   H156 4270   3.650   3.143   3.534 -0.2188  0.9102  0.1719
   18MOL   H157 4271   3.409   3.482   3.718  1.5865 -0.0974  0.6297
   18MOL   C158 4272   3.512   3.098   3.789  0.5049 -1.0874 -0.3167
   18MOL   C159 4273   3.637   3.153   3.876  0.2843  0.3449  0.2176
   18MOL   C160 4274   3.761   3.172   3.781  0.2688  0.4400 -0.5520
   18MOL   C161 4275   3.602   3.281   3.954  0.2570  0.1399  0.0355
   18MOL   O162 4276   3.657   3.388   3.925 -0.0153  0.5199  0.1317
   18MOL   O163 4277   3.509   3.255   4.054  0.0282  0.1275  0.4564
   18MOL   H164 4278   3.430   3.099   3.861  0.1291  0.0086 -0.7426
   18MOL   H165 4279   3.549   2.997   3.777  2.6031 -0.3390 -0.3570
   18MOL   H166 4280   3.775   3.082   3.721  1.3952 -0.3140  0.7864
   18MOL   H167 4281   3.855   3.184   3.835  0.2736  3.3276 -1.1140
   18MOL   H168 4282   3.743   3.250   3.707  3.7743  1.3573 -0.5296
   18MOL   H169 4283   3.499   3.326   4.116 -0.7512 -1.2515  1.9516
   18MOL   C170 4284   3.665   3.031   3.970  0.0517  0.6229 -0.0129
   18MOL   C171 4285   3.788   3.025   4.081 -0.6536 -0.4454  0.0964
   18MOL   C172 4286   3.849   3.159   4.127 -0.0810 -0.5671  0.5203
   18MOL   C173 4287   3.729   2.966   4.215  0.4177 -0.4253  0.7196
   18MOL   O174 4288   3.620   2.996   4.265 -0.1023 -0.1377 -0.1878
   18MOL   O175 4289   3.814   2.863   4.259  0.1513 -0.7592  0.2571
   18MOL   H176 4290   3.574   3.012   4.028 -0.5028 -1.5156 -1.5419
   18MOL   H177 4291   3.692   2.945   3.909  3.8146  1.0612  0.9181
   18MOL   H178 4292   3.923   3.149   4.207 -0.0698 -0.9725  0.4607
   18MOL   H179 4293   3.776   3.231   4.165 -1.0189 -1.7508  1.0268
   18MOL   H180 4294   3.898   3.212   4.046  2.1290 -2.5820  0.5161
   18MOL   H181 4295   3.773   2.820   4.332  1.5037  0.1848  1.6131
   18MOL   C182 4296   3.915   2.947   4.022  0.6208 -0.4816  0.4183
   18MOL   C183 4297   3.897   2.796   3.975  0.1513  0.8076  0.4049
   18MOL   C184 4298   4.019   2.712   4.026 -0.0555  0.0539 -0.5448
   18MOL   C185 4299   3.772   2.710   4.017 -0.1770  0.2405 -0.7670
   18MOL   O186 4300   3.653   2.724   3.973 -0.0139 -0.2845  0.3803
   18MOL   O187 4301   3.800   2.605   4.106  0.2658 -0.2562  0.1759
   18MOL   H188 4302   3.937   3.012   3.938  1.1839  1.1069  1.7609
   18MOL   H189 4303   3.999   2.956   4.092 -0.4182  1.3120  1.4723
   18MOL   H190 4304   4.011   2.604   4.012 -1.4078  0.2443 -1.2814
   18MOL   H191 4305   4.031   2.715   4.135 -0.3431  0.3303 -0.5219
   18MOL   H192 4306   4.112   2.735   3.973  1.0521  0.5181  1.5289
   18MOL   H193 4307   3.721   2.573   4.147 -1.6489  2.4853 -1.1699
   18MOL   C194 4308   3.911   2.800   3.825  0.3417 -0.3394 -0.0518
   18MOL   C195 4309   3.905   2.681   3.714  0.7134 -0.2463 -0.0918
   18MOL   C196 4310   3.925   2.759   3.580 -0.2393 -0.3227 -0.5211
   18MOL   C197 4311   4.022   2.585   3.738 -0.6957 -0.4917 -0.4383
   18MOL   O198 4312   4.141   2.609   3.715  0.4081  0.2497  0.1525
   18MOL   O199 4313   3.985   2.477   3.805  0.5501 -0.1102 -0.0692
   18MOL   H200 4314   3.843   2.875   3.784 -1.3536 -0.6042  2.1603
   18MOL   H201 4315   4.007   2.850   3.814 -0.1055  0.3551 -0.8253
   18MOL   H202 4316   3.930   2.700   3.489 -2.5924  0.7538 -1.3716
   18MOL   H203 4317   4.021   2.811   3.586 -0.5230  0.4647 -2.5530
   18MOL   H204 4318   3.846   2.832   3.565  1.3513  1.3536 -0.9393
   18MOL   H205 4319   4.055   2.422   3.838 -0.0393 -0.2786  0.9189
   18MOL   C206 4320   3.773   2.610   3.703 -0.4324  0.5970  0.1908
   18MOL   C207 4321   3.721   2.532   3.586  1.3421 -0.4139  0.1948
   18MOL   C208 4322   3.662   2.631   3.478 -0.6564  0.5147 -0.0350
   18MOL   C209 4323   3.818   2.435   3.519  0.3701 -0.2647 -0.4262
   18MOL   O210 4324   3.872   2.471   3.408 -0.3533  0.3525 -0.1672
   18MOL   O211 4325   3.859   2.325   3.589 -0.8770 -0.3672 -0.6145
   18MOL   H212 4326   3.760   2.552   3.794 -1.7348  0.1398 -0.2615
   18MOL   H213 4327   3.705   2.695   3.713  1.2226  2.2251 -1.9486
   18MOL   H214 4328   3.592   2.703   3.521 -1.2034 -0.7497  1.2162
   18MOL   H215 4329   3.616   2.577   3.396 -0.5382  1.4930 -0.7621
   18MOL   H216 4330   3.731   2.702   3.432 -1.0432  0.2222 -1.0638
   18MOL   H217 4331   3.936   2.287   3.549  0.0429  0.3864  0.3937
   18MOL   C218 4332   3.600   2.453   3.648 -0.1450 -0.4188  0.1648
   18MOL   C219 4333   3.495   2.376   3.567  0.1668  0.1394 -0.6077
   18MOL   C220 4334   3.427   2.287   3.675 -0.6182 -0.2223  0.2402
   18MOL   C221 4335   3.385   2.472   3.506  0.2347 -0.4941  0.2319
   18MOL   O222 4336   3.355   2.474   3.386  0.0399 -0.7930  0.1690
   18MOL   O223 4337   3.332   2.544   3.611  0.6830  0.3595 -0.0915
   18MOL   H224 4338   3.630   2.382   3.724  1.0794 -2.5309 -2.2194
   18MOL   H225 4339   3.551   2.526   3.712 -0.5649 -0.1380 -0.4674
   18MOL   H226 4340   3.385   2.339   3.760 -0.9411  0.4619 -0.3344
   18MOL   H227 4341   3.503   2.218   3.713 -1.5325 -1.2472  0.2395
   18MOL   H228 4342   3.344   2.225   3.640 -1.0238  0.1455  0.5568
   18MOL   H229 4343   3.284   2.618   3.579  0.5558  0.2534 -0.1439
   18MOL   C230 4344   3.549   2.285   3.453  0.3334  0.1803  0.9414
   18MOL   C231 4345   3.453   2.177   3.398 -0.1753  0.9621 -0.2525
   18MOL   C232 4346   3.432   2.184   3.241 -0.4495  0.1192  0.1246
   18MOL   C233 4347   3.498   2.031   3.450 -0.2296  1.0986  0.0869
   18MOL   O234 4348   3.606   2.008   3.510  0.3667  0.0239 -0.5879
   18MOL   O235 4349   3.411   1.935   3.407 -0.3040  0.6853  0.1144
   18MOL   H236 4350   3.591   2.348   3.375 -2.8676  0.8112 -0.3588
   18MOL   H237 4351   3.633   2.233   3.499  0.0374 -2.0992 -0.9672
   18MOL   H238 4352   3.515   2.137   3.187 -1.2648  0.1957 -1.2092
   18MOL   H239 4353   3.407   2.285   3.211 -0.6203  0.8396  2.6462
   18MOL   H240 4354   3.357   2.113   3.205 -0.1113  0.3216 -1.0219
   18MOL   H241 4355   3.444   1.847   3.420 -1.0731  0.0210 -2.2194
   18MOL   H242 4356   3.349   2.195   3.426 -0.3661  0.3180 -0.5371
   19MOL     C1 4357   7.739   0.116   4.582  0.0754  0.7445  0.4938
   19MOL     C2 4358   0.077   0.217   4.537 -0.3253 -0.3986 -0.2680
   19MOL     C3 4359   0.047   0.258   4.396  0.4119  0.1751 -0.9931
   19MOL     C4 4360   0.063   0.341   4.624 -0.3558  0.3259 -0.8196
   19MOL     O5 4361   0.005   0.338   4.732  0.0994 -0.0307  0.5100
   19MOL     O6 4362   0.138   0.448   4.583 -0.1976 -0.1595  0.0789
   19MOL     H7 4363   7.761   0.084   4.684  0.2930  0.3478  0.3231
   19MOL     H8 4364   7.753   0.026   4.522 -1.2779  0.7507  0.1480
   19MOL     H9 4365   7.711   0.295   4.398  0.7489  1.1657 -1.2645
   19MOL    H10 4366   0.058   0.172   4.330 -0.7730 -0.6293 -0.1462
   19MOL    H11 4367   0.101   0.345   4.357  0.0376 -0.0367 -1.9960
   19MOL    H12 4368   0.119   0.518   4.644 -0.1558  0.9127 -1.0968
   19MOL    H13 4369   7.634   0.147   4.579 -0.0304  0.3561  0.1000
   19MOL    C14 4370   0.217   0.153   4.544  0.0467  0.3290 -0.6460
   19MOL    C15 4371   0.272   0.047   4.650  0.3463 -0.5984  0.3500
   19MOL    C16 4372   0.279   0.123   4.787  0.5913 -0.6708 -0.3368
   19MOL    C17 4373   0.190   7.688   4.665 -0.1901  0.0440  0.4039
   19MOL    O18 4374   0.124   7.659   4.764 -0.0403 -0.2805 -0.4287
   19MOL    O19 4375   0.180   7.618   4.541  0.0133 -0.4152 -0.6058
   19MOL    H20 4376   0.220   0.098   4.450  0.9494  0.5952 -0.7756
   19MOL    H21 4377   0.291   0.226   4.511  1.4235 -1.7820 -2.3498
   19MOL    H22 4378   0.304   0.062   4.874  0.7073  1.4214  1.1365
   19MOL    H23 4379   0.185   0.174   4.808 -1.1477 -3.1058 -2.0560
   19MOL    H24 4380   0.353   0.202   4.771 -0.6298  0.0345 -2.7764
   19MOL    H25 4381   0.129   7.547   4.576  0.3071 -0.0379  0.5925
   19MOL    C26 4382   0.423   0.007   4.615 -0.3109  0.5321  0.5097
   19MOL    C27 4383   0.517   7.698   4.714 -0.0582 -0.4410  0.3664
   19MOL    C28 4384   0.623   7.649   4.624  0.2633  0.0437 -0.1184
   19MOL    C29 4385   0.578   0.029   4.813  0.8103 -0.2726  0.3039
   19MOL    O30 4386   0.544   0.047   4.931  0.2732  0.2106 -0.5859
   19MOL    O31 4387   0.686   0.095   4.757 -0.1850  0.0177 -0.2758
   19MOL    H32 4388   0.416   7.718   4.521  1.5105 -0.9387  1.2258
   19MOL    H33 4389   0.475   0.091   4.570 -0.4781 -1.3904 -3.5646
   19MOL    H34 4390   0.650   7.723   4.548  0.9296  1.4815  1.4879
   19MOL    H35 4391   0.584   7.564   4.568  0.8750  0.9215 -1.9045
   19MOL    H36 4392   0.715   7.616   4.672  1.1192 -0.0406 -1.7753
   19MOL    H37 4393   0.735   0.141   4.824  3.1678 -2.0378 -1.2266
   19MOL    C38 4394   0.449   7.569   4.782 -0.5884  0.0070 -0.1166
   19MOL    C39 4395   0.514   7.450   4.861 -0.5022 -0.2868  0.2699
   19MOL    C40 4396   0.614   7.522   4.957 -0.2954 -0.4562  0.2312
   19MOL    C41 4397   0.408   7.384   4.949  0.0868 -0.6417  0.4194
   19MOL    O42 4398   0.304   7.348   4.900 -0.1320  0.5687  0.4717
   19MOL    O43 4399   0.451   7.353   5.077 -0.5554 -0.4512  0.2253
   19MOL    H44 4400   0.360   7.605   4.833 -1.5223 -1.7700 -0.4798
   19MOL    H45 4401   0.408   7.521   4.694 -0.1809 -0.1407 -0.2238
   19MOL    H46 4402   0.710   7.546   4.911 -0.2085 -2.1485 -0.5325
   19MOL    H47 4403   0.656   7.458   5.035 -1.0353 -0.0742  0.9504
   19MOL    H48 4404   0.567   7.599   5.018 -2.3878 -1.9234  0.5392
   19MOL    H49 4405   0.394   7.298   5.128 -0.7771  0.5474  1.0789
   19MOL    C50 4406   0.586   7.346   4.762  0.4334  0.6442  0.1789
   19MOL    C51 4407   0.654   7.219   4.800 -0.4833  0.2702 -0.3879
   19MOL    C52 4408   0.730   7.235   4.933 -0.5060  0.1223  0.3295
   19MOL    C53 4409   0.559   7.096   4.816  0.1930 -0.3571  0.5293
   19MOL    O54 4410   0.434   7.108   4.817 -0.1254 -0.6164 -0.2746
   19MOL    O55 4411   0.627   6.974   4.821 -0.4389 -0.1995  0.3453
   19MOL    H56 4412   0.521   7.328   4.677  1.7379  0.8533 -0.8943
   19MOL    H57 4413   0.670   7.402   4.719  0.1575  3.0646  2.6651
   19MOL    H58 4414   0.787   7.328   4.932  0.7633 -0.6234  1.3078
   19MOL    H59 4415   0.792   7.148   4.957 -1.3304 -0.3927  0.6320
   19MOL    H60 4416   0.676   7.243   5.027  0.8126 -1.7990  1.2895
   19MOL    H61 4417   0.571   6.899   4.834 -0.3845 -0.2520  0.2789
   19MOL    C62 4418   0.743   7.170   4.676 -0.2574  0.0871 -0.2648
   19MOL    C63 4419   0.847   7.258   4.600  0.3001 -0.9083 -0.4352
   19MOL    C64 4420   0.782   7.322   4.477  0.2167 -0.1843 -0.0197
   19MOL    C65 4421   0.926   7.359   4.687 -0.3175  0.0654 -0.2763
   19MOL    O66 4422   0.977   7.332   4.793 -0.0747  0.2336 -0.6324
   19MOL    O67 4423   0.927   7.484   4.629  0.0703  0.5480  0.2728
   19MOL    H68 4424   0.809   7.087   4.703 -0.3308  0.5922  1.5749
   19MOL    H69 4425   0.671   7.150   4.597 -0.8335  0.8862  0.0613
   19MOL    H70 4426   0.691   7.377   4.502 -0.4431 -0.5736 -1.4800
   19MOL    H71 4427   0.739   7.253   4.405  0.0593 -2.5121  2.2436
   19MOL    H72 4428   0.852   7.385   4.422  0.0248  0.8505  0.9153
   19MOL    H73 4429   0.974   7.544   4.685  0.2675 -0.8458  1.6613
   19MOL    C74 4430   0.957   7.160   4.539  0.3093  0.4845  0.4897
   19MOL    C75 4431   1.072   7.195   4.437 -0.0667  0.2461  0.0402
   19MOL    C76 4432   1.157   7.314   4.482  0.2842  0.1613 -0.8746
   19MOL    C77 4433   1.162   7.069   4.447 -0.4971 -0.0138 -0.1898
   19MOL    O78 4434   1.270   7.065   4.503 -0.8053 -0.8226 -0.1675
   19MOL    O79 4435   1.098   6.959   4.390  0.2456 -0.5144 -0.1220
   19MOL    H80 4436   1.005   7.105   4.620  0.6423  2.9294  2.0100
   19MOL    H81 4437   0.897   7.085   4.488 -0.8464  1.3716  0.5252
   19MOL    H82 4438   1.232   7.332   4.405  1.4503  1.7363  0.5743
   19MOL    H83 4439   1.202   7.309   4.582 -1.9248  0.1954  0.1544
   19MOL    H84 4440   1.101   7.407   4.486  0.0638 -0.0227  1.7340
   19MOL    H85 4441   1.146   6.878   4.390 -1.4937 -1.5782  0.6299
   19MOL    C86 4442   1.010   7.228   4.294 -0.5778  0.1308  0.5541
   19MOL    C87 4443   1.055   7.191   4.154 -0.2794  0.5012  0.4303
   19MOL    C88 4444   1.215   7.214   4.145 -0.2532  0.2478 -0.2239
   19MOL    C89 4445   1.021   7.045   4.128 -0.4167  0.2088  0.0064
   19MOL    O90 4446   1.102   6.949   4.126 -0.6142  0.1165  0.0881
   19MOL    O91 4447   0.886   7.024   4.137 -0.5230  0.4627  0.3575
   19MOL    H92 4448   0.907   7.191   4.297 -0.4182 -0.3429  0.3859
   19MOL    H93 4449   1.007   7.336   4.283 -0.8027  0.0581 -0.1544
   19MOL    H94 4450   1.282   7.182   4.224  0.7116  2.4885 -0.1064
   19MOL    H95 4451   1.247   7.314   4.116 -1.5309 -0.1531 -3.2315
   19MOL    H96 4452   1.267   7.157   4.067 -2.1435 -2.2442  0.2593
   19MOL    H97 4453   0.861   6.933   4.144  0.6274  0.0124 -1.1848
   19MOL    C98 4454   0.971   7.286   4.049  0.2828  0.2497  0.3774
   19MOL    C99 4455   0.961   7.257   3.894  0.2864  0.5923 -0.2635
   19MOL   C100 4456   1.101   7.238   3.832 -0.1915 -0.1101  0.0629
   19MOL   C101 4457   0.879   7.127   3.858 -0.5889  0.3844 -0.1784
   19MOL   O102 4458   0.929   7.029   3.810 -0.6202  0.0292 -0.4113
   19MOL   O103 4459   0.754   7.135   3.902  0.5363 -0.2863  0.1536
   19MOL   H104 4460   0.866   7.291   4.079 -1.0626 -1.7589 -3.6316
   19MOL   H105 4461   1.000   7.390   4.063 -1.1513  0.9302 -1.5474
   19MOL   H106 4462   1.165   7.321   3.863 -0.3735  1.1312 -2.7427
   19MOL   H107 4463   1.102   7.234   3.723  1.4316 -2.7086  0.1135
   19MOL   H108 4464   1.144   7.147   3.874 -3.2606 -1.7474 -0.2659
   19MOL   H109 4465   0.714   7.070   3.848  1.0061  0.1738 -0.7529
   19MOL   C110 4466   0.891   7.381   3.827  0.2009  0.6756 -0.2218
   19MOL   C111 4467   0.831   7.383   3.677 -0.1936  1.1307 -0.3246
   19MOL   C112 4468   0.898   7.293   3.571 -0.6494  0.0801  0.4741
   19MOL   C113 4469   0.685   7.348   3.677  0.0848  0.2485  1.0425
   19MOL   O114 4470   0.640   7.271   3.592 -0.4248  0.0380 -0.1766
   19MOL   O115 4471   0.603   7.413   3.765  0.2129  1.0247  1.1000
   19MOL   H116 4472   0.805   7.395   3.892  0.1825 -2.6081  0.5346
   19MOL   H117 4473   0.953   7.469   3.844 -0.2677  1.0160 -0.2459
   19MOL   H118 4474   0.853   7.292   3.471 -0.5778 -1.9958  0.4363
   19MOL   H119 4475   0.896   7.187   3.593 -0.2063 -0.6002 -2.4690
   19MOL   H120 4476   1.004   7.312   3.553 -0.7151 -1.8815 -2.4111
   19MOL   H121 4477   0.519   7.370   3.763  0.3408  0.7887 -1.1537
   19MOL   C122 4478   0.829   7.532   3.623  0.3576 -0.1559  0.0955
   19MOL   C123 4479   0.963   7.604   3.560  0.1241 -0.0308 -0.1263
   19MOL   C124 4480   1.100   7.583   3.646  1.1118  0.0509  0.0167
   19MOL   C125 4481   0.996   7.540   3.422  0.3336 -0.3895  0.1603
   19MOL   O126 4482   0.906   7.533   3.334 -0.0038 -0.4107  0.3582
   19MOL   O127 4483   1.131   7.532   3.397 -0.4985 -0.0046  0.2548
   19MOL   H128 4484   0.747   7.552   3.555  0.7781 -0.3896 -0.4865
   19MOL   H129 4485   0.818   7.585   3.718  1.1234 -0.9981  0.6661
   19MOL   H130 4486   1.189   7.638   3.615  0.3069  0.9495 -0.7464
   19MOL   H131 4487   1.118   7.478   3.669 -1.5083  0.1584  3.0809
   19MOL   H132 4488   1.092   7.627   3.746  0.9374  0.6152 -0.2416
   19MOL   H133 4489   1.146   7.522   3.305 -2.3968  0.2996 -0.1161
   19MOL   C134 4490   0.941   7.752   3.533 -0.1541 -0.2062  0.5294
   19MOL   C135 4491   0.939   0.099   3.645 -0.4526  0.5094 -1.3061
   19MOL   C136 4492   0.858   0.056   3.764  0.4268  0.2995 -0.4741
   19MOL   C137 4493   1.089   0.137   3.681 -0.0648  0.2431 -0.3701
   19MOL   O138 4494   1.129   0.126   3.798  0.1169 -1.1216 -0.2759
   19MOL   O139 4495   1.153   0.186   3.572 -0.1949  0.0473 -0.1164
   19MOL   H140 4496   1.004   0.015   3.450 -3.2286  2.5752 -0.9017
   19MOL   H141 4497   0.848   7.756   3.477  0.7687 -0.4656 -1.0433
   19MOL   H142 4498   0.838   0.141   3.828  0.2645  0.9606 -1.3910
   19MOL   H143 4499   0.909   7.755   3.831 -2.6373 -0.6410  0.9929
   19MOL   H144 4500   0.765   0.010   3.729 -0.4360  1.0708  0.7994
   19MOL   H145 4501   1.239   0.223   3.586  0.7514 -1.2253 -2.3101
   19MOL   C146 4502   0.872   0.239   3.587 -0.1472  0.2583  0.6132
   19MOL   C147 4503   0.876   0.382   3.646  0.4108  0.5189  0.2220
   19MOL   C148 4504   0.729   0.440   3.607 -0.4286  0.2333  0.1445
   19MOL   C149 4505   0.875   0.385   3.800 -0.4210 -0.1366 -0.3090
   19MOL   O150 4506   0.778   0.407   3.873 -0.3585 -0.0853 -0.9648
   19MOL   O151 4507   0.985   0.351   3.856 -0.1243  0.3013 -0.6231
   19MOL   H152 4508   0.902   0.249   3.483  1.3141  0.1790  1.0124
   19MOL   H153 4509   0.765   0.220   3.588 -0.0097 -0.7375 -2.0963
   19MOL   H154 4510   0.646   0.386   3.652  0.5454 -0.4675  1.1539
   19MOL   H155 4511   0.720   0.419   3.501  0.4172 -2.6590  0.6023
   19MOL   H156 4512   0.717   0.545   3.636 -0.9730 -0.3685  2.1713
   19MOL   H157 4513   0.984   0.368   3.949  1.2843 -2.7133 -0.0114
   19MOL   C158 4514   0.994   0.468   3.587 -0.1422  0.0749  0.1335
   19MOL   C159 4515   1.053   0.606   3.630 -0.0129 -0.2160  0.5643
   19MOL   C160 4516   0.940   0.709   3.662 -0.1610 -0.1266  0.6093
   19MOL   C161 4517   1.143   0.578   3.754  0.2822 -0.9313  0.1535
   19MOL   O162 4518   1.148   0.651   3.851 -0.5231 -0.5191  0.0856
   19MOL   O163 4519   1.227   0.476   3.724 -0.0243 -0.1292  0.2210
   19MOL   H164 4520   1.079   0.410   3.551 -0.9126 -1.2898  0.4722
   19MOL   H165 4521   0.944   0.493   3.493  0.0102 -0.8297 -0.1937
   19MOL   H166 4522   0.981   0.800   3.707  3.6524 -1.1528 -0.5605
   19MOL   H167 4523   0.870   0.676   3.739 -0.1192 -0.7539  0.3774
   19MOL   H168 4524   0.878   0.732   3.576  1.2005  0.8437 -0.1294
   19MOL   H169 4525   1.286   0.457   3.796  0.2540  3.3911  1.0066
   19MOL   C170 4526   1.146   0.653   3.509 -0.4401 -0.0611 -0.6328
   19MOL   C171 4527   1.272   0.756   3.523  0.4076  0.5480  0.1893
   19MOL   C172 4528   1.397   0.687   3.586 -0.0138  0.2011  0.5374
   19MOL   C173 4529   1.303   0.788   3.378  0.4562 -0.3829 -0.2019
   19MOL   O174 4530   1.397   0.750   3.312 -0.0284  0.1853 -0.5602
   19MOL   O175 4531   1.207   0.862   3.319 -0.2184 -0.0479  0.2327
   19MOL   H176 4532   1.182   0.560   3.466  1.5591  0.5802 -0.4100
   19MOL   H177 4533   1.070   0.698   3.445 -0.8695 -1.2717 -0.9871
   19MOL   H178 4534   1.489   0.744   3.571  0.5043 -0.1651  2.2747
   19MOL   H179 4535   1.407   0.583   3.554  0.0190  0.1791  0.6192
   19MOL   H180 4536   1.375   0.692   3.692 -1.1109 -0.5058  0.3469
   19MOL   H181 4537   1.183   0.930   3.381  1.1596  1.6228 -1.0114
   19MOL   C182 4538   1.228   0.880   3.601  0.0753 -0.5842  0.4009
   19MOL   C183 4539   1.300   1.017   3.606  0.1367  0.4940 -0.0749
   19MOL   C184 4540   1.455   0.996   3.613  0.0265 -0.0206  0.9955
   19MOL   C185 4541   1.268   1.117   3.492  0.0603  0.0844  0.0454
   19MOL   O186 4542   1.163   1.117   3.425  0.0200  0.6058  0.5215
   19MOL   O187 4543   1.367   1.211   3.484  0.2586  0.1876 -0.3343
   19MOL   H188 4544   1.126   0.904   3.571 -0.3583  0.8166  2.8511
   19MOL   H189 4545   1.202   0.843   3.700  0.2556  2.7491  1.7673
   19MOL   H190 4546   1.507   0.937   3.538 -0.5922 -0.2293  0.7308
   19MOL   H191 4547   1.485   0.949   3.707 -0.3022 -1.6840  0.2828
   19MOL   H192 4548   1.505   1.092   3.625 -1.3788  0.8531  0.0219
   19MOL   H193 4549   1.357   1.276   3.416 -0.8032  0.5786  0.1766
   19MOL   C194 4550   1.245   1.086   3.745 -0.1560  0.4857 -0.5512
   19MOL   C195 4551   1.312   1.074   3.886 -0.5499 -0.0988 -0.8926
   19MOL   C196 4552   1.308   0.925   3.927 -0.0862 -0.0952 -0.1944
   19MOL   C197 4553   1.452   1.138   3.898 -0.0400 -0.1712 -0.0473
   19MOL   O198 4554   1.546   1.080   3.947  0.5984 -0.4070 -0.3033
   19MOL   O199 4555   1.454   1.267   3.861  0.0279  0.1566  0.3872
   19MOL   H200 4556   1.226   1.192   3.728  0.4463  0.7060  0.1567
   19MOL   H201 4557   1.144   1.045   3.755 -0.1551  0.2343 -1.4875
   19MOL   H202 4558   1.369   0.866   3.858 -1.0418 -2.2691  0.7650
   19MOL   H203 4559   1.206   0.889   3.938 -0.4244  1.6964  3.1817
   19MOL   H204 4560   1.368   0.900   4.015  1.1574 -0.0097 -1.0017
   19MOL   H205 4561   1.540   1.297   3.886  0.2560 -0.0241 -0.1896
   19MOL   C206 4562   1.211   1.142   3.985  0.6154 -0.3292 -0.1754
   19MOL   C207 4563   1.236   1.164   4.144  0.3237 -0.6874  0.4147
   19MOL   C208 4564   1.319   1.053   4.219  0.0417 -0.2335  0.5721
   19MOL   C209 4565   1.328   1.287   4.169  0.3130  0.3446 -0.4749
   19MOL   O210 4566   1.452   1.282   4.200 -0.0319 -0.3920  0.7761
   19MOL   O211 4567   1.264   1.405   4.154  0.8587 -0.5265  0.5086
   19MOL   H212 4568   1.198   1.244   3.949  0.0110  0.4697  2.2138
   19MOL   H213 4569   1.113   1.098   3.968  0.1715 -0.2329  2.0175
   19MOL   H214 4570   1.275   0.954   4.207  1.0881 -1.1813  3.9473
   19MOL   H215 4571   1.314   1.071   4.326 -1.4715  0.1342  0.4438
   19MOL   H216 4572   1.426   1.051   4.195 -0.3346  0.2996 -1.1636
   19MOL   H217 4573   1.313   1.483   4.175  2.1311 -0.6304 -1.8127
   19MOL   C218 4574   1.096   1.193   4.207  0.8197  0.0005  0.3634
   19MOL   C219 4575   0.980   1.081   4.234  0.2317  0.0545  0.4359
   19MOL   C220 4576   0.841   1.147   4.209 -0.1519  0.5541  0.0129
   19MOL   C221 4577   0.990   0.958   4.142 -0.2079 -0.6832 -0.4829
   19MOL   O222 4578   1.052   0.855   4.164 -0.3520  0.5834 -0.1080
   19MOL   O223 4579   0.926   0.974   4.019 -0.3595  0.8232 -0.0445
   19MOL   H224 4580   1.130   1.224   4.306 -2.5035  1.8617  0.9876
   19MOL   H225 4581   1.052   1.284   4.166 -2.5471 -1.4250  0.6454
   19MOL   H226 4582   0.832   1.198   4.114 -1.1986  0.5088  0.0850
   19MOL   H227 4583   0.818   1.223   4.284 -3.4558 -0.8019  0.4492
   19MOL   H228 4584   0.757   1.078   4.206  0.7464 -0.5820  0.2443
   19MOL   H229 4585   0.936   0.901   3.961 -2.5659 -1.7396  2.5983
   19MOL   C230 4586   0.991   1.027   4.383 -0.0591  0.7510 -0.0054
   19MOL   C231 4587   0.893   0.919   4.433 -0.0141  0.5868 -0.5297
   19MOL   C232 4588   0.952   0.853   4.554  0.0714 -0.0726 -0.3836
   19MOL   C233 4589   0.749   0.978   4.467  0.4428  1.2332  0.2050
   19MOL   O234 4590   0.647   0.946   4.407  0.2903  0.3196 -0.5509
   19MOL   O235 4591   0.752   1.078   4.560 -0.2368 -0.4568 -0.9695
   19MOL   H236 4592   1.094   0.995   4.400 -0.1480 -0.5730 -1.7511
   19MOL   H237 4593   0.980   1.117   4.443 -0.5827  1.3192 -0.9385
   19MOL   H238 4594   0.991   0.930   4.621 -0.2471 -0.0148 -0.2621
   19MOL   H239 4595   1.028   0.777   4.535  1.3762  1.0564  0.2113
   19MOL   H240 4596   0.870   0.797   4.600  1.1356 -2.2507 -1.0558
   19MOL   H241 4597   0.668   1.116   4.581 -0.6078 -1.6913 -0.1850
   19MOL   H242 4598   0.890   0.835   4.362 -1.5952  0.5471 -0.4351
   20MOL     C1 4599   4.300   1.452   1.522 -0.0166  0.3676  0.5109
   20MOL     C2 4600   4.449   1.416   1.542 -0.4228 -0.1799  0.1004
   20MOL     C3 4601   4.514   1.363   1.410 -0.4646 -0.0049 -0.1974
   20MOL     C4 4602   4.541   1.545   1.568 -0.8817 -0.5191  0.2697
   20MOL     O5 4603   4.501   1.656   1.544 -0.8347  0.2047 -0.2584
   20MOL     O6 4604   4.674   1.521   1.600  0.1350 -0.1274 -0.1101
   20MOL     H7 4605   4.252   1.459   1.620 -3.1882 -0.6628 -0.9123
   20MOL     H8 4606   4.250   1.385   1.453 -0.5604 -0.3822  1.6215
   20MOL     H9 4607   4.508   1.434   1.327 -0.8420  0.9568  0.6405
   20MOL    H10 4608   4.472   1.268   1.375  1.2928 -0.7633 -0.2743
   20MOL    H11 4609   4.621   1.349   1.423 -0.5709 -0.4926  0.1557
   20MOL    H12 4610   4.738   1.589   1.608 -0.8638  0.5606  2.4577
   20MOL    H13 4611   4.276   1.555   1.493  1.3675 -0.1273 -2.6187
   20MOL    C14 4612   4.471   1.322   1.668  0.3834  0.5784  0.1942
   20MOL    C15 4613   4.432   1.166   1.666 -0.7171  0.0057 -0.4269
   20MOL    C16 4614   4.285   1.152   1.638 -0.0213  0.2378  0.3139
   20MOL    C17 4615   4.518   1.080   1.569 -0.4824  0.2244  0.1823
   20MOL    O18 4616   4.637   1.066   1.574  0.1372 -0.2027  0.1635
   20MOL    O19 4617   4.441   1.010   1.480 -0.3447  0.2956 -0.2828
   20MOL    H20 4618   4.579   1.319   1.685  0.9211  0.4661 -2.9643
   20MOL    H21 4619   4.420   1.364   1.754  0.6218 -0.0094  0.6225
   20MOL    H22 4620   4.248   1.049   1.635  0.2795  0.1627 -1.0904
   20MOL    H23 4621   4.250   1.196   1.545 -2.5321 -1.6740  0.2973
   20MOL    H24 4622   4.229   1.214   1.708 -1.6410  0.4314 -1.1010
   20MOL    H25 4623   4.500   0.951   1.435 -1.3459  0.7371 -2.1728
   20MOL    C26 4624   4.466   1.102   1.810 -0.1536 -0.5756 -0.1005
   20MOL    C27 4625   4.397   0.970   1.870  0.0494  0.5231 -0.0304
   20MOL    C28 4626   4.409   0.846   1.770 -0.5588 -0.3363 -0.0710
   20MOL    C29 4627   4.488   0.917   1.996 -0.2026 -0.2064  0.0905
   20MOL    O30 4628   4.602   0.955   2.018  0.3282  0.1846  0.2727
   20MOL    O31 4629   4.424   0.828   2.070  0.0741  0.7128 -0.2249
   20MOL    H32 4630   4.574   1.087   1.815 -0.2186 -1.2433 -0.5989
   20MOL    H33 4631   4.459   1.176   1.890  0.6765 -0.4559 -0.1322
   20MOL    H34 4632   4.357   0.754   1.798 -1.9491 -0.2217 -2.1926
   20MOL    H35 4633   4.511   0.824   1.738  0.4438  2.7521  0.8148
   20MOL    H36 4634   4.356   0.872   1.679  0.7696  0.5988 -0.5801
   20MOL    H37 4635   4.469   0.789   2.143  0.8622  2.0087 -0.0081
   20MOL    C38 4636   4.249   0.982   1.925  0.0327 -0.1247  0.3596
   20MOL    C39 4637   4.194   1.080   2.040 -0.4772 -0.4322 -0.2458
   20MOL    C40 4638   4.290   1.090   2.162  0.1637 -0.5169  0.0418
   20MOL    C41 4639   4.181   1.213   1.965 -0.0033 -0.3748  0.2854
   20MOL    O42 4640   4.092   1.236   1.884  0.6722  0.0732 -0.3090
   20MOL    O43 4641   4.283   1.293   1.998  0.3401 -1.0688 -0.0133
   20MOL    H44 4642   4.190   0.997   1.835 -0.4550  0.4693  0.7746
   20MOL    H45 4643   4.210   0.886   1.960  0.5465  0.2837  2.0823
   20MOL    H46 4644   4.261   1.167   2.233  1.9346 -0.7104  1.0057
   20MOL    H47 4645   4.395   1.115   2.154  0.1399  0.5557  2.8131
   20MOL    H48 4646   4.296   0.997   2.218  0.3390 -0.4928  0.0623
   20MOL    H49 4647   4.257   1.379   1.969  0.8310 -0.0148  2.5007
   20MOL    C50 4648   4.055   1.018   2.088  0.7465  0.2468 -0.3343
   20MOL    C51 4649   3.962   1.073   2.205  0.5711 -0.3673 -0.1959
   20MOL    C52 4650   3.961   1.229   2.188 -0.1541 -0.9156 -0.6393
   20MOL    C53 4651   3.813   1.027   2.186 -0.1060  0.2950 -0.4776
   20MOL    O54 4652   3.713   1.105   2.187  0.2237 -0.6882  1.1156
   20MOL    O55 4653   3.801   0.889   2.166 -0.3847  0.2906  0.1278
   20MOL    H56 4654   4.001   1.015   1.994  2.9275  2.1797 -1.6849
   20MOL    H57 4655   4.068   0.912   2.107  1.0069  0.0831 -1.4336
   20MOL    H58 4656   4.050   1.283   2.223  0.7193 -1.0818 -2.5164
   20MOL    H59 4657   3.881   1.269   2.251  0.0216 -2.5656  0.6720
   20MOL    H60 4658   3.944   1.254   2.083 -1.1550  2.0394  0.1903
   20MOL    H61 4659   3.713   0.854   2.168 -0.3485  0.1863  2.9405
   20MOL    C62 4660   4.018   1.017   2.344  0.2822 -0.0784  0.0185
   20MOL    C63 4661   3.937   1.017   2.484 -0.5012  0.4126 -0.0633
   20MOL    C64 4662   3.807   0.944   2.478  0.3190  0.6152  0.6044
   20MOL    C65 4663   4.025   0.930   2.580 -0.2009  0.1877 -0.2256
   20MOL    O66 4664   3.985   0.837   2.655 -0.4113 -0.7210  0.1602
   20MOL    O67 4665   4.151   0.970   2.567 -0.0064 -0.1910 -0.6712
   20MOL    H68 4666   4.045   0.913   2.329  0.2814  0.0792 -1.1432
   20MOL    H69 4667   4.110   1.072   2.364 -0.2210  0.2632  1.4755
   20MOL    H70 4668   3.726   1.001   2.432 -0.9496 -1.2015  0.5409
   20MOL    H71 4669   3.769   0.921   2.577  1.9682 -0.2586  1.0455
   20MOL    H72 4670   3.821   0.858   2.413  0.1402  0.3961  0.8557
   20MOL    H73 4671   4.222   0.926   2.612  1.0263  1.2906 -0.7837
   20MOL    C74 4672   3.925   1.169   2.535  0.2322  0.2825 -0.1806
   20MOL    C75 4673   3.843   1.216   2.653  0.1453 -0.4994 -0.6102
   20MOL    C76 4674   3.689   1.211   2.617  0.4052  0.1778 -0.3110
   20MOL    C77 4675   3.875   1.131   2.780  0.4515  0.3981 -0.4039
   20MOL    O78 4676   3.984   1.127   2.838  0.1415  0.7290 -0.6083
   20MOL    O79 4677   3.764   1.065   2.816 -0.0740  0.4628  0.5269
   20MOL    H80 4678   4.030   1.194   2.549 -0.2595  1.6743  1.2778
   20MOL    H81 4679   3.903   1.246   2.461  1.1083  0.7872  0.0748
   20MOL    H82 4680   3.678   1.264   2.522 -1.8241  0.1276 -0.1082
   20MOL    H83 4681   3.628   1.267   2.688  0.4346  0.4153 -0.4728
   20MOL    H84 4682   3.653   1.109   2.606 -0.2889  0.4366 -0.4808
   20MOL    H85 4683   3.794   1.020   2.893 -1.9810 -1.6843  0.0662
   20MOL    C86 4684   3.887   1.369   2.675  0.7003  1.1816 -0.1611
   20MOL    C87 4685   3.867   1.453   2.806 -0.4839 -0.3932 -0.3287
   20MOL    C88 4686   3.723   1.441   2.863  0.1548  0.7161 -0.7338
   20MOL    C89 4687   3.982   1.415   2.902  0.3721  0.3660 -0.9997
   20MOL    O90 4688   3.966   1.382   3.021 -0.0366 -0.1719 -0.6889
   20MOL    O91 4689   4.100   1.419   2.840  0.1620  0.1033 -0.3826
   20MOL    H92 4690   3.989   1.388   2.639  1.2073  0.2641  0.7711
   20MOL    H93 4691   3.847   1.422   2.589  0.1430  0.0210 -0.6199
   20MOL    H94 4692   3.692   1.498   2.950  0.6846  2.5715 -1.7256
   20MOL    H95 4693   3.713   1.338   2.899 -1.4118  1.2475  0.3796
   20MOL    H96 4694   3.653   1.461   2.782  0.4279 -0.1149 -1.1815
   20MOL    H97 4695   4.173   1.401   2.897 -2.4659 -2.3779  2.2899
   20MOL    C98 4696   3.900   1.603   2.756 -0.4367  0.4255  0.5016
   20MOL    C99 4697   3.933   1.726   2.851  0.2584 -0.4699  0.4514
   20MOL   C100 4698   4.080   1.705   2.897  0.9465 -0.4569 -0.2613
   20MOL   C101 4699   3.926   1.864   2.771  0.5412  0.2366  0.1165
   20MOL   O102 4700   4.025   1.938   2.741  0.8288  0.4780  0.4230
   20MOL   O103 4701   3.799   1.876   2.725  0.5111  0.2130  0.2258
   20MOL   H104 4702   3.973   1.610   2.676 -2.6961  1.7637 -1.5198
   20MOL   H105 4703   3.807   1.628   2.705 -0.1552  0.6435  0.0931
   20MOL   H106 4704   4.121   1.802   2.924  1.1188 -0.3682 -0.8342
   20MOL   H107 4705   4.146   1.668   2.818 -0.0450 -1.6888 -0.5418
   20MOL   H108 4706   4.075   1.649   2.990  0.6031 -0.4506 -0.2783
   20MOL   H109 4707   3.771   1.946   2.668  0.6996 -0.4047 -0.6322
   20MOL   C110 4708   3.833   1.727   2.970 -0.1118  0.0108 -0.2707
   20MOL   C111 4709   3.811   1.851   3.074  0.3543 -0.2215  0.2189
   20MOL   C112 4710   3.729   1.966   3.006 -0.0386 -0.1839  0.6961
   20MOL   C113 4711   3.715   1.787   3.177 -0.7058  0.2612 -0.0650
   20MOL   O114 4712   3.751   1.737   3.280  0.0410  0.9260 -0.7389
   20MOL   O115 4713   3.590   1.772   3.124  0.0863 -0.4815  0.4237
   20MOL   H116 4714   3.741   1.695   2.921 -1.6389  1.4258  1.5709
   20MOL   H117 4715   3.868   1.647   3.035  0.5574 -1.1150 -1.9992
   20MOL   H118 4716   3.663   2.025   3.070 -0.5127  0.9814 -0.8493
   20MOL   H119 4717   3.665   1.941   2.922  2.8842  2.7191 -2.5794
   20MOL   H120 4718   3.807   2.028   2.962  1.8005 -2.0903  1.1765
   20MOL   H121 4719   3.542   1.716   3.183 -1.2062 -0.0336 -0.1829
   20MOL   C122 4720   3.953   1.894   3.131  0.4714  0.1064  0.0515
   20MOL   C123 4721   3.983   2.006   3.233  0.3834 -0.1912 -0.0041
   20MOL   C124 4722   3.936   2.145   3.193 -0.0550 -0.7208 -0.2868
   20MOL   C125 4723   3.921   1.971   3.371  0.1480  0.2656  0.3524
   20MOL   O126 4724   3.943   1.863   3.430  0.6508 -0.3413 -0.1681
   20MOL   O127 4725   3.850   2.067   3.429  0.1141 -0.5503 -0.0050
   20MOL   H128 4726   4.005   1.806   3.169  0.5773 -0.5304 -1.5449
   20MOL   H129 4727   4.012   1.932   3.048 -0.2140  1.2516  0.0631
   20MOL   H130 4728   3.975   2.186   3.100 -0.4675  0.7576  0.1722
   20MOL   H131 4729   3.949   2.222   3.268  2.7079 -2.1691  0.7675
   20MOL   H132 4730   3.828   2.132   3.178 -0.0351 -0.3137 -0.7830
   20MOL   H133 4731   3.802   2.032   3.503  1.2159  1.7726  1.8851
   20MOL   C134 4732   4.146   2.017   3.239 -0.7138 -0.2317  0.1321
   20MOL   C135 4733   4.235   2.067   3.357 -0.0228 -0.6735  0.0861
   20MOL   C136 4734   4.379   2.078   3.298  0.6290 -0.0207 -1.2222
   20MOL   C137 4735   4.187   2.216   3.399  0.3516 -0.2495  0.5707
   20MOL   O138 4736   4.111   2.242   3.492 -0.3616 -0.2052  0.6523
   20MOL   O139 4737   4.209   2.304   3.301 -0.0646  0.0988  0.3646
   20MOL   H140 4738   4.178   1.915   3.217 -2.7302 -1.2326  1.5882
   20MOL   H141 4739   4.177   2.069   3.149  2.6032  2.2483  2.5931
   20MOL   H142 4740   4.402   1.981   3.254 -0.9793 -0.8624 -0.2540
   20MOL   H143 4741   4.459   2.079   3.372  0.0625 -1.4214 -0.5652
   20MOL   H144 4742   4.389   2.158   3.225 -0.3248  0.7968 -0.4604
   20MOL   H145 4743   4.161   2.384   3.318 -1.6902 -1.4105  3.2978
   20MOL   C146 4744   4.216   1.974   3.483 -0.5396  0.3920  0.4188
   20MOL   C147 4745   4.332   1.939   3.591 -0.3739  0.3486 -0.5014
   20MOL   C148 4746   4.428   1.831   3.521 -0.5440  0.1125  0.6085
   20MOL   C149 4747   4.395   2.074   3.639  0.1318  0.3742  0.8693
   20MOL   O150 4748   4.334   2.165   3.699  0.1348  0.5964  0.1082
   20MOL   O151 4749   4.535   2.071   3.616  0.2340  0.3433 -0.2457
   20MOL   H152 4750   4.128   2.011   3.535 -0.6852  1.3614 -0.5038
   20MOL   H153 4751   4.186   1.877   3.444  0.2610  1.1806 -2.3353
   20MOL   H154 4752   4.516   1.801   3.579  1.4074 -1.6405 -3.0277
   20MOL   H155 4753   4.462   1.867   3.424 -0.8452 -1.8370 -0.2506
   20MOL   H156 4754   4.378   1.738   3.497 -1.9067 -0.1716  4.1974
   20MOL   H157 4755   4.576   2.154   3.635  1.9672 -0.2751 -1.1275
   20MOL   C158 4756   4.261   1.875   3.717  0.5022  0.0594  0.2963
   20MOL   C159 4757   4.330   1.825   3.855  0.7870 -0.1517 -0.3208
   20MOL   C160 4758   4.234   1.874   3.963 -0.1554  0.0671 -0.6622
   20MOL   C161 4759   4.328   1.666   3.857 -0.6876 -0.4183  0.1464
   20MOL   O162 4760   4.276   1.595   3.941 -0.1100  0.5667 -0.2423
   20MOL   O163 4761   4.405   1.616   3.756 -0.5141 -0.3507  0.3471
   20MOL   H164 4762   4.183   1.948   3.740 -0.8167 -1.5869  1.1921
   20MOL   H165 4763   4.200   1.794   3.678  1.0936  0.2142 -0.9652
   20MOL   H166 4764   4.214   1.982   3.961 -1.3073 -0.1483 -4.2890
   20MOL   H167 4765   4.244   1.840   4.066  0.7930  2.4137  0.0577
   20MOL   H168 4766   4.137   1.832   3.936  1.2334 -2.9633 -1.0469
   20MOL   H169 4767   4.406   1.522   3.761  1.2716 -0.3746 -0.0033
   20MOL   C170 4768   4.470   1.878   3.883  0.6504  0.1309 -0.5915
   20MOL   C171 4769   4.568   1.825   3.990 -0.5335  0.3401 -0.4497
   20MOL   C172 4770   4.495   1.797   4.134 -0.1032  0.4761 -0.1879
   20MOL   C173 4771   4.647   1.696   3.940  0.1099 -0.0348  0.1113
   20MOL   O174 4772   4.717   1.683   3.838  0.1900  0.5862 -0.4600
   20MOL   O175 4773   4.628   1.591   4.024 -0.2864  0.2256  0.6360
   20MOL   H176 4774   4.526   1.870   3.790  0.0084  0.6145 -1.0206
   20MOL   H177 4775   4.457   1.986   3.884  2.3053  0.3536 -0.9765
   20MOL   H178 4776   4.435   1.887   4.147 -1.4596  0.1099 -3.3131
   20MOL   H179 4777   4.561   1.765   4.214 -0.8761  0.1473  0.3208
   20MOL   H180 4778   4.418   1.720   4.121  0.5779 -0.6489  2.1816
   20MOL   H181 4779   4.691   1.525   3.999 -1.1591 -0.1370 -0.6978
   20MOL   C182 4780   4.665   1.945   4.020  0.3888 -0.8122 -0.3439
   20MOL   C183 4781   4.807   1.941   4.091  0.1034 -1.0412 -0.1693
   20MOL   C184 4782   4.903   1.860   3.992  0.3675 -0.1354  0.0179
   20MOL   C185 4783   4.859   2.089   4.094  0.3525 -0.3147  0.6350
   20MOL   O186 4784   4.962   2.123   4.044 -0.2061 -0.1016  0.0393
   20MOL   O187 4785   4.766   2.181   4.141 -0.4410 -0.7897  0.0471
   20MOL   H188 4786   4.687   1.999   3.928  2.4035 -0.2773  0.4335
   20MOL   H189 4787   4.593   2.011   4.068  0.8266  0.4593 -1.4066
   20MOL   H190 4788   5.012   1.870   4.000  0.5116 -0.5804 -1.3428
   20MOL   H191 4789   4.886   1.887   3.888 -0.7795  1.9610  0.7132
   20MOL   H192 4790   4.889   1.752   3.989 -0.4332  0.0052 -2.0547
   20MOL   H193 4791   4.803   2.267   4.126 -1.7855  0.0744  1.5325
   20MOL   C194 4792   4.793   1.869   4.231 -0.3397 -0.5895  0.3568
   20MOL   C195 4793   4.910   1.878   4.337 -0.4034  0.2844 -0.0127
   20MOL   C196 4794   5.043   1.874   4.257 -0.1388  0.3688 -0.2081
   20MOL   C197 4795   4.921   2.011   4.420 -0.6076 -0.5572  0.4598
   20MOL   O198 4796   5.026   2.066   4.438 -0.3626  0.0416 -0.3612
   20MOL   O199 4797   4.800   2.057   4.461 -0.2529 -0.4581 -0.8228
   20MOL   H200 4798   4.700   1.903   4.278 -0.7882  1.6919 -2.0614
   20MOL   H201 4799   4.770   1.763   4.218 -0.9833 -0.7010  2.2583
   20MOL   H202 4800   5.123   1.852   4.328 -0.9100 -0.3468  0.4579
   20MOL   H203 4801   5.071   1.962   4.200  2.7364  0.0758  0.6640
   20MOL   H204 4802   5.038   1.793   4.184 -0.1227  0.8264 -0.7165
   20MOL   H205 4803   4.816   2.134   4.513 -1.9293 -0.4508 -0.2892
   20MOL   C206 4804   4.901   1.754   4.439 -0.0079  0.4019  0.0309
   20MOL   C207 4805   4.776   1.709   4.536  0.0091  0.0549 -0.1364
   20MOL   C208 4806   4.656   1.665   4.450  0.2157  0.6811 -0.2154
   20MOL   C209 4807   4.834   1.581   4.612  0.2426  0.8108  0.0911
   20MOL   O210 4808   4.793   1.466   4.602 -0.0731  0.4894 -0.1561
   20MOL   O211 4809   4.942   1.603   4.692 -0.0257 -0.2973 -0.4475
   20MOL   H212 4810   4.922   1.664   4.382 -3.1799 -1.0181  0.9982
   20MOL   H213 4811   4.986   1.758   4.506 -0.1103  0.3213  0.1685
   20MOL   H214 4812   4.587   1.749   4.442  0.9338  1.4268  1.1196
   20MOL   H215 4813   4.591   1.600   4.509 -0.7902 -0.1605 -2.1912
   20MOL   H216 4814   4.683   1.597   4.369 -2.9927  0.7554 -1.4315
   20MOL   H217 4815   4.978   1.523   4.726  1.3491  1.0408  1.3752
   20MOL   C218 4816   4.746   1.825   4.642  0.0837  0.5395 -0.1651
   20MOL   C219 4817   4.667   1.819   4.779  0.6907 -0.3085  0.4488
   20MOL   C220 4818   4.756   1.810   4.899  0.2752  0.2681  0.5094
   20MOL   C221 4819   4.592   1.955   4.787 -0.5777  0.1493  0.0584
   20MOL   O222 4820   4.475   1.965   4.813 -0.1814 -0.4729  0.4915
   20MOL   O223 4821   4.669   2.064   4.764  0.3130 -0.4575 -0.0765
   20MOL   H224 4822   4.834   1.884   4.664  0.7332 -0.8617  1.1009
   20MOL   H225 4823   4.689   1.891   4.577 -4.1664 -0.0565  2.6986
   20MOL   H226 4824   4.712   1.825   4.998  1.1971 -1.6916  1.2390
   20MOL   H227 4825   4.839   1.881   4.899 -0.8904  1.6712  0.6410
   20MOL   H228 4826   4.799   1.710   4.906  0.7338  0.5959  3.0246
   20MOL   H229 4827   4.639   2.151   4.786 -1.6066 -0.8037 -1.2150
   20MOL   C230 4828   4.564   1.701   4.786 -0.3047 -0.4657  0.4884
   20MOL   C231 4829   4.505   1.663   4.930 -0.3991 -0.3118  0.8030
   20MOL   C232 4830   4.357   1.657   4.913 -0.1600  0.1141  0.2917
   20MOL   C233 4831   4.554   1.528   4.992  0.2169 -0.0446  0.1767
   20MOL   O234 4832   4.626   1.444   4.937  0.4252  0.6130 -0.0588
   20MOL   O235 4833   4.507   1.509   5.121 -0.4178  0.0983  0.0091
   20MOL   H236 4834   4.486   1.719   4.713  0.4971  0.9847 -0.0421
   20MOL   H237 4835   4.612   1.607   4.758  0.5064 -1.1886  4.0599
   20MOL   H238 4836   4.309   1.640   5.009 -0.9106 -1.0502 -0.2817
   20MOL   H239 4837   4.331   1.572   4.851  1.1850 -2.1882  2.8180
   20MOL   H240 4838   4.315   1.750   4.874 -2.0264 -1.1356 -0.7411
   20MOL   H241 4839   4.532   1.423   5.149  0.4874  0.1730 -0.5282
   20MOL   H242 4840   4.509   1.741   5.005 -1.7008  1.2742 -0.7480
   21MOL     C1 4841   0.794   3.970   1.515 -0.8188  0.3422  0.5908
   21MOL     C2 4842   0.903   4.039   1.424  0.5652  0.3481 -0.8805
   21MOL     C3 4843   0.977   4.154   1.501  0.1760  0.6750  0.9889
   21MOL     C4 4844   1.013   3.934   1.394  0.1961 -0.5141 -0.5835
   21MOL     O5 4845   1.093   3.950   1.302 -0.3139  0.2933  0.2412
   21MOL     O6 4846   1.019   3.832   1.481  0.3423  0.2612  0.2191
   21MOL     H7 4847   0.838   3.932   1.607  0.9695  0.4103 -0.2291
   21MOL     H8 4848   0.759   3.877   1.470  1.7909 -0.3104 -0.1373
   21MOL     H9 4849   1.005   4.114   1.599 -1.6278  0.4961  1.4530
   21MOL    H10 4850   0.905   4.234   1.513 -2.6634 -1.5272 -0.7797
   21MOL    H11 4851   1.068   4.194   1.455  1.3072 -0.3738  2.2773
   21MOL    H12 4852   1.100   3.787   1.463  1.1650  1.1580  1.5646
   21MOL    H13 4853   0.702   4.027   1.527 -1.3685 -0.1192 -1.2556
   21MOL    C14 4854   0.848   4.113   1.299  0.3579  0.0311  0.1324
   21MOL    C15 4855   0.756   4.050   1.193  0.0252 -0.1736  0.6472
   21MOL    C16 4856   0.802   3.907   1.145 -0.2003 -0.1871  0.2007
   21MOL    C17 4857   0.617   4.040   1.267 -0.1070  0.1141  0.7065
   21MOL    O18 4858   0.573   3.928   1.292  0.4792 -0.0441 -0.1476
   21MOL    O19 4859   0.562   4.157   1.304  0.1997  0.0457 -0.1751
   21MOL    H20 4860   0.798   4.205   1.330  0.1883  0.2423 -0.7562
   21MOL    H21 4861   0.932   4.140   1.235  0.3298 -1.7170 -0.6632
   21MOL    H22 4862   0.824   3.836   1.225 -2.1711 -2.5282 -1.2665
   21MOL    H23 4863   0.891   3.935   1.090  0.3541  0.7393  1.5223
   21MOL    H24 4864   0.729   3.853   1.085  0.5622 -0.0699 -0.8401
   21MOL    H25 4865   0.481   4.146   1.351 -0.5960  1.7397 -1.1070
   21MOL    C26 4866   0.745   4.151   1.073 -0.6759  0.3357 -0.0035
   21MOL    C27 4867   0.676   4.124   0.937 -0.2014  0.3433 -0.2634
   21MOL    C28 4868   0.757   4.028   0.841 -0.2611  0.3170 -0.3138
   21MOL    C29 4869   0.540   4.064   0.955  0.0587  0.2862 -0.3206
   21MOL    O30 4870   0.515   3.949   0.931 -0.3229  1.0199 -0.1839
   21MOL    O31 4871   0.449   4.146   1.005 -0.1343  0.2028  0.7701
   21MOL    H32 4872   0.694   4.243   1.102 -2.9891 -0.0062 -2.7753
   21MOL    H33 4873   0.848   4.176   1.049 -0.7653 -0.0035 -0.7637
   21MOL    H34 4874   0.733   4.040   0.735  3.4423 -0.2677 -1.3125
   21MOL    H35 4875   0.745   3.920   0.850  0.4317  0.0865 -1.9589
   21MOL    H36 4876   0.865   4.030   0.857 -0.4339 -0.8098  1.0578
   21MOL    H37 4877   0.363   4.107   1.012 -0.0292  0.0325  1.1319
   21MOL    C38 4878   0.654   4.266   0.861 -0.8299 -0.2531 -0.2512
   21MOL    C39 4879   0.773   4.367   0.851  0.1387  0.2419 -1.0785
   21MOL    C40 4880   0.724   4.470   0.748 -0.2433 -0.2374  0.6891
   21MOL    C41 4881   0.792   4.440   0.984  0.0312  0.7683  0.6248
   21MOL    O42 4882   0.894   4.435   1.047  0.3041  0.3223  0.5800
   21MOL    O43 4883   0.686   4.514   1.011 -0.2582 -0.2815 -0.3838
   21MOL    H44 4884   0.616   4.240   0.762 -0.5625  1.1661 -0.7396
   21MOL    H45 4885   0.576   4.313   0.921  1.1810  1.3337  1.1648
   21MOL    H46 4886   0.630   4.519   0.770  0.5284  1.0307  1.2485
   21MOL    H47 4887   0.704   4.420   0.653 -2.0618  0.3804  0.7416
   21MOL    H48 4888   0.800   4.545   0.726 -0.4571 -0.3460 -0.4768
   21MOL    H49 4889   0.688   4.565   1.091 -0.5802 -1.0901  0.1531
   21MOL    C50 4890   0.906   4.303   0.793  0.1719 -0.3804  0.6647
   21MOL    C51 4891   1.034   4.380   0.732 -0.0366  0.0278 -0.7874
   21MOL    C52 4892   1.159   4.282   0.746  0.1380 -0.3022  0.3476
   21MOL    C53 4893   1.019   4.395   0.579  0.2391 -0.3329 -0.5141
   21MOL    O54 4894   0.909   4.385   0.521 -0.4653 -0.7025  0.2492
   21MOL    O55 4895   1.137   4.406   0.512 -0.1526  0.1212  0.0903
   21MOL    H56 4896   0.945   4.247   0.878 -1.2772 -0.7154  1.1217
   21MOL    H57 4897   0.856   4.242   0.718 -3.0127  1.5401  1.1288
   21MOL    H58 4898   1.255   4.317   0.708 -0.2399  2.0076  1.3997
   21MOL    H59 4899   1.128   4.193   0.691 -1.3803 -0.0426  0.7551
   21MOL    H60 4900   1.173   4.258   0.852 -0.6340 -0.7400  0.3542
   21MOL    H61 4901   1.131   4.379   0.421  0.3381  1.8651 -0.4850
   21MOL    C62 4902   1.068   4.506   0.812 -0.5718 -0.7514 -0.3561
   21MOL    C63 4903   1.163   4.623   0.766  0.2905  0.7534  0.7878
   21MOL    C64 4904   1.296   4.566   0.717  0.5591  0.2091 -0.5525
   21MOL    C65 4905   1.095   4.700   0.646 -0.4021  0.1329  0.2343
   21MOL    O66 4906   0.975   4.732   0.651  0.4350  0.2020 -0.6922
   21MOL    O67 4907   1.168   4.718   0.532  0.2999  0.0114  0.4803
   21MOL    H68 4908   0.972   4.553   0.834 -0.7977 -0.1800 -2.4263
   21MOL    H69 4909   1.110   4.481   0.909 -1.7002 -0.7946  0.1310
   21MOL    H70 4910   1.368   4.648   0.710 -2.1242  3.0215  3.1607
   21MOL    H71 4911   1.302   4.509   0.624 -2.8468 -1.2141  0.0335
   21MOL    H72 4912   1.342   4.506   0.795 -0.5550 -0.7445 -0.6206
   21MOL    H73 4913   1.261   4.702   0.535  0.4552  0.8502  0.1584
   21MOL    C74 4914   1.192   4.717   0.890 -0.0337  0.4075 -0.1860
   21MOL    C75 4915   1.262   4.860   0.894  0.1155  0.1173  0.2175
   21MOL    C76 4916   1.414   4.850   0.873 -0.0502 -0.3154 -0.1974
   21MOL    C77 4917   1.201   4.948   0.780 -0.4082 -0.0618  0.5558
   21MOL    O78 4918   1.264   5.002   0.690 -0.0304  0.7681  0.3747
   21MOL    O79 4919   1.069   4.978   0.803  0.4828  0.1010  0.7156
   21MOL    H80 4920   1.089   4.735   0.920 -0.8799 -1.6737 -1.7506
   21MOL    H81 4921   1.233   4.650   0.966 -2.6672 -1.3088 -0.2027
   21MOL    H82 4922   1.477   4.926   0.920  0.1473  0.2152 -1.3096
   21MOL    H83 4923   1.434   4.851   0.766 -0.3103  1.5881 -0.2473
   21MOL    H84 4924   1.443   4.751   0.908  1.1481  0.3300  0.6875
   21MOL    H85 4925   1.042   5.019   0.722  1.1894 -0.2026  0.3277
   21MOL    C86 4926   1.241   4.947   1.024  0.0148  0.3679 -0.3144
   21MOL    C87 4927   1.269   4.906   1.177  0.3701 -0.3516 -0.8690
   21MOL    C88 4928   1.420   4.897   1.195 -0.0086  0.7766  1.1031
   21MOL    C89 4929   1.215   5.026   1.269  0.2733  0.0775 -0.3899
   21MOL    O90 4930   1.289   5.084   1.353  0.4456  1.0669 -0.0452
   21MOL    O91 4931   1.086   5.066   1.245  0.5551  0.5046  0.6314
   21MOL    H92 4932   1.295   5.039   1.003 -1.2743  0.9931 -0.9533
   21MOL    H93 4933   1.133   4.960   1.033  0.0887  0.9228 -0.2169
   21MOL    H94 4934   1.458   4.802   1.159 -1.6970 -0.0368  1.4034
   21MOL    H95 4935   1.439   4.896   1.303 -0.6399 -1.6849  1.2174
   21MOL    H96 4936   1.470   4.977   1.140  0.2353  0.7413  1.2726
   21MOL    H97 4937   1.038   5.123   1.304  0.4722  1.2020 -0.0974
   21MOL    C98 4938   1.199   4.768   1.201  0.2821 -0.1155 -0.4519
   21MOL    C99 4939   1.155   4.703   1.338 -0.3975  0.1420  0.3079
   21MOL   C100 4940   1.055   4.794   1.405 -0.2103  0.6054 -0.0269
   21MOL   C101 4941   1.088   4.565   1.299  0.0217 -0.6848 -0.4115
   21MOL   O102 4942   0.988   4.535   1.347  0.3050  0.2573 -0.1067
   21MOL   O103 4943   1.154   4.495   1.201  0.7909 -0.0608 -0.4341
   21MOL   H104 4944   1.107   4.764   1.144 -0.8294  0.3605  1.2820
   21MOL   H105 4945   1.267   4.693   1.159 -1.0253 -1.7710  0.3297
   21MOL   H106 4946   0.996   4.845   1.329  0.2149 -0.3719 -1.0185
   21MOL   H107 4947   1.099   4.878   1.459 -0.0347  1.7615 -1.9151
   21MOL   H108 4948   1.000   4.742   1.483  1.1786 -1.4006 -0.3687
   21MOL   H109 4949   1.101   4.429   1.161  0.1388 -0.0803  0.4254
   21MOL   C110 4950   1.277   4.692   1.435 -0.1821  0.7367 -0.5023
   21MOL   C111 4951   1.285   4.601   1.566  0.3726  0.0994 -0.3747
   21MOL   C112 4952   1.306   4.456   1.520  0.6745 -0.5493  0.2793
   21MOL   C113 4953   1.410   4.659   1.641  0.0003  0.2750 -0.3334
   21MOL   O114 4954   1.446   4.779   1.646 -0.2056 -0.2086 -0.2624
   21MOL   O115 4955   1.483   4.566   1.701  0.1906  0.0350  0.1541
   21MOL   H116 4956   1.368   4.669   1.380 -2.3795  0.1053 -4.0550
   21MOL   H117 4957   1.296   4.794   1.467  0.4117  0.1104  1.2110
   21MOL   H118 4958   1.362   4.390   1.586 -1.4444 -2.2950  0.3974
   21MOL   H119 4959   1.355   4.446   1.423 -1.6133 -1.3527 -0.8344
   21MOL   H120 4960   1.213   4.406   1.490 -0.6347  2.0211 -0.1297
   21MOL   H121 4961   1.547   4.608   1.756 -0.0333 -1.2035  1.4138
   21MOL   C122 4962   1.149   4.613   1.649 -0.7584 -0.4776  0.4558
   21MOL   C123 4963   1.132   4.547   1.793 -0.3852  0.4998 -0.6879
   21MOL   C124 4964   1.183   4.403   1.794 -0.3832 -0.0826 -0.0039
   21MOL   C125 4965   1.203   4.636   1.900 -0.0161  0.3133  0.0232
   21MOL   O126 4966   1.315   4.618   1.944  0.0942  0.3659 -0.4752
   21MOL   O127 4967   1.132   4.752   1.927  0.2252  0.1646 -0.1400
   21MOL   H128 4968   1.141   4.722   1.649  2.7562 -0.1441 -0.7851
   21MOL   H129 4969   1.063   4.584   1.589 -2.4071  4.1281  0.4222
   21MOL   H130 4970   1.290   4.403   1.771 -0.3098 -1.3799  0.2724
   21MOL   H131 4971   1.134   4.338   1.721 -0.9721  0.4438 -0.0748
   21MOL   H132 4972   1.183   4.367   1.897 -0.8523 -1.6806 -0.5358
   21MOL   H133 4973   1.197   4.810   1.964 -0.2921  0.2301  0.6607
   21MOL   C134 4974   0.974   4.536   1.819  0.4689 -0.3371  0.9932
   21MOL   C135 4975   0.903   4.437   1.918 -0.2688  0.8809  0.6480
   21MOL   C136 4976   0.871   4.304   1.845 -0.0845 -0.5984 -0.5936
   21MOL   C137 4977   0.980   4.414   2.050 -0.1759 -0.0605  0.2759
   21MOL   O138 4978   1.027   4.307   2.084 -0.4127  0.5002  0.1359
   21MOL   O139 4979   0.999   4.531   2.117 -0.0950  0.0109  0.0908
   21MOL   H140 4980   0.925   4.633   1.821 -1.6829 -1.3653 -0.3276
   21MOL   H141 4981   0.929   4.498   1.727 -1.1712  1.5294  0.9954
   21MOL   H142 4982   0.828   4.236   1.919  0.1396 -0.5600 -0.4285
   21MOL   H143 4983   0.966   4.261   1.816  0.6303  0.1116  0.6329
   21MOL   H144 4984   0.807   4.304   1.757  1.3120 -0.5056 -1.6163
   21MOL   H145 4985   1.047   4.506   2.195 -1.6513 -0.0849  1.0340
   21MOL   C146 4986   0.762   4.509   1.949 -0.0920 -0.6297  0.3820
   21MOL   C147 4987   0.630   4.456   2.018 -0.2205  0.3890 -0.4393
   21MOL   C148 4988   0.663   4.365   2.137  0.2339  0.4841  0.1951
   21MOL   C149 4989   0.553   4.575   2.071 -0.1966 -0.2221 -0.3179
   21MOL   O150 4990   0.519   4.592   2.188 -0.6728 -0.2457  0.4645
   21MOL   O151 4991   0.526   4.661   1.972 -0.2499  0.1690 -0.0601
   21MOL   H152 4992   0.790   4.593   2.012  3.7230 -0.6391 -1.1578
   21MOL   H153 4993   0.718   4.549   1.857 -2.3658 -0.7245  1.3919
   21MOL   H154 4994   0.576   4.318   2.183  0.5132 -1.2919 -1.0458
   21MOL   H155 4995   0.713   4.424   2.214 -0.9772  0.3800  1.0801
   21MOL   H156 4996   0.724   4.279   2.110 -1.2686 -0.4034 -0.4462
   21MOL   H157 4997   0.459   4.720   2.003 -1.0043 -0.4663 -0.4859
   21MOL   C158 4998   0.542   4.383   1.912  0.2945 -0.2572  0.3063
   21MOL   C159 4999   0.413   4.285   1.937  0.5939 -0.4373 -0.6692
   21MOL   C160 5000   0.328   4.279   1.807  0.4746  0.2259 -0.7608
   21MOL   C161 5001   0.467   4.147   1.972 -0.2040 -0.3313 -0.8250
   21MOL   O162 5002   0.475   4.101   2.089  0.5083 -0.5167 -0.3016
   21MOL   O163 5003   0.517   4.084   1.863 -0.1677  0.4058 -0.0890
   21MOL   H164 5004   0.503   4.466   1.853 -0.7023  1.0145  2.7083
   21MOL   H165 5005   0.604   4.319   1.847  0.4313 -0.5417  0.7158
   21MOL   H166 5006   0.390   4.251   1.722  0.2766  0.4556 -0.9819
   21MOL   H167 5007   0.290   4.378   1.783 -3.3797 -1.2551 -1.1330
   21MOL   H168 5008   0.243   4.210   1.811 -0.2130  1.0930 -0.2534
   21MOL   H169 5009   0.557   3.999   1.869 -1.8325 -0.7267 -3.9128
   21MOL   C170 5010   0.321   4.346   2.048 -0.3571 -0.2695 -0.6797
   21MOL   C171 5011   0.176   4.309   2.089  0.1460  0.0399  0.2319
   21MOL   C172 5012   0.071   4.386   2.000 -0.5559 -0.0656 -0.9529
   21MOL   C173 5013   0.136   4.157   2.065  0.4168  0.3144  0.8660
   21MOL   O174 5014   0.067   4.128   1.969 -0.0935 -0.5484  0.7447
   21MOL   O175 5015   0.172   4.076   2.163 -0.4986 -0.1655  0.2967
   21MOL   H176 5016   0.380   4.340   2.140 -1.5176  0.9415  0.1575
   21MOL   H177 5017   0.305   4.453   2.034 -0.5798 -0.2753 -0.4986
   21MOL   H178 5018   7.741   4.354   2.037  0.9933 -2.8101  0.8546
   21MOL   H179 5019   0.088   4.355   1.897  2.6010  1.4092 -0.9580
   21MOL   H180 5020   0.066   4.495   2.010  1.1380  0.4232 -4.5469
   21MOL   H181 5021   0.139   3.994   2.128  0.6990  0.1810 -1.6814
   21MOL   C182 5022   0.183   4.351   2.245 -0.1004 -0.2539 -0.9310
   21MOL   C183 5023   0.062   4.366   2.344  0.4115  0.3891 -0.3474
   21MOL   C184 5024   7.748   4.491   2.293  0.6260  0.3328 -0.2504
   21MOL   C185 5025   7.746   4.237   2.330 -0.1258  0.3095 -0.4157
   21MOL   O186 5026   7.643   4.229   2.266  0.3325  0.6753  0.1252
   21MOL   O187 5027   0.038   4.127   2.380 -0.6808  0.5896 -0.4091
   21MOL   H188 5028   0.259   4.282   2.280  0.6807  1.1725  0.2346
   21MOL   H189 5029   0.233   4.448   2.243  4.7872 -2.4801  2.6483
   21MOL   H190 5030   0.032   4.587   2.291  1.4459 -0.0394  1.5463
   21MOL   H191 5031   7.664   4.515   2.358 -0.3501  1.5044 -1.8870
   21MOL   H192 5032   7.697   4.466   2.200 -0.0071  0.2641  0.1101
   21MOL   H193 5033   0.119   4.151   2.424 -1.8027  2.4115  0.7690
   21MOL   C194 5034   0.109   4.377   2.494  0.4614 -0.5558 -0.6215
   21MOL   C195 5035   0.154   4.511   2.569 -0.4367 -0.5637 -0.0577
   21MOL   C196 5036   0.256   4.584   2.479 -0.6051  0.2191 -0.4664
   21MOL   C197 5037   0.034   4.604   2.610 -0.0180  0.8389  0.3663
   21MOL   O198 5038   0.046   4.715   2.651  0.5450 -0.3646  0.0661
   21MOL   O199 5039   7.687   4.531   2.603 -0.1901 -0.3843  0.2511
   21MOL   H200 5040   0.042   4.319   2.557  0.3455  0.1072 -0.1329
   21MOL   H201 5041   0.197   4.313   2.504  0.9251 -0.1502 -1.9562
   21MOL   H202 5042   0.307   4.669   2.523  1.4046 -0.1306 -2.0546
   21MOL   H203 5043   0.212   4.611   2.383 -1.9787  1.2234  0.4333
   21MOL   H204 5044   0.339   4.518   2.455 -0.6848  0.3849 -1.1984
   21MOL   H205 5045   7.607   4.580   2.613 -0.5350 -1.0267  0.6756
   21MOL   C206 5046   0.240   4.469   2.695 -0.1420  0.8022  0.1552
   21MOL   C207 5047   0.184   4.412   2.835 -0.5538  0.0711 -0.9000
   21MOL   C208 5048   0.311   4.349   2.908 -0.3802 -0.4795  0.4389
   21MOL   C209 5049   0.140   4.536   2.925  0.6702  1.1910  0.1206
   21MOL   O210 5050   0.024   4.550   2.947 -0.0903  0.3665  0.0182
   21MOL   O211 5051   0.238   4.619   2.962  0.1784 -0.1247  0.3132
   21MOL   H212 5052   0.310   4.395   2.658 -1.5166 -0.1722 -0.5547
   21MOL   H213 5053   0.313   4.546   2.720 -0.7083  0.9336  1.4326
   21MOL   H214 5054   0.399   4.412   2.895 -0.5047 -0.1288  1.2607
   21MOL   H215 5055   0.339   4.254   2.862  0.0425  0.1000 -0.5245
   21MOL   H216 5056   0.297   4.330   3.014  2.4002  0.5116  1.0361
   21MOL   H217 5057   0.195   4.685   3.014 -0.1756  0.2997 -0.5154
   21MOL   C218 5058   0.066   4.310   2.823  0.2013  0.2234  0.1268
   21MOL   C219 5059   0.006   4.218   2.932  0.5885  0.3368 -0.2704
   21MOL   C220 5060   0.079   4.085   2.927 -0.3309  0.1923  0.7777
   21MOL   C221 5061   0.014   4.266   3.082 -0.4224  0.1463  0.1196
   21MOL   O222 5062   0.093   4.225   3.166  0.3197 -0.0617  0.2433
   21MOL   O223 5063   7.689   4.364   3.109  0.6370 -0.4951 -0.5381
   21MOL   H224 5064   7.749   4.364   2.779  0.8977  0.0104 -1.5344
   21MOL   H225 5065   0.095   4.246   2.739  0.4353  0.0800  0.3162
   21MOL   H226 5066   0.048   4.002   2.991 -0.7610 -0.4189 -0.1916
   21MOL   H227 5067   0.184   4.100   2.952 -0.1385  0.3367 -0.1010
   21MOL   H228 5068   0.080   4.028   2.834  0.2402 -1.1959  1.6167
   21MOL   H229 5069   7.665   4.404   3.027 -0.6843  0.4599  0.3023
   21MOL   C230 5070   7.621   4.175   2.910 -0.1373  0.2279  0.0986
   21MOL   C231 5071   7.580   4.121   2.765 -0.1656 -0.2597  0.4461
   21MOL   C232 5072   7.473   4.010   2.779  0.0917  0.4609 -0.4522
   21MOL   C233 5073   7.511   4.240   2.691 -0.6132 -0.5853  0.1927
   21MOL   O234 5074   7.469   4.336   2.754 -0.1649 -0.3027  0.3121
   21MOL   O235 5075   7.494   4.206   2.557  0.7574  0.0670 -0.2534
   21MOL   H236 5076   7.609   4.089   2.976 -0.1542 -1.6613 -2.2947
   21MOL   H237 5077   7.542   4.238   2.952 -2.1177 -1.7813 -0.4943
   21MOL   H238 5078   7.404   4.022   2.862 -2.9323 -1.4563 -2.5831
   21MOL   H239 5079   7.518   3.914   2.804 -0.4989  0.5753  1.0739
   21MOL   H240 5080   7.409   3.996   2.692  0.2031 -0.9982 -0.3117
   21MOL   H241 5081   7.453   4.279   2.514  1.1747  1.0013  0.9107
   21MOL   H242 5082   7.671   4.094   2.712  0.1627  1.7412 -0.0237
   22MOL     C1 5083   2.083   7.456   6.124  0.6426  0.1309 -0.5163
   22MOL     C2 5084   1.928   7.466   6.119 -0.2860  0.1579 -0.0441
   22MOL     C3 5085   1.893   7.589   6.037 -0.5869 -0.1838 -0.6235
   22MOL     C4 5086   1.881   7.345   6.029 -0.3172 -0.2009  0.5245
   22MOL     O5 5087   1.954   7.275   5.964 -0.5426 -0.2105 -0.1164
   22MOL     O6 5088   1.742   7.340   6.029  1.0277 -0.1676  0.5281
   22MOL     H7 5089   2.121   7.545   6.174  1.6211 -0.5779  0.0082
   22MOL     H8 5090   2.123   7.450   6.022 -3.2103  0.8381 -2.1498
   22MOL     H9 5091   1.936   7.590   5.936  1.9521 -6.0405  0.1713
   22MOL    H10 5092   1.917   7.678   6.095 -1.8745 -1.9883  2.7746
   22MOL    H11 5093   1.786   7.586   6.019 -0.8543  2.0042  0.5121
   22MOL    H12 5094   1.723   7.268   5.970 -0.9917  2.1218 -1.7358
   22MOL    H13 5095   2.125   7.368   6.172  1.5167 -0.3156 -2.0488
   22MOL    C14 5096   1.853   7.472   6.258  0.3064  0.2877 -0.9504
   22MOL    C15 5097   1.892   7.365   6.368 -0.6742  0.2498 -0.0959
   22MOL    C16 5098   1.910   7.221   6.318 -0.3375 -0.7271  0.0858
   22MOL    C17 5099   2.030   7.420   6.421  0.2436  0.9612  0.0533
   22MOL    O18 5100   2.128   7.350   6.417 -0.3156  0.1969 -0.1578
   22MOL    O19 5101   2.030   7.551   6.463 -0.0539 -0.5254  0.5713
   22MOL    H20 5102   1.870   7.573   6.294  0.2554  1.3131 -3.6728
   22MOL    H21 5103   1.745   7.477   6.242 -0.0762  0.6641  1.5884
   22MOL    H22 5104   1.817   7.176   6.286 -0.6455 -0.4085  0.5311
   22MOL    H23 5105   1.955   7.162   6.398  1.0803 -0.3826 -0.4244
   22MOL    H24 5106   1.983   7.205   6.238  0.0304  0.1394  0.2401
   22MOL    H25 5107   2.123   7.564   6.472  0.1597 -2.0202  0.6057
   22MOL    C26 5108   1.800   7.372   6.497  0.2851 -0.0654 -0.6667
   22MOL    C27 5109   1.659   7.299   6.518  1.0669  0.1590  0.4319
   22MOL    C28 5110   1.562   7.352   6.400  0.2909  0.9172 -0.6233
   22MOL    C29 5111   1.674   7.146   6.509  0.5821 -0.5083 -0.9039
   22MOL    O30 5112   1.595   7.074   6.452 -0.6923  0.2093 -0.0770
   22MOL    O31 5113   1.786   7.111   6.572  0.1591  0.5656  0.4601
   22MOL    H32 5114   1.859   7.346   6.584 -0.1534  0.0430 -0.3333
   22MOL    H33 5115   1.783   7.480   6.498  0.5149  0.0046 -2.3590
   22MOL    H34 5116   1.599   7.322   6.302 -2.8641 -0.4157 -1.4521
   22MOL    H35 5117   1.554   7.461   6.395  0.6723  0.9720 -0.0556
   22MOL    H36 5118   1.461   7.312   6.402 -0.0491  1.6742 -2.3422
   22MOL    H37 5119   1.821   7.022   6.573  0.8101  0.7978  3.5389
   22MOL    C38 5120   1.604   7.329   6.663 -0.7632  0.1088  0.9007
   22MOL    C39 5121   1.454   7.325   6.712 -1.0107 -0.3592 -0.4963
   22MOL    C40 5122   1.387   7.195   6.668 -0.3983 -0.5891  0.0167
   22MOL    C41 5123   1.458   7.340   6.870  0.3329 -0.2760 -0.2923
   22MOL    O42 5124   1.554   7.391   6.926 -0.7039  1.0089 -0.3036
   22MOL    O43 5125   1.347   7.289   6.932 -0.1354  0.4078 -0.3577
   22MOL    H44 5126   1.659   7.267   6.734 -0.1477 -0.9004 -0.4382
   22MOL    H45 5127   1.634   7.431   6.688 -0.8815  0.7003 -1.2659
   22MOL    H46 5128   1.435   7.111   6.719  1.1014  1.6558  2.4457
   22MOL    H47 5129   1.396   7.177   6.561  0.1275 -1.1060  0.1423
   22MOL    H48 5130   1.280   7.194   6.688 -0.3897  0.1124  0.1111
   22MOL    H49 5131   1.362   7.294   7.025  4.2357  1.7289 -1.0279
   22MOL    C50 5132   1.372   7.447   6.658  0.3952 -0.0511  0.3121
   22MOL    C51 5133   1.222   7.491   6.690  0.0120 -1.0752 -0.1918
   22MOL    C52 5134   1.121   7.374   6.692 -0.4862  0.0343  0.4308
   22MOL    C53 5135   1.202   7.566   6.825 -0.1334  0.0197 -0.0251
   22MOL    O54 5136   1.287   7.619   6.888 -0.1431  0.5323  0.2866
   22MOL    O55 5137   1.076   7.567   6.863 -0.4723 -0.7842 -0.0349
   22MOL    H56 5138   1.427   7.537   6.683 -2.2648  1.6078  0.3688
   22MOL    H57 5139   1.367   7.443   6.549 -0.3502 -2.3903  0.3981
   22MOL    H58 5140   1.126   7.301   6.611  2.8627  0.5195  0.1134
   22MOL    H59 5141   1.015   7.399   6.699 -0.6341 -0.2725 -0.6813
   22MOL    H60 5142   1.137   7.312   6.781  2.0247 -0.2459 -0.1581
   22MOL    H61 5143   1.058   7.592   6.952 -1.2438 -0.4937 -0.2703
   22MOL    C62 5144   1.160   7.582   6.574 -0.1565  0.2199  0.5004
   22MOL    C63 5145   1.193   7.734   6.549  0.8746 -0.0951  0.4524
   22MOL    C64 5146   1.125   7.755   6.410 -1.1267 -0.9052 -0.5110
   22MOL    C65 5147   1.113   0.059   6.653 -0.5352  0.2313  0.5235
   22MOL    O66 5148   1.168   0.122   6.740 -0.5225 -0.1363 -0.2614
   22MOL    O67 5149   0.980   0.052   6.636 -0.2743  0.3921 -0.9884
   22MOL    H68 5150   1.172   7.534   6.476 -1.5761  1.0370 -0.0777
   22MOL    H69 5151   1.051   7.580   6.578 -0.3275  0.2188 -2.8271
   22MOL    H70 5152   1.113   0.092   6.381  0.8424 -0.8431 -1.1661
   22MOL    H71 5153   1.024   7.714   6.401 -1.5631  0.1811 -0.5689
   22MOL    H72 5154   1.177   7.685   6.344 -0.3920 -0.8598  0.0070
   22MOL    H73 5155   0.965   7.763   6.561  0.3508  0.4636 -1.1756
   22MOL    C74 5156   1.344   7.755   6.541  0.4758 -0.0612  0.2416
   22MOL    C75 5157   1.412   0.114   6.467  0.3087 -0.0460 -0.5666
   22MOL    C76 5158   1.340   0.242   6.524  1.0530 -0.7267  0.6465
   22MOL    C77 5159   1.557   0.117   6.511 -0.2378 -0.3676  0.4127
   22MOL    O78 5160   1.624   0.215   6.536 -0.1412  0.0107 -0.1485
   22MOL    O79 5161   1.619   7.766   6.513  0.2773  0.2744  0.2170
   22MOL    H80 5162   1.372   7.754   6.646 -3.1103  0.6669  1.3059
   22MOL    H81 5163   1.383   7.667   6.491  0.0482  0.4617 -1.0391
   22MOL    H82 5164   1.340   0.247   6.632 -0.8318 -1.6885  0.7135
   22MOL    H83 5165   1.245   0.257   6.473  0.6575 -1.0209  1.2992
   22MOL    H84 5166   1.387   0.338   6.501  0.3423 -0.7709 -1.1304
   22MOL    H85 5167   1.702   0.030   6.548  1.1773 -1.0476 -0.6671
   22MOL    C86 5168   1.406   0.107   6.309 -0.0892 -0.1317  0.0226
   22MOL    C87 5169   1.509   0.171   6.207  0.4421  0.2838 -0.0977
   22MOL    C88 5170   1.530   0.324   6.241  0.5976  0.1485  0.3123
   22MOL    C89 5171   1.640   0.098   6.216 -0.1395  0.3742  0.7627
   22MOL    O90 5172   1.754   0.151   6.223  0.2101 -0.1016 -0.4334
   22MOL    O91 5173   1.631   7.732   6.203 -0.3258  0.3158  0.6740
   22MOL    H92 5174   1.408   7.767   6.290 -1.4672 -0.1051 -0.3359
   22MOL    H93 5175   1.307   0.147   6.286 -0.7372 -0.7558  1.6250
   22MOL    H94 5176   1.572   0.371   6.153 -0.3633 -1.6080 -1.1294
   22MOL    H95 5177   1.598   0.337   6.325  1.2012  1.9746 -0.4430
   22MOL    H96 5178   1.437   0.370   6.275  0.7186 -0.3255  1.3209
   22MOL    H97 5179   1.717   7.693   6.204 -1.1166 -1.5381 -0.6111
   22MOL    C98 5180   1.439   0.155   6.065  0.2737  0.4788 -0.5975
   22MOL    C99 5181   1.503   0.188   5.922  0.0304  0.4769  0.1632
   22MOL   C100 5182   1.578   0.325   5.911  0.4138  0.5137 -0.3478
   22MOL   C101 5183   1.599   0.085   5.859 -0.0645 -0.5404 -0.2963
   22MOL   O102 5184   1.632   7.745   5.916 -0.0073  0.3694 -0.4822
   22MOL   O103 5185   1.646   0.114   5.736  0.2266  0.1483 -0.3002
   22MOL   H104 5186   1.394   0.056   6.058  1.8298 -0.2733 -0.1068
   22MOL   H105 5187   1.350   0.216   6.077 -0.8975 -1.4703  0.9282
   22MOL   H106 5188   1.671   0.333   5.968 -0.2090 -0.6504  0.8625
   22MOL   H107 5189   1.510   0.402   5.947 -1.1508 -1.0425  0.0860
   22MOL   H108 5190   1.602   0.357   5.810  2.5107 -0.1391 -0.0883
   22MOL   H109 5191   1.686   0.038   5.698 -0.2513 -1.4542  2.2513
   22MOL   C110 5192   1.380   0.206   5.815 -0.6477  0.0143  0.3662
   22MOL   C111 5193   1.280   0.094   5.767  0.1460 -0.1412 -0.5580
   22MOL   C112 5194   1.361   7.737   5.709 -0.2431  0.2521  0.2417
   22MOL   C113 5195   1.192   0.037   5.874 -0.1512 -0.3310 -0.1180
   22MOL   O114 5196   1.153   7.686   5.878 -0.2805  0.0334  0.0582
   22MOL   O115 5197   1.152   0.133   5.961  0.3177  0.0337  0.3481
   22MOL   H116 5198   1.318   0.291   5.841  0.1656  0.7140  0.0174
   22MOL   H117 5199   1.431   0.234   5.724  0.3513 -1.2781  0.5007
   22MOL   H118 5200   1.435   0.009   5.639  0.5077  0.1262  0.9568
   22MOL   H119 5201   1.294   7.677   5.648 -1.2282  0.3954  1.1615
   22MOL   H120 5202   1.400   7.669   5.785 -1.6469 -1.0231 -0.1582
   22MOL   H121 5203   1.098   0.085   6.023 -0.0497 -1.5265 -1.1315
   22MOL   C122 5204   1.194   0.153   5.645 -0.0672  0.5996  0.1698
   22MOL   C123 5205   1.046   0.203   5.639  0.1375  0.0926  0.1226
   22MOL   C124 5206   0.948   0.092   5.685 -0.1949  0.1042 -0.1764
   22MOL   C125 5207   1.021   0.326   5.720  0.0474  0.3645 -0.5084
   22MOL   O126 5208   1.108   0.393   5.770 -0.4952 -0.0714  0.5916
   22MOL   O127 5209   0.893   0.363   5.719  0.3779 -0.4670  0.3544
   22MOL   H128 5210   1.253   0.230   5.596 -1.2213 -0.3085 -2.7490
   22MOL   H129 5211   1.201   0.084   5.561  1.4925  0.1673  0.6272
   22MOL   H130 5212   0.923   0.104   5.790 -1.5514 -0.0028 -0.4716
   22MOL   H131 5213   0.980   7.756   5.670 -3.4082 -1.0762  0.6332
   22MOL   H132 5214   0.849   0.102   5.641  0.4375  1.6013 -1.3085
   22MOL   H133 5215   0.877   0.446   5.761  1.2615 -0.2892  0.3584
   22MOL   C134 5216   1.006   0.217   5.484 -0.7898  0.6391 -0.4245
   22MOL   C135 5217   1.047   0.330   5.389 -0.3975 -0.4288  0.6029
   22MOL   C136 5218   0.998   0.469   5.450 -1.0775  0.1810  0.0668
   22MOL   C137 5219   1.202   0.337   5.369 -0.1971 -0.9258  0.3569
   22MOL   O138 5220   1.275   0.241   5.349 -0.0323  0.0206 -0.3605
   22MOL   O139 5221   1.240   0.472   5.358  0.1744  0.0788  0.1796
   22MOL   H140 5222   1.033   0.120   5.442  0.8416  1.9862 -2.6113
   22MOL   H141 5223   0.897   0.215   5.473 -1.1748 -3.6159  3.0552
   22MOL   H142 5224   1.048   0.506   5.539  0.2284 -0.7172 -0.2835
   22MOL   H143 5225   0.894   0.462   5.479 -0.8696  1.5542  1.2119
   22MOL   H144 5226   1.005   0.559   5.388 -0.8470 -1.3127 -2.1217
   22MOL   H145 5227   1.333   0.486   5.355  0.3994 -1.2479  0.6394
   22MOL   C146 5228   0.973   0.318   5.246  0.3396 -0.2325 -0.0642
   22MOL   C147 5229   0.933   0.185   5.164  0.5783  0.2861 -0.0261
   22MOL   C148 5230   0.818   0.114   5.236  0.4406  0.4998  0.0492
   22MOL   C149 5231   0.896   0.246   5.027  0.6009 -1.2573 -0.2254
   22MOL   O150 5232   0.784   0.241   4.988 -0.1083  0.6824  0.1728
   22MOL   O151 5233   0.996   0.313   4.960 -0.0410  0.5689  0.0834
   22MOL   H152 5234   0.883   0.379   5.259  1.0095  0.9063 -0.6018
   22MOL   H153 5235   1.034   0.380   5.180 -0.1181  0.1737 -0.1136
   22MOL   H154 5236   0.752   0.194   5.268 -0.1397  0.4557 -1.0036
   22MOL   H155 5237   0.844   0.055   5.324 -0.8495  0.8995  0.6953
   22MOL   H156 5238   0.755   0.050   5.174 -0.2123 -0.5945  1.7973
   22MOL   H157 5239   1.082   0.301   4.997 -0.2437  0.3267  0.4728
   22MOL   C158 5240   1.059   0.089   5.149 -0.3375 -0.1618 -0.3086
   22MOL   C159 5241   1.080   7.725   5.065  0.1704 -0.0434  0.1608
   22MOL   C160 5242   0.965   7.637   5.094 -0.0070 -0.8740  0.4299
   22MOL   C161 5243   1.082   7.752   4.914  0.5475 -0.7702  0.1640
   22MOL   O162 5244   1.010   7.692   4.832 -0.4986 -0.5606  0.2883
   22MOL   O163 5245   1.179   0.075   4.879 -0.2509  0.3775  0.5887
   22MOL   H164 5246   1.131   0.163   5.113 -1.1906  1.5001  1.3229
   22MOL   H165 5247   1.103   0.075   5.247  1.3500  1.8263 -0.7376
   22MOL   H166 5248   0.970   7.537   5.051 -3.1184 -0.5207 -0.9113
   22MOL   H167 5249   0.868   7.678   5.067  0.6793  1.1342  0.8859
   22MOL   H168 5250   0.955   7.622   5.201  1.1493 -1.2132  0.4960
   22MOL   H169 5251   1.194   0.077   4.786  0.6540  0.9852  0.7501
   22MOL   C170 5252   1.215   7.679   5.124 -0.1251 -1.1441 -0.4319
   22MOL   C171 5253   1.298   7.556   5.064 -0.5581 -0.0721 -0.4697
   22MOL   C172 5254   1.213   7.443   4.985  0.2130  0.5733 -0.0893
   22MOL   C173 5255   1.400   7.624   4.970  0.3112  0.1244 -0.0425
   22MOL   O174 5256   1.421   7.745   4.972 -0.2936 -0.5080 -1.3487
   22MOL   O175 5257   1.469   7.539   4.884  0.2270  0.0575  0.5765
   22MOL   H176 5258   1.279   7.767   5.134  0.7483 -1.7524 -0.5890
   22MOL   H177 5259   1.189   7.641   5.222  0.2396  0.6759  0.3974
   22MOL   H178 5260   1.269   7.351   4.970  0.6580  1.3291 -3.3509
   22MOL   H179 5261   1.182   7.486   4.890  3.2505  0.2013 -1.3186
   22MOL   H180 5262   1.130   7.414   5.050  1.5879  1.0015  1.9237
   22MOL   H181 5263   1.543   7.574   4.836 -0.2840 -0.5258 -0.6680
   22MOL   C182 5264   1.367   7.481   5.186 -0.2338  0.2487  0.4098
   22MOL   C183 5265   1.494   7.525   5.270 -0.1362 -0.4239 -0.0309
   22MOL   C184 5266   1.624   7.508   5.185 -0.6088 -0.3478 -0.6993
   22MOL   C185 5267   1.479   7.672   5.311  0.7796 -0.2669 -0.2122
   22MOL   O186 5268   1.538   0.001   5.260 -0.0147 -0.2294 -0.1382
   22MOL   O187 5269   1.382   7.689   5.406 -0.2411  0.0156  0.0649
   22MOL   H188 5270   1.293   7.443   5.256 -1.4910  0.1109 -0.9903
   22MOL   H189 5271   1.410   7.390   5.145 -1.1680 -0.3217  0.6884
   22MOL   H190 5272   1.703   7.572   5.223 -2.5011  3.2454 -2.5303
   22MOL   H191 5273   1.611   7.535   5.081 -0.5639 -1.1203 -0.9112
   22MOL   H192 5274   1.668   7.408   5.185  0.0724 -0.0649  0.9398
   22MOL   H193 5275   1.361   0.012   5.426  0.3207  0.0695  0.4196
   22MOL   C194 5276   1.503   7.431   5.396 -0.2686  0.4094 -0.5457
   22MOL   C195 5277   1.621   7.423   5.499  0.2880 -0.1383 -0.6181
   22MOL   C196 5278   1.723   7.311   5.457 -0.5440 -0.0116  0.2011
   22MOL   C197 5279   1.703   7.553   5.510  0.0834  0.5133  0.7812
   22MOL   O198 5280   1.685   7.636   5.601  0.0616 -0.1582  0.0324
   22MOL   O199 5281   1.803   7.561   5.420 -0.1521  0.2478  0.4347
   22MOL   H200 5282   1.412   7.444   5.455  1.3772 -0.7554  2.3253
   22MOL   H201 5283   1.494   7.335   5.346  1.8042 -1.4037  2.4076
   22MOL   H202 5284   1.794   7.286   5.535 -0.6773  0.4154  0.4595
   22MOL   H203 5285   1.779   7.337   5.367  0.6578  1.1564  1.2629
   22MOL   H204 5286   1.670   7.221   5.425 -0.4376 -0.1921  0.5276
   22MOL   H205 5287   1.857   7.639   5.427 -0.5534  0.5303  0.4156
   22MOL   C206 5288   1.558   7.378   5.638 -0.0859 -0.4829  0.4215
   22MOL   C207 5289   1.514   7.235   5.676  0.1073  0.1060  0.2409
   22MOL   C208 5290   1.418   7.170   5.575  0.2082 -0.5806  0.4146
   22MOL   C209 5291   1.646   7.151   5.709  0.4431  0.3557 -0.5897
   22MOL   O210 5292   1.720   7.175   5.802 -0.4997 -0.3024  0.4513
   22MOL   O211 5293   1.653   7.043   5.627  0.1251 -0.3945  0.1007
   22MOL   H212 5294   1.629   7.401   5.718 -0.4288 -3.0073  1.5143
   22MOL   H213 5295   1.488   7.460   5.653 -0.6498 -0.8454 -0.1973
   22MOL   H214 5296   1.401   7.069   5.611  1.0277 -0.0112  2.4761
   22MOL   H215 5297   1.461   7.152   5.477  2.0520  0.4421  1.0048
   22MOL   H216 5298   1.319   7.217   5.575 -0.4029 -1.8459 -0.1387
   22MOL   H217 5299   1.718   6.984   5.662 -0.0624  1.0431  3.0448
   22MOL   C218 5300   1.431   7.257   5.809  0.2183  0.8801  0.3502
   22MOL   C219 5301   1.373   7.141   5.898 -0.1961 -0.0058 -0.4578
   22MOL   C220 5302   1.330   7.213   6.023  0.9669 -0.1648 -0.3655
   22MOL   C221 5303   1.239   7.094   5.827 -1.1089 -0.3105 -0.0660
   22MOL   O222 5304   1.218   6.982   5.793  0.3438 -0.1720 -0.1994
   22MOL   O223 5305   1.154   7.193   5.800 -0.0959 -0.4945 -0.6293
   22MOL   H224 5306   1.496   7.313   5.876  0.5012 -0.2432  1.0391
   22MOL   H225 5307   1.357   7.332   5.784 -0.5572 -0.0015 -0.0112
   22MOL   H226 5308   1.273   7.297   5.982  1.6117  0.9431  0.9910
   22MOL   H227 5309   1.416   7.249   6.078  0.9983 -0.2492 -0.3602
   22MOL   H228 5310   1.256   7.161   6.084  0.2308 -2.2982 -2.9685
   22MOL   H229 5311   1.079   7.164   5.750  0.2250 -1.9589 -0.2931
   22MOL   C230 5312   1.460   7.014   5.923  0.6069  0.0265  1.0281
   22MOL   C231 5313   1.395   6.915   6.033 -0.1136  0.6564  0.0863
   22MOL   C232 5314   1.395   6.772   5.980  0.9075  0.8941 -0.2935
   22MOL   C233 5315   1.475   6.919   6.161  0.5622 -0.3491  0.4724
   22MOL   O234 5316   1.571   6.841   6.183 -0.6094  0.1478  0.6640
   22MOL   O235 5317   1.430   7.010   6.248 -0.1667  0.4734  0.0022
   22MOL   H236 5318   1.475   6.968   5.825 -0.8341  0.6451  0.4994
   22MOL   H237 5319   1.564   7.034   5.949  0.7251  2.2825 -0.9839
   22MOL   H238 5320   1.321   6.755   5.901 -3.6296  0.4405  3.8233
   22MOL   H239 5321   1.363   6.699   6.054  1.2682  0.6439 -0.3831
   22MOL   H240 5322   1.499   6.752   5.957  1.1953  0.5992  1.2347
   22MOL   H241 5323   1.480   7.011   6.328  0.2849  0.6357 -0.2834
   22MOL   H242 5324   1.294   6.950   6.054  0.4854  2.9679 -0.7069
   23MOL     C1 5325   0.394   3.483   4.555 -0.4312  0.4594  0.8537
   23MOL     C2 5326   0.444   3.473   4.401  0.0400 -0.5124  0.0918
   23MOL     C3 5327   0.549   3.586   4.382 -0.3551 -0.1115  0.0627
   23MOL     C4 5328   0.538   3.347   4.382  0.6694 -0.5659  0.4880
   23MOL     O5 5329   0.534   3.252   4.462  0.2832  0.4496 -0.4349
   23MOL     O6 5330   0.604   3.344   4.261 -0.4301 -0.5347 -0.2724
   23MOL     H7 5331   0.348   3.392   4.591  2.4413 -2.5656 -2.6723
   23MOL     H8 5332   0.334   3.573   4.570  1.1667  1.0734  4.1536
   23MOL     H9 5333   0.513   3.685   4.411 -2.1414 -0.7797  0.1786
   23MOL    H10 5334   0.575   3.600   4.277  0.0341 -1.5976 -0.0523
   23MOL    H11 5335   0.641   3.577   4.439  0.6025  1.1226 -1.2640
   23MOL    H12 5336   0.668   3.276   4.247 -1.1633 -1.1264 -0.7534
   23MOL    H13 5337   0.474   3.507   4.626  1.3806 -0.2383 -0.8949
   23MOL    C14 5338   0.325   3.483   4.307  0.4708  0.3540  0.4151
   23MOL    C15 5339   0.190   3.396   4.324 -1.0860  0.2275 -0.1519
   23MOL    C16 5340   0.211   3.250   4.362 -0.3546  0.9421 -0.6695
   23MOL    C17 5341   0.096   3.459   4.430 -0.5038  0.0448  0.2530
   23MOL    O18 5342   0.094   3.572   4.476 -0.3684  0.6174  0.0350
   23MOL    O19 5343   0.016   3.362   4.485  0.1307 -0.1100  0.2192
   23MOL    H20 5344   0.310   3.590   4.291  0.9779  0.6141  1.6206
   23MOL    H21 5345   0.370   3.471   4.208  0.2540  1.5967  0.1525
   23MOL    H22 5346   0.213   3.254   4.471  3.5097 -2.2546 -0.4811
   23MOL    H23 5347   0.307   3.207   4.330  0.1546 -0.1458  2.1381
   23MOL    H24 5348   0.130   3.189   4.324  1.4734 -0.9688 -1.6420
   23MOL    H25 5349   7.718   3.402   4.541 -2.0658 -1.5480 -1.2338
   23MOL    C26 5350   0.112   3.384   4.185  0.4417  0.1962 -0.6507
   23MOL    C27 5351   0.069   3.503   4.085  0.7570  0.6166 -0.0323
   23MOL    C28 5352   7.761   3.608   4.171 -0.0587 -0.2349  0.3272
   23MOL    C29 5353   0.194   3.572   4.018 -0.5261  1.2463  0.2643
   23MOL    O30 5354   0.224   3.687   4.034 -0.1135 -0.1755 -0.1934
   23MOL    O31 5355   0.268   3.479   3.959 -0.8049  0.8495  0.6644
   23MOL    H32 5356   0.168   3.308   4.130  1.8844  0.1685  0.8308
   23MOL    H33 5357   0.024   3.321   4.202  1.0466 -0.3496  0.5190
   23MOL    H34 5358   0.046   3.664   4.249  0.8545 -0.6540  0.0326
   23MOL    H35 5359   7.669   3.563   4.209  0.7672 -1.3960  0.9964
   23MOL    H36 5360   7.714   3.682   4.108 -1.5391 -0.5413  1.0513
   23MOL    H37 5361   0.360   3.501   3.964 -0.4753 -0.6893  1.6834
   23MOL    C38 5362   7.743   3.428   3.982  0.1656  1.0148  0.1374
   23MOL    C39 5363   7.677   3.491   3.848  0.2793 -0.1424  0.6918
   23MOL    C40 5364   7.624   3.634   3.878  0.3381  0.5366 -0.4715
   23MOL    C41 5365   0.019   3.499   3.732  0.5370 -0.0065  0.7473
   23MOL    O42 5366   0.119   3.430   3.718  0.2837  0.3171  0.2469
   23MOL    O43 5367   7.754   3.599   3.640 -0.3987 -0.3842 -0.5829
   23MOL    H44 5368   0.033   3.344   3.943 -2.1573 -0.5058 -0.1145
   23MOL    H45 5369   7.659   3.386   4.037 -0.6945 -0.5178 -2.2819
   23MOL    H46 5370   7.708   3.701   3.892  0.3327  0.8242 -1.8215
   23MOL    H47 5371   7.547   3.625   3.956  0.1151  0.2822 -0.7188
   23MOL    H48 5372   7.569   3.679   3.795  0.5942 -0.0499 -0.9660
   23MOL    H49 5373   0.048   3.588   3.568 -0.6323 -1.8436 -0.5784
   23MOL    C50 5374   7.550   3.405   3.810 -0.6367 -0.4472  0.1050
   23MOL    C51 5375   7.551   3.252   3.777 -0.4142 -0.1663 -0.5166
   23MOL    C52 5376   7.668   3.205   3.680 -0.0878  0.1784 -0.2909
   23MOL    C53 5377   7.555   3.175   3.909 -0.1200  0.5134 -0.7164
   23MOL    O54 5378   7.648   3.099   3.938 -0.1015 -0.0695  0.8973
   23MOL    O55 5379   7.440   3.172   3.981  0.0994 -0.1894  0.5529
   23MOL    H56 5380   7.486   3.422   3.896 -2.1725  1.4780 -1.3606
   23MOL    H57 5381   7.506   3.458   3.725 -0.8130 -0.4050  0.2227
   23MOL    H58 5382   7.655   3.103   3.642  3.7070  0.3473 -2.2835
   23MOL    H59 5383   0.002   3.204   3.721 -0.7443  0.1699  1.3729
   23MOL    H60 5384   7.673   3.269   3.592 -1.2866 -1.8543 -1.8845
   23MOL    H61 5385   7.434   3.119   4.059 -0.5319  0.4092  0.9169
   23MOL    C62 5386   7.408   3.236   3.700 -0.2502 -0.9076  0.0494
   23MOL    C63 5387   7.346   3.106   3.629 -0.1464 -0.1148  0.4315
   23MOL    C64 5388   7.188   3.122   3.634  0.2262  0.1872  0.0560
   23MOL    C65 5389   7.391   3.100   3.489  0.0761 -0.3867 -0.2879
   23MOL    O66 5390   7.496   3.145   3.450  0.1949  0.1165 -0.0763
   23MOL    O67 5391   7.318   3.021   3.405  0.3512  0.4440  0.0229
   23MOL    H68 5392   7.330   3.267   3.770 -0.2825  0.8140 -0.7453
   23MOL    H69 5393   7.397   3.304   3.616  0.4404  0.3999  1.0032
   23MOL    H70 5394   7.148   3.104   3.734  0.4902  0.9734  0.3060
   23MOL    H71 5395   7.130   3.053   3.573 -1.5734  1.5334  0.2195
   23MOL    H72 5396   7.158   3.223   3.608 -0.0164  0.1287  0.1057
   23MOL    H73 5397   7.366   3.023   3.324 -1.1118  0.0482 -0.8765
   23MOL    C74 5398   7.389   2.982   3.709 -0.2596  0.0049 -0.3095
   23MOL    C75 5399   7.349   2.831   3.675  0.1936 -0.1490 -0.1334
   23MOL    C76 5400   7.389   2.753   3.809  0.3717  0.0319 -0.4509
   23MOL    C77 5401   7.194   2.814   3.658 -0.3284  0.5865  0.2288
   23MOL    O78 5402   7.138   2.814   3.553 -0.0072  0.9671 -0.3216
   23MOL    O79 5403   7.129   2.816   3.777  0.3292  0.5793 -0.1950
   23MOL    H80 5404   7.498   2.982   3.711 -0.2502 -0.6032 -0.6617
   23MOL    H81 5405   7.357   3.008   3.810 -1.7300 -1.1205 -0.4742
   23MOL    H82 5406   7.493   2.773   3.834 -0.2737  2.4142  0.4470
   23MOL    H83 5407   7.357   2.649   3.810  1.0226 -0.1725  1.1671
   23MOL    H84 5408   7.333   2.791   3.895  0.5446  1.0197 -0.7742
   23MOL    H85 5409   7.039   2.804   3.753  0.1434 -2.0084  1.5925
   23MOL    C86 5410   7.424   2.775   3.543 -0.0782  0.1926 -0.1021
   23MOL    C87 5411   7.495   2.633   3.519  0.1515 -1.1279  0.2930
   23MOL    C88 5412   7.393   2.528   3.571 -0.2102  0.4719  0.4221
   23MOL    C89 5413   7.517   2.613   3.365  0.0205 -0.2403 -0.6088
   23MOL    O90 5414   7.440   2.536   3.306 -0.2950  0.6409  0.1537
   23MOL    O91 5415   7.614   2.687   3.306  0.0963 -0.2261 -0.1113
   23MOL    H92 5416   7.357   2.778   3.456 -1.0813 -0.2744  0.6481
   23MOL    H93 5417   7.492   2.855   3.512 -1.0015  1.3244  0.7646
   23MOL    H94 5418   7.409   2.427   3.535 -3.1749 -0.2436  0.9428
   23MOL    H95 5419   7.289   2.536   3.540  0.7682  1.9672 -2.7358
   23MOL    H96 5420   7.405   2.511   3.678  1.5128 -1.3120 -0.0387
   23MOL    H97 5421   7.589   2.687   3.214 -1.3036 -0.2066  0.2495
   23MOL    C98 5422   7.628   2.644   3.601  0.3787  0.1796 -0.7401
   23MOL    C99 5423   7.736   2.523   3.620  0.2300 -0.0621 -1.0514
   23MOL   C100 5424   7.666   2.390   3.676 -0.1581  0.6319 -0.2101
   23MOL   C101 5425   0.040   2.488   3.487 -0.3689  0.1536 -0.4235
   23MOL   O102 5426   0.054   2.375   3.448 -0.2582  0.7400  0.1301
   23MOL   O103 5427   0.110   2.597   3.441 -0.3257 -0.6376 -0.1917
   23MOL   H104 5428   7.677   2.738   3.576 -0.2022  0.5038 -0.6624
   23MOL   H105 5429   7.596   2.650   3.705 -1.5571  0.8118 -1.3490
   23MOL   H106 5430   7.586   2.354   3.612  0.9612  1.4588 -2.1566
   23MOL   H107 5431   7.605   2.416   3.762 -0.7734  2.6838 -1.2338
   23MOL   H108 5432   7.729   2.303   3.693 -4.6429 -2.5117  0.9284
   23MOL   H109 5433   0.150   2.586   3.356  1.2586 -0.2560  0.4905
   23MOL   C110 5434   0.075   2.576   3.730 -0.1049  0.1231 -0.3138
   23MOL   C111 5435   0.194   2.486   3.787  0.5422 -0.3531  0.4447
   23MOL   C112 5436   0.254   2.378   3.688 -0.2713  0.2866  0.3914
   23MOL   C113 5437   0.309   2.585   3.822 -0.8348 -0.6691 -0.5391
   23MOL   O114 5438   0.426   2.549   3.826 -0.4104  0.4203 -0.0161
   23MOL   O115 5439   0.265   2.709   3.862  0.2277  0.1801 -0.1341
   23MOL   H116 5440   0.123   2.659   3.678  2.5922  0.0732  2.0103
   23MOL   H117 5441   0.025   2.630   3.811  1.9617  3.3517 -1.1197
   23MOL   H118 5442   0.282   2.413   3.589 -0.0744 -0.7556  0.0717
   23MOL   H119 5443   0.188   2.291   3.681 -0.2410  0.1956  1.1267
   23MOL   H120 5444   0.344   2.333   3.729  0.0672 -1.8510 -2.5536
   23MOL   H121 5445   0.337   2.760   3.897  1.9533 -2.4481  0.2767
   23MOL   C122 5446   0.142   2.416   3.918 -0.3509  0.2301  0.4183
   23MOL   C123 5447   0.224   2.362   4.037  0.0344 -0.4127 -0.8705
   23MOL   C124 5448   0.314   2.247   3.976  0.4944 -0.0544 -0.9282
   23MOL   C125 5449   0.319   2.461   4.110 -0.0114  0.5470 -0.0039
   23MOL   O126 5450   0.295   2.582   4.125  0.2004 -0.3250  0.4017
   23MOL   O127 5451   0.432   2.403   4.163  0.3754  0.3394  0.2349
   23MOL   H128 5452   0.088   2.496   3.970 -0.8028 -0.2345  0.6737
   23MOL   H129 5453   0.059   2.350   3.891 -0.0112 -0.5002  1.1443
   23MOL   H130 5454   0.259   2.207   3.891 -2.0021  2.6002 -0.6251
   23MOL   H131 5455   0.341   2.166   4.044  0.6702  0.7366 -0.0497
   23MOL   H132 5456   0.403   2.295   3.935 -0.3015  1.6332 -0.6789
   23MOL   H133 5457   0.479   2.470   4.210  0.8838  0.5214 -0.5256
   23MOL   C134 5458   0.139   2.300   4.155 -0.1013 -0.2745 -0.1935
   23MOL   C135 5459   7.758   2.236   4.146 -0.3138  0.0527  0.4454
   23MOL   C136 5460   7.648   2.337   4.114  0.1401  0.3945  0.5595
   23MOL   C137 5461   7.748   2.121   4.036 -0.4564 -0.2575  0.0471
   23MOL   O138 5462   7.673   2.126   3.942  0.5040  0.0233 -0.8081
   23MOL   O139 5463   0.056   2.012   4.071  0.1103  0.2353  0.5667
   23MOL   H140 5464   0.215   2.235   4.199 -0.0778 -0.2762 -0.2365
   23MOL   H141 5465   0.128   2.375   4.234  0.7427 -0.0659 -0.2608
   23MOL   H142 5466   7.546   2.310   4.140  0.1239  0.3188  0.4205
   23MOL   H143 5467   7.648   2.373   4.011 -1.1836  1.3201  0.8759
   23MOL   H144 5468   7.660   2.427   4.174 -1.1659  1.5912 -0.9006
   23MOL   H145 5469   0.046   1.931   4.023 -0.7176 -0.7983  2.4204
   23MOL   C146 5470   7.716   2.168   4.284 -0.0358 -0.5741  0.3592
   23MOL   C147 5471   7.679   2.234   4.420 -0.0064  0.1317 -0.0392
   23MOL   C148 5472   7.765   2.361   4.446 -0.5336 -0.4418 -0.0114
   23MOL   C149 5473   7.529   2.268   4.418  0.7774  0.8439 -0.5399
   23MOL   O150 5474   7.480   2.381   4.393  0.3225 -0.5088  0.3126
   23MOL   O151 5475   7.451   2.167   4.451  0.2930  0.2223  0.0547
   23MOL   H152 5476   7.635   2.096   4.274 -0.0930 -0.4535 -0.0802
   23MOL   H153 5477   0.039   2.112   4.305 -0.3554 -0.3949  2.2972
   23MOL   H154 5478   0.098   2.335   4.481  0.1067  1.3669 -0.4103
   23MOL   H155 5479   7.708   2.415   4.522  1.4263  1.7636 -0.0200
   23MOL   H156 5480   7.766   2.437   4.368  0.7695 -0.9193 -0.4761
   23MOL   H157 5481   7.368   2.185   4.493  0.0376 -2.8629  0.9903
   23MOL   C158 5482   7.725   2.137   4.536 -0.2230 -0.2917  0.3670
   23MOL   C159 5483   7.718   2.151   4.693 -0.2834  0.2885 -0.2576
   23MOL   C160 5484   0.032   2.267   4.749 -0.1940  0.5775  0.6769
   23MOL   C161 5485   7.563   2.164   4.725 -0.3859  0.2154  0.0043
   23MOL   O162 5486   7.512   2.268   4.766 -0.2403 -0.3125 -0.3110
   23MOL   O163 5487   7.494   2.051   4.706 -0.3051  0.3378 -0.1667
   23MOL   H164 5488   7.667   2.047   4.515 -0.9049  0.2807 -0.2131
   23MOL   H165 5489   0.063   2.114   4.516 -0.2835 -1.8211  1.7535
   23MOL   H166 5490   0.135   2.261   4.713 -0.3544  2.0056 -0.0181
   23MOL   H167 5491   0.035   2.271   4.858 -0.6177  0.1817  0.7065
   23MOL   H168 5492   7.754   2.363   4.724 -1.1753  0.3179  1.3984
   23MOL   H169 5493   7.414   2.068   4.753 -0.1210 -1.1746  0.7454
   23MOL   C170 5494   0.016   2.010   4.733 -1.1416 -0.5209  0.7857
   23MOL   C171 5495   0.064   1.979   4.877  0.5220  0.1315  0.4749
   23MOL   C172 5496   0.203   2.047   4.906 -0.0538 -0.1473 -0.2601
   23MOL   C173 5497   7.724   2.027   4.982 -0.0231  0.1579  0.5059
   23MOL   O174 5498   7.748   2.116   5.069  0.4638  0.1412 -0.0986
   23MOL   O175 5499   7.601   1.970   4.969 -0.1535 -0.1076 -0.3383
   23MOL   H176 5500   7.708   1.936   4.706 -0.0487 -1.2551 -0.2959
   23MOL   H177 5501   0.108   1.997   4.676 -0.8857 -2.4436  1.6001
   23MOL   H178 5502   0.235   2.011   5.004 -0.3429  1.3604  0.3980
   23MOL   H179 5503   0.192   2.154   4.922 -1.2226 -0.3245  0.1896
   23MOL   H180 5504   0.279   2.013   4.836  0.4438 -0.5426  0.4656
   23MOL   H181 5505   7.538   2.005   5.029  0.0903 -3.1488  1.8066
   23MOL   C182 5506   0.079   1.819   4.887 -0.4543  0.6564 -0.5306
   23MOL   C183 5507   0.170   1.742   4.993  0.5249  0.1907  0.0890
   23MOL   C184 5508   0.321   1.739   4.940  0.7428 -0.0544 -1.3233
   23MOL   C185 5509   0.152   1.794   5.132 -0.1097  0.0858 -0.6030
   23MOL   O186 5510   0.246   1.839   5.200  0.0706 -0.3935 -0.2947
   23MOL   O187 5511   0.018   1.793   5.172 -0.2008 -0.3797  0.0094
   23MOL   H188 5512   7.749   1.769   4.884 -0.7071  1.1411 -0.5885
   23MOL   H189 5513   0.112   1.786   4.789  0.2889 -1.8800  0.5317
   23MOL   H190 5514   0.357   1.822   4.879  1.7729  0.4794 -0.0112
   23MOL   H191 5515   0.327   1.653   4.874 -1.6986 -0.8848 -0.5293
   23MOL   H192 5516   0.400   1.718   5.012 -1.1825 -0.1565  0.8430
   23MOL   H193 5517   0.013   1.831   5.258  2.3333 -0.7221  0.3667
   23MOL   C194 5518   0.110   1.595   4.992 -0.4474  0.1979 -0.0956
   23MOL   C195 5519   0.163   1.480   5.081 -0.0434  0.3726 -0.4653
   23MOL   C196 5520   0.320   1.460   5.079  0.3449  0.2753  0.0534
   23MOL   C197 5521   0.107   1.496   5.226  0.0935 -0.1044 -0.1892
   23MOL   O198 5522   7.759   1.521   5.253 -1.0915  0.1352  0.2613
   23MOL   O199 5523   0.206   1.478   5.321  0.5889  0.6327  0.1042
   23MOL   H200 5524   0.003   1.604   5.012 -0.3223  0.7870  0.3440
   23MOL   H201 5525   0.108   1.562   4.888 -0.7000  1.8919 -0.6548
   23MOL   H202 5526   0.365   1.456   4.980 -1.1812 -0.4236 -0.6406
   23MOL   H203 5527   0.322   1.362   5.126 -1.2826  0.1872 -0.0235
   23MOL   H204 5528   0.373   1.537   5.134 -1.4654  0.9663  0.8517
   23MOL   H205 5529   0.179   1.508   5.406  2.7893 -3.2831  2.3526
   23MOL   C206 5530   0.078   1.350   5.025 -0.3557 -0.0904 -0.6153
   23MOL   C207 5531   0.120   1.261   4.905  0.0212 -0.0998  0.1268
   23MOL   C208 5532   0.165   1.346   4.786 -0.3389  0.6835 -0.0604
   23MOL   C209 5533   0.239   1.173   4.946  0.1346  0.7844 -0.0820
   23MOL   O210 5534   0.355   1.177   4.905  0.2994 -0.2875  0.1004
   23MOL   O211 5535   0.188   1.084   5.039  0.5420 -0.2646  0.5809
   23MOL   H212 5536   0.072   1.279   5.108 -1.4304 -2.7678 -2.9065
   23MOL   H213 5537   7.742   1.383   5.008 -0.2550  1.1088  1.0031
   23MOL   H214 5538   0.261   1.397   4.799 -0.6303  0.5819  2.8203
   23MOL   H215 5539   0.084   1.415   4.765 -0.3901  0.5464 -0.3126
   23MOL   H216 5540   0.186   1.285   4.698  1.8505  0.5330  0.5184
   23MOL   H217 5541   0.244   1.021   5.082 -2.6069 -0.7046  4.3622
   23MOL   C218 5542   7.757   1.178   4.885  0.4810 -0.1250 -0.0694
   23MOL   C219 5543   7.721   1.089   4.759  0.9873 -0.6856  0.5965
   23MOL   C220 5544   7.577   1.029   4.797 -0.4602 -0.2351 -0.1729
   23MOL   C221 5545   7.707   1.170   4.626  0.2958  0.4426 -0.2232
   23MOL   O222 5546   0.009   1.152   4.528  0.5673  0.1214  0.0366
   23MOL   O223 5547   7.602   1.252   4.634  0.5370  0.0546  0.2641
   23MOL   H224 5548   7.737   1.124   4.977 -2.1268  0.6551 -0.1394
   23MOL   H225 5549   7.673   1.247   4.884  0.7320  0.1842 -0.1201
   23MOL   H226 5550   7.509   1.107   4.829 -0.7268 -1.0537  1.2892
   23MOL   H227 5551   7.581   0.960   4.881  0.2177  1.7454  1.4407
   23MOL   H228 5552   7.539   0.971   4.712  0.9881 -1.7147  0.1596
   23MOL   H229 5553   7.594   1.312   4.562 -1.0246 -0.5610 -0.0812
   23MOL   C230 5554   0.062   0.981   4.739  0.0376 -0.4880 -0.8821
   23MOL   C231 5555   0.040   0.872   4.634  0.2985  0.6174  0.1021
   23MOL   C232 5556   0.170   0.861   4.545  0.6183 -0.0016 -0.8826
   23MOL   C233 5557   0.008   0.738   4.690 -1.0406 -0.0330 -0.3344
   23MOL   O234 5558   0.092   0.659   4.730 -0.1536 -0.4363 -0.1472
   23MOL   O235 5559   7.640   0.712   4.698 -0.2467 -0.3062  0.0917
   23MOL   H236 5560   0.148   1.039   4.708 -0.0102 -0.2402 -0.5531
   23MOL   H237 5561   0.092   0.948   4.839 -1.0443  1.2160  0.0167
   23MOL   H238 5562   0.258   0.861   4.609 -0.5593  0.2058  0.7727
   23MOL   H239 5563   0.174   0.947   4.479  1.5291  0.2263 -0.5328
   23MOL   H240 5564   0.170   0.763   4.496 -1.0961 -0.4676 -0.0245
   23MOL   H241 5565   7.630   0.618   4.700  1.1448 -0.4502  0.9818
   23MOL   H242 5566   7.727   0.897   4.563  0.6187  0.8001 -0.1967
   24MOL     C1 5567   4.669   4.161   7.444  0.2442  0.5855  0.3760
   24MOL     C2 5568   4.545   4.197   7.521  0.6276 -0.6399 -0.7607
   24MOL     C3 5569   4.447   4.256   7.414 -0.6425 -0.0929 -0.2746
   24MOL     C4 5570   4.490   4.070   7.593 -0.6136  0.8148 -0.3431
   24MOL     O5 5571   4.553   4.008   7.678  0.4560  0.1926  0.9470
   24MOL     O6 5572   4.373   4.033   7.542  0.3396  0.1805 -0.2336
   24MOL     H7 5573   4.752   4.133   7.508  0.9020  1.4021 -0.0978
   24MOL     H8 5574   4.702   4.242   7.378  1.3218 -1.3724 -1.5287
   24MOL     H9 5575   4.492   4.338   7.358  2.3574 -1.0269  0.6596
   24MOL    H10 5576   4.354   4.288   7.461 -0.5386 -1.4575  0.9190
   24MOL    H11 5577   4.416   4.177   7.345 -0.3532 -1.7667  1.4708
   24MOL    H12 5578   4.342   3.964   7.600 -0.0122  1.2880  0.9352
   24MOL    H13 5579   4.650   4.072   7.385 -0.7271  0.5986  0.6623
   24MOL    C14 5580   4.582   4.306   7.626 -0.2038  0.0550 -0.5565
   24MOL    C15 5581   4.476   4.392   7.708 -0.0117  0.2615  0.2911
   24MOL    C16 5582   4.566   4.478   0.043  0.1229  0.4938 -0.2039
   24MOL    C17 5583   4.404   4.496   7.611 -0.4216  0.0476  0.0487
   24MOL    O18 5584   4.284   4.499   7.585  0.3685  0.0557  0.7527
   24MOL    O19 5585   4.487   4.595   7.574 -0.5507 -0.7408  0.1162
   24MOL    H20 5586   4.653   4.257   7.692  0.9513  0.3917 -1.5339
   24MOL    H21 5587   4.642   4.384   7.579  0.7106  0.6168  1.5003
   24MOL    H22 5588   4.648   4.527   7.757  1.0704  2.2168  2.7193
   24MOL    H23 5589   4.608   4.410   0.117 -1.4151  1.7603  1.8916
   24MOL    H24 5590   4.508   4.551   0.099 -1.0563 -1.5686  1.3043
   24MOL    H25 5591   4.437   4.661   7.528  0.9236  0.1403 -0.2407
   24MOL    C26 5592   4.380   4.294   0.022  0.0488  0.0990 -0.4956
   24MOL    C27 5593   4.305   4.326   0.159 -0.9308  0.7204  0.4910
   24MOL    C28 5594   4.216   4.196   0.186  0.4024 -0.8665 -0.1865
   24MOL    C29 5595   4.407   4.343   0.267  0.1667  0.7989 -0.6328
   24MOL    O30 5596   4.437   4.445   0.323  0.1249 -0.2700 -0.4548
   24MOL    O31 5597   4.478   4.226   0.279 -0.0459 -0.0054 -0.4532
   24MOL    H32 5598   4.302   4.252   7.725 -0.2263 -0.0804 -0.0509
   24MOL    H33 5599   4.445   4.209   0.040  0.8009  0.4906 -1.3456
   24MOL    H34 5600   4.256   4.103   0.144  0.7129 -1.4222  1.3039
   24MOL    H35 5601   4.122   4.198   0.131  2.1076 -0.3787 -3.1658
   24MOL    H36 5602   4.198   4.177   0.292  0.1858  1.1716  0.1647
   24MOL    H37 5603   4.550   4.240   0.339  1.2842  0.0991 -2.0466
   24MOL    C38 5604   4.211   4.454   0.130 -0.2877 -0.7786  0.1006
   24MOL    C39 5605   4.101   4.518   0.233  0.0455  0.6890  0.4474
   24MOL    C40 5606   4.025   4.418   0.324  0.1081  0.6808  0.0152
   24MOL    C41 5607   4.185   4.619   0.319 -0.5698  0.1905  0.2188
   24MOL    O42 5608   4.278   4.687   0.272  0.3872  0.2611 -0.5507
   24MOL    O43 5609   4.145   4.633   0.445  0.4807  0.0963  0.3754
   24MOL    H44 5610   4.277   4.536   0.101 -2.5348  0.2320 -2.3518
   24MOL    H45 5611   4.159   4.422   0.040  1.8949 -1.3861 -0.9735
   24MOL    H46 5612   3.946   4.466   0.383 -1.8878 -0.6258 -1.5424
   24MOL    H47 5613   4.084   4.367   0.400  0.5085  3.0208  1.3292
   24MOL    H48 5614   3.964   4.344   0.273 -0.0437 -0.4380  1.7865
   24MOL    H49 5615   4.221   4.674   0.482  0.2942 -1.2009  2.2612
   24MOL    C50 5616   4.014   4.603   0.134 -0.0369 -0.2724  0.0512
   24MOL    C51 5617   3.915   4.726   0.166  1.1141  0.3981 -0.2052
   24MOL    C52 5618   3.816   4.688   0.279 -0.4522  0.2936  0.6017
   24MOL    C53 5619   3.992   4.850   0.202 -0.3956 -0.9891  0.1479
   24MOL    O54 5620   4.083   4.903   0.137 -0.7320  0.1433  0.4173
   24MOL    O55 5621   3.953   4.899   0.323  0.1579  0.2765  0.1588
   24MOL    H56 5622   4.070   4.635   0.046 -0.9642  1.1588 -0.0440
   24MOL    H57 5623   3.952   4.522   0.096  1.6964 -1.1827 -0.9093
   24MOL    H58 5624   3.754   4.602   0.256 -0.7769  0.4385  0.9329
   24MOL    H59 5625   3.755   4.772   0.314 -1.5561 -2.0079  4.4678
   24MOL    H60 5626   3.867   4.669   0.373  0.0466 -0.9248  0.0982
   24MOL    H61 5627   4.001   4.968   0.366 -0.1413  0.8197 -0.3837
   24MOL    C62 5628   3.835   4.763   0.029 -0.8022  1.0890 -0.1054
   24MOL    C63 5629   3.702   4.850   0.012  0.0114 -0.3595  0.1938
   24MOL    C64 5630   3.581   4.780   0.083  0.0978  0.1263 -0.1690
   24MOL    C65 5631   3.723   4.989   0.068 -0.1642  0.0052 -0.0011
   24MOL    O66 5632   3.657   5.039   0.161 -0.4491 -0.4825  0.8692
   24MOL    O67 5633   3.834   5.051   0.018  0.0637 -0.5160  0.3858
   24MOL    H68 5634   3.905   4.808   7.726 -0.8461  0.4628 -0.5607
   24MOL    H69 5635   3.801   4.667   7.757 -0.6053  0.7101  0.6396
   24MOL    H70 5636   3.569   4.684   0.032 -0.3254  1.3940 -2.5385
   24MOL    H71 5637   3.488   4.832   0.061 -0.6435 -0.4966  1.4230
   24MOL    H72 5638   3.579   4.759   0.190 -2.2879  1.6324  0.1017
   24MOL    H73 5639   3.845   5.138   0.054  1.3541 -0.8342  0.8003
   24MOL    C74 5640   3.681   4.862   7.626  0.4459 -0.2166 -0.5838
   24MOL    C75 5641   3.537   4.883   7.554 -0.6496  0.4418 -0.2811
   24MOL    C76 5642   3.583   4.917   7.411 -0.4941  0.2242  0.3715
   24MOL    C77 5643   3.455   4.746   7.544 -0.1918  0.2837 -0.5442
   24MOL    O78 5644   3.342   4.731   7.587 -0.1613  0.2465 -0.2662
   24MOL    O79 5645   3.512   4.652   7.465  0.0002  0.3413  0.0790
   24MOL    H80 5646   3.753   4.936   7.590  2.3750 -1.3537  0.8070
   24MOL    H81 5647   3.712   4.767   7.582  2.1255  0.5478 -1.0934
   24MOL    H82 5648   3.500   4.954   7.351 -1.2455 -0.4607  0.9783
   24MOL    H83 5649   3.639   4.833   7.370 -1.6417 -0.5438  0.3818
   24MOL    H84 5650   3.645   5.007   7.404 -1.0237  0.4905 -0.9962
   24MOL    H85 5651   3.465   4.569   7.462  2.4248 -1.0636 -0.0094
   24MOL    C86 5652   3.460   5.006   7.608 -0.8748 -0.3923  0.2922
   24MOL    C87 5653   3.306   5.051   7.580 -0.5618 -0.1782  0.3271
   24MOL    C88 5654   3.272   5.030   7.435 -0.2006  0.0182  0.6116
   24MOL    C89 5655   3.205   4.978   7.673 -0.0943  0.4438  0.1691
   24MOL    O90 5656   3.244   4.909   0.003  0.0627 -0.1632 -0.4139
   24MOL    O91 5657   3.073   4.997   7.633  0.9161 -0.2078 -0.5704
   24MOL    H92 5658   3.474   5.017   7.716 -1.2381 -0.0662  0.3097
   24MOL    H93 5659   3.521   5.087   7.567 -0.3031 -0.2470  1.4242
   24MOL    H94 5660   3.169   5.041   7.402 -0.3048  0.1525  0.9765
   24MOL    H95 5661   3.292   4.929   7.399  1.6542  0.8245 -0.7153
   24MOL    H96 5662   3.341   5.091   7.377  0.8947 -0.9091  0.9129
   24MOL    H97 5663   3.019   4.956   7.698  0.3637 -0.0469 -0.9272
   24MOL    C98 5664   3.285   5.205   7.600  0.1719 -0.2690 -0.4643
   24MOL    C99 5665   3.267   5.284   7.733 -0.8184 -0.6378  0.1219
   24MOL   C100 5666   3.126   5.269   0.034  0.2902 -0.0387  0.2604
   24MOL   C101 5667   3.387   5.234   0.058 -0.3211  0.8622 -0.5095
   24MOL   O102 5668   3.373   5.164   0.157  0.0226  1.1612 -0.2950
   24MOL   O103 5669   3.507   5.278   0.016  0.3575  0.2425  0.1590
   24MOL   H104 5670   3.356   5.256   7.535 -0.5489  2.9084  1.1392
   24MOL   H105 5671   3.189   5.221   7.551  0.3317 -1.0684 -1.0525
   24MOL   H106 5672   3.108   5.166   0.064  1.1679 -0.5604 -0.9560
   24MOL   H107 5673   3.050   5.307   7.733  2.5397 -0.8089 -2.7720
   24MOL   H108 5674   3.116   5.327   0.126 -0.3395 -2.4309  1.7291
   24MOL   H109 5675   3.569   5.231   0.070  0.6138 -0.4403 -0.7171
   24MOL   C110 5676   3.286   5.441   7.705  0.4728 -0.5804  0.8846
   24MOL   C111 5677   3.263   5.563   0.035  0.0327  0.0239  0.4718
   24MOL   C112 5678   3.107   5.596   0.043 -0.2812 -0.6028  0.3630
   24MOL   C113 5679   3.303   5.534   0.185  0.4238  0.1525  0.0128
   24MOL   O114 5680   3.224   5.536   0.280 -0.6003 -0.6962  0.2041
   24MOL   O115 5681   3.437   5.505   0.196  0.2336 -0.6128  0.2122
   24MOL   H116 5682   3.394   5.447   7.689  0.6477 -0.1559  2.1811
   24MOL   H117 5683   3.232   5.461   7.613 -4.4843 -2.7073  3.1567
   24MOL   H118 5684   3.059   5.522   0.107  1.1037 -0.9538  1.0107
   24MOL   H119 5685   3.047   5.613   7.721  0.2876  2.4943  0.5286
   24MOL   H120 5686   3.102   5.694   0.088  1.2265 -1.4341  2.3941
   24MOL   H121 5687   3.453   5.463   0.279 -2.6832 -1.3757  0.4389
   24MOL   C122 5688   3.331   5.695   7.754 -1.1863  0.2405  0.1908
   24MOL   C123 5689   3.347   5.739   7.597  0.4301 -0.7329 -0.3433
   24MOL   C124 5690   3.468   5.671   7.533 -0.1488  0.3854 -0.3766
   24MOL   C125 5691   3.213   5.723   7.520 -0.3584 -0.1813 -0.1683
   24MOL   O126 5692   3.098   5.762   7.555  0.5853 -0.2008  0.0763
   24MOL   O127 5693   3.229   5.654   7.404  0.1690  0.2654 -0.0434
   24MOL   H128 5694   3.282   5.767   0.052  0.5431  0.4660  1.2686
   24MOL   H129 5695   3.432   5.682   0.024 -0.9764 -0.4328 -0.6017
   24MOL   H130 5696   3.499   5.703   7.434  1.3248 -0.6548 -0.2655
   24MOL   H131 5697   3.465   5.565   7.510 -0.3356  0.1394  0.7378
   24MOL   H132 5698   3.560   5.691   7.589 -0.9110  1.2520  0.5900
   24MOL   H133 5699   3.145   5.650   7.360 -0.2867  1.7918  0.6805
   24MOL   C134 5700   3.369   5.895   7.608  0.2219 -0.6354  0.3642
   24MOL   C135 5701   3.411   5.998   7.493 -0.4617 -0.4835 -0.7586
   24MOL   C136 5702   3.421   6.134   7.567  0.7808 -0.0042  0.7549
   24MOL   C137 5703   3.547   5.956   7.440 -0.4078 -0.5044 -0.5557
   24MOL   O138 5704   3.647   5.972   7.508  0.0188 -0.5242  0.4455
   24MOL   O139 5705   3.551   5.914   7.312 -0.3118  0.0979  0.1322
   24MOL   H140 5706   3.277   5.931   7.655 -1.0152 -3.6185  0.2967
   24MOL   H141 5707   3.438   5.908   7.691  0.6510  0.9163 -0.2195
   24MOL   H142 5708   3.487   6.135   7.654 -0.2027 -0.4215  1.5283
   24MOL   H143 5709   3.326   6.143   7.620 -0.3267 -0.4367 -1.1262
   24MOL   H144 5710   3.433   6.217   7.498  0.4520 -0.0608  0.6304
   24MOL   H145 5711   3.635   5.873   7.301 -1.1529 -1.6455 -0.0692
   24MOL   C146 5712   3.294   6.004   7.383 -0.3736 -0.1033  0.0096
   24MOL   C147 5713   3.283   6.095   7.252 -0.3968 -0.4904 -0.2610
   24MOL   C148 5714   3.417   6.175   7.218  0.1069  0.2746  0.4046
   24MOL   C149 5715   3.260   6.013   7.123 -0.0479 -0.1226 -0.4317
   24MOL   O150 5716   3.159   5.999   7.058 -0.2510  0.1062 -0.4970
   24MOL   O151 5717   3.379   5.966   7.069 -0.3362  0.1043 -0.4027
   24MOL   H152 5718   3.306   5.905   7.339 -0.0660 -0.3386  0.6258
   24MOL   H153 5719   3.203   6.006   7.444  0.2729  1.6771  0.9356
   24MOL   H154 5720   3.503   6.108   7.209 -1.0127 -1.5986  2.9058
   24MOL   H155 5721   3.439   6.250   7.294  0.1880 -0.3960  1.0530
   24MOL   H156 5722   3.413   6.223   7.121  1.6683 -1.1294 -0.3749
   24MOL   H157 5723   3.360   5.921   6.988 -0.2731 -1.8516  0.6409
   24MOL   C158 5724   3.161   6.200   7.278 -0.0430  0.1486 -0.3811
   24MOL   C159 5725   3.009   6.176   7.314  0.9988 -0.6895 -1.0596
   24MOL   C160 5726   2.917   6.284   7.244 -0.3561  0.4424 -0.2705
   24MOL   C161 5727   2.951   6.042   7.269  0.4181 -0.5301  0.7955
   24MOL   O162 5728   2.872   6.025   7.173  0.3346  0.3877 -0.4163
   24MOL   O163 5729   2.999   5.942   7.345 -0.4715 -0.4091 -0.2138
   24MOL   H164 5730   3.194   6.271   7.353  3.4753  0.6986 -2.3361
   24MOL   H165 5731   3.149   6.251   7.182  2.8849 -0.4564 -1.1093
   24MOL   H166 5732   2.813   6.253   7.253 -0.3015  0.3064 -0.1052
   24MOL   H167 5733   2.937   6.284   7.137  1.3661 -2.1709  0.0100
   24MOL   H168 5734   2.920   6.386   7.284  0.7280  0.7546 -1.1118
   24MOL   H169 5735   2.968   5.859   7.312  1.6821 -1.5902  0.6254
   24MOL   C170 5736   2.992   6.197   7.475  0.2213 -0.0642  0.0234
   24MOL   C171 5737   2.865   6.160   7.565  0.1504 -0.0288 -0.4223
   24MOL   C172 5738   2.733   6.172   7.490 -0.0821  0.2671 -0.3022
   24MOL   C173 5739   2.885   6.019   7.622 -0.3830  0.0545 -1.0442
   24MOL   O174 5740   2.795   5.937   7.621 -0.1141 -0.2899 -0.0654
   24MOL   O175 5741   3.006   5.997   7.681  0.4202  0.2216 -0.4637
   24MOL   H176 5742   3.075   6.141   7.519 -0.3043 -0.2449  0.7863
   24MOL   H177 5743   3.010   6.302   7.498 -2.4309  0.2615  0.7239
   24MOL   H178 5744   2.724   6.276   7.460 -0.3593  0.7561  1.4256
   24MOL   H179 5745   2.643   6.148   7.546  0.0573  0.4098 -0.0131
   24MOL   H180 5746   2.734   6.108   7.402  0.7766 -0.1386 -0.0087
   24MOL   H181 5747   3.014   5.904   7.694  0.9836  0.4142  0.6641
   24MOL   C182 5748   2.866   6.264   7.691 -0.3684 -0.2035  0.2245
   24MOL   C183 5749   2.775   6.269   0.044  0.7800 -1.1406 -0.1340
   24MOL   C184 5750   2.836   6.390   0.125  0.6034  0.1584  1.3956
   24MOL   C185 5751   2.634   6.319   7.760 -0.3557 -0.4494 -0.2202
   24MOL   O186 5752   2.613   6.435   7.722  0.4777  0.0743  0.1510
   24MOL   O187 5753   2.534   6.223   0.005  0.2429  0.3309  0.5048
   24MOL   H188 5754   2.965   6.256   7.735  0.0083 -0.5264 -0.6620
   24MOL   H189 5755   2.867   6.366   7.651 -0.4790  0.7909  2.7036
   24MOL   H190 5756   2.927   6.360   0.177  0.0057 -2.2465  1.1012
   24MOL   H191 5757   2.772   6.429   0.204 -0.7755 -0.7056  0.7341
   24MOL   H192 5758   2.843   6.481   0.065 -3.2384  0.1774  0.8147
   24MOL   H193 5759   2.471   6.213   7.702  0.9602 -1.4150  0.0713
   24MOL   C194 5760   2.771   6.133   0.130  0.2336 -0.1516 -0.0136
   24MOL   C195 5761   2.742   6.141   0.288 -0.3036  0.6678  0.4365
   24MOL   C196 5762   2.868   6.174   0.371 -0.3146 -0.6751  0.3053
   24MOL   C197 5763   2.630   6.240   0.328  0.3091  0.2471  0.9343
   24MOL   O198 5764   2.644   6.332   0.405  0.2884 -0.0443  0.1102
   24MOL   O199 5765   2.513   6.205   0.273  0.0037 -0.2988  0.3414
   24MOL   H200 5766   2.712   6.058   0.078 -0.3151  0.7475 -0.6944
   24MOL   H201 5767   2.872   6.095   0.113  1.1370  2.5498 -0.8146
   24MOL   H202 5768   2.957   6.126   0.330 -0.6965 -0.6158 -0.6062
   24MOL   H203 5769   2.860   6.138   0.474 -1.8931  0.0946  0.4599
   24MOL   H204 5770   2.896   6.279   0.372  0.0632 -0.7302 -2.1676
   24MOL   H205 5771   2.438   6.253   0.304 -0.4096 -1.4061  1.0841
   24MOL   C206 5772   2.703   5.988   0.335  0.0290  0.0055  0.1719
   24MOL   C207 5773   2.641   5.944   0.475  0.1265  0.6200 -0.0597
   24MOL   C208 5774   2.709   6.005   0.599  0.0218  0.2903  0.0319
   24MOL   C209 5775   2.490   5.982   0.468  0.1791  0.3320  0.1731
   24MOL   O210 5776   2.438   6.073   0.534 -0.1055  0.8775  0.2845
   24MOL   O211 5777   2.428   5.904   0.377  0.6304  0.7271  0.2719
   24MOL   H212 5778   2.633   5.963   0.255  0.1214 -2.4172  0.8262
   24MOL   H213 5779   2.790   5.927   0.308  0.4478 -0.2938  2.1743
   24MOL   H214 5780   2.818   5.999   0.602  0.2546  3.4420  0.0159
   24MOL   H215 5781   2.662   5.960   0.686  1.4076 -1.9313 -0.3215
   24MOL   H216 5782   2.688   6.112   0.606 -0.2578  0.2139  0.3425
   24MOL   H217 5783   2.338   5.932   0.374  0.6599  0.9578  1.4001
   24MOL   C218 5784   2.658   5.788   0.481 -0.0494 -0.0122  0.7868
   24MOL   C219 5785   2.784   5.715   0.532 -0.7634 -0.0455  0.0346
   24MOL   C220 5786   2.912   5.764   0.466 -0.1628 -0.9149  0.1464
   24MOL   C221 5787   2.786   5.711   0.692 -0.1943 -0.6223 -0.1142
   24MOL   O222 5788   2.877   5.761   0.759  0.0716  0.2623  0.0130
   24MOL   O223 5789   2.684   5.637   0.738  0.8215  0.1254  0.2261
   24MOL   H224 5790   2.575   5.748   0.539 -0.7794 -0.7562 -0.7483
   24MOL   H225 5791   2.632   5.753   0.381 -2.7375  0.5710  1.2451
   24MOL   H226 5792   2.948   5.866   0.476  0.5793 -0.9772 -1.6641
   24MOL   H227 5793   2.924   5.743   0.360 -1.4218  2.1980 -0.6780
   24MOL   H228 5794   2.998   5.711   0.506 -0.0981 -1.3472 -0.5539
   24MOL   H229 5795   2.707   5.626   0.829 -1.1507 -0.3900  0.6775
   24MOL   C230 5796   2.752   5.564   0.494 -0.0825 -0.2166  1.9730
   24MOL   C231 5797   2.852   5.447   0.542  0.0274  0.0764  0.0025
   24MOL   C232 5798   2.760   5.320   0.540  0.1361  0.4568  0.6014
   24MOL   C233 5799   2.966   5.423   0.441  0.5662  0.0112 -0.6350
   24MOL   O234 5800   2.948   5.376   0.326 -0.0229  0.3496 -0.2013
   24MOL   O235 5801   3.085   5.470   0.491 -0.2771  0.5479  0.1804
   24MOL   H236 5802   2.648   5.540   0.516 -1.3157  1.4886 -1.5797
   24MOL   H237 5803   2.752   5.565   0.385 -0.1828 -1.5303  1.9515
   24MOL   H238 5804   2.688   5.320   0.622 -1.4602 -2.9452 -0.7056
   24MOL   H239 5805   2.816   5.228   0.557  2.7303  1.7111 -0.8877
   24MOL   H240 5806   2.711   5.317   0.443 -2.2655  1.0617  1.7447
   24MOL   H241 5807   3.129   5.493   0.411 -1.0297  0.0834 -0.3692
   24MOL   H242 5808   2.895   5.465   0.640 -1.0874 -0.9148  0.6835
   25MOL     C1 5809   0.130   6.880   2.344 -0.2489 -0.5429  0.5481
   25MOL     C2 5810   0.204   6.823   2.466 -0.2236  0.1592 -0.3145
   25MOL     C3 5811   0.114   6.850   2.590 -0.2263  0.1481  0.2691
   25MOL     C4 5812   0.232   6.668   2.451  0.2416  1.0457  0.5009
   25MOL     O5 5813   0.181   6.589   2.527 -0.2945 -0.0025  0.1342
   25MOL     O6 5814   0.319   6.645   2.347  0.7971 -0.0972 -0.0609
   25MOL     H7 5815   0.073   6.969   2.369  1.1688  0.6039 -0.2361
   25MOL     H8 5816   0.063   6.799   2.314  0.3460 -0.2329 -1.6731
   25MOL     H9 5817   0.103   6.959   2.594  2.8022  0.6027 -1.5080
   25MOL    H10 5818   0.161   6.808   2.679  0.2657  2.7717  1.3032
   25MOL    H11 5819   0.019   6.799   2.580 -0.0321 -0.3004  0.6915
   25MOL    H12 5820   0.321   6.553   2.326  0.4474 -0.6440  2.1581
   25MOL    H13 5821   0.194   6.895   2.257 -0.1127 -0.8233  0.6001
   25MOL    C14 5822   0.344   6.899   2.473 -0.5970 -0.0255 -0.3950
   25MOL    C15 5823   0.374   7.053   2.504 -0.0266 -0.5244  0.5397
   25MOL    C16 5824   0.265   7.141   2.441  0.1120 -0.7203  0.0979
   25MOL    C17 5825   0.374   7.081   2.653  0.3567 -0.1226 -0.4618
   25MOL    O18 5826   0.361   6.999   2.738 -0.3626  0.1188  0.0539
   25MOL    O19 5827   0.386   7.212   2.690 -0.9301  0.2409  0.2549
   25MOL    H20 5828   0.408   6.836   2.535  1.0883 -1.7373 -3.7440
   25MOL    H21 5829   0.394   6.878   2.379 -0.4025  3.4447 -1.1269
   25MOL    H22 5830   0.252   7.111   2.337 -0.2418  2.6468 -0.8879
   25MOL    H23 5831   0.290   7.246   2.438 -0.6419 -0.5620 -1.7881
   25MOL    H24 5832   0.165   7.148   2.485  0.3314 -0.3138  0.5269
   25MOL    H25 5833   0.382   7.214   2.784 -2.0173 -0.5445  0.2417
   25MOL    C26 5834   0.501   7.112   2.434 -0.4063 -0.0632  0.3138
   25MOL    C27 5835   0.649   7.057   2.463 -0.0595  0.0752  0.0081
   25MOL    C28 5836   0.684   7.082   2.614  0.7047  0.5693  0.2120
   25MOL    C29 5837   0.648   6.897   2.441 -0.0866 -0.3125  1.1365
   25MOL    O30 5838   0.667   6.847   2.331 -0.1456 -0.0185  0.5906
   25MOL    O31 5839   0.647   6.827   2.560  0.7077  0.5606  0.2630
   25MOL    H32 5840   0.483   7.100   2.327 -0.6433  1.7577  0.1319
   25MOL    H33 5841   0.493   7.218   2.457 -0.2376  0.0141  0.0194
   25MOL    H34 5842   0.788   7.050   2.623 -0.0125 -1.5452  1.1243
   25MOL    H35 5843   0.627   7.033   2.692  3.2308 -2.8666 -0.0024
   25MOL    H36 5844   0.666   7.186   2.643 -1.9211 -0.6775  3.2210
   25MOL    H37 5845   0.663   6.734   2.558  3.3759  0.9807  0.0605
   25MOL    C38 5846   0.766   7.121   2.371  0.4868  0.4894  0.1135
   25MOL    C39 5847   0.761   7.192   2.234 -0.0353 -0.0575 -0.7440
   25MOL    C40 5848   0.701   7.091   2.131  0.3794 -0.4388  0.1467
   25MOL    C41 5849   0.683   7.321   2.245 -0.7545 -0.0134  0.8015
   25MOL    O42 5850   0.677   7.403   2.335 -0.9037 -0.1105  0.7381
   25MOL    O43 5851   0.611   7.343   2.132 -0.3527 -0.2318 -0.0880
   25MOL    H44 5852   0.808   7.200   2.433  1.3759  0.5756 -0.5785
   25MOL    H45 5853   0.849   7.051   2.379 -1.9833 -2.4129  0.8399
   25MOL    H46 5854   0.702   7.131   2.029 -0.7759  0.4292  0.4624
   25MOL    H47 5855   0.597   7.063   2.143 -0.3240  2.0894  0.3468
   25MOL    H48 5856   0.762   7.001   2.139  2.6249  0.8926 -1.2816
   25MOL    H49 5857   0.559   7.421   2.134 -1.3151 -0.5297 -5.2895
   25MOL    C50 5858   0.914   7.232   2.204  0.5590 -0.4444  0.2459
   25MOL    C51 5859   0.978   7.274   2.063 -0.3285 -0.1369 -0.8608
   25MOL    C52 5860   0.964   7.163   1.957 -0.2154 -0.3930 -0.3162
   25MOL    C53 5861   0.900   7.398   2.014  0.1615  1.0667 -0.4931
   25MOL    O54 5862   0.843   7.414   1.906  0.5042  0.4260 -0.6107
   25MOL    O55 5863   0.915   7.504   2.101  0.0495  0.1622 -0.3204
   25MOL    H56 5864   0.932   7.307   2.281 -1.8630  0.9965 -0.5345
   25MOL    H57 5865   0.973   7.143   2.227 -1.0933 -1.8837 -0.9365
   25MOL    H58 5866   0.992   7.071   2.008  0.7784  0.7338  1.2044
   25MOL    H59 5867   1.014   7.195   1.865  0.7198  0.0906  0.3541
   25MOL    H60 5868   0.864   7.139   1.921 -0.5041  0.1099  0.1414
   25MOL    H61 5869   0.902   7.584   2.053 -0.9378  0.2573  0.1044
   25MOL    C62 5870   1.135   7.325   2.067 -0.3185  0.0682 -0.1756
   25MOL    C63 5871   1.248   7.254   2.155  0.0934  0.0209 -0.4927
   25MOL    C64 5872   1.380   7.315   2.104 -0.1216  0.2285  0.3099
   25MOL    C65 5873   1.220   7.286   2.304 -0.4362 -0.6976  0.8468
   25MOL    O66 5874   1.157   7.216   2.387 -0.4203  0.1819 -0.0734
   25MOL    O67 5875   1.267   7.408   2.330 -0.3937 -0.2385 -0.5824
   25MOL    H68 5876   1.182   7.346   1.971 -0.1264 -2.4249 -0.6671
   25MOL    H69 5877   1.141   7.427   2.105 -0.3636 -0.0735  0.2183
   25MOL    H70 5878   1.407   7.295   2.000  0.6467  2.8474 -0.0327
   25MOL    H71 5879   1.460   7.275   2.166  0.2552  1.1990  0.4568
   25MOL    H72 5880   1.396   7.420   2.129  1.7702  0.2671 -0.9629
   25MOL    H73 5881   1.298   7.431   2.416 -1.3811 -1.3077  0.0876
   25MOL    C74 5882   1.250   7.105   2.114 -0.3605  0.0281 -0.3125
   25MOL    C75 5883   1.370   7.008   2.126  0.0290 -0.5616 -0.3406
   25MOL    C76 5884   1.472   7.032   2.007  0.2981 -0.6874  0.1477
   25MOL    C77 5885   1.457   7.018   2.259  0.2756  0.0927 -0.2674
   25MOL    O78 5886   1.577   6.984   2.260  0.9484 -0.3012 -0.2622
   25MOL    O79 5887   1.384   7.054   2.369  1.1271 -0.7347 -0.2349
   25MOL    H80 5888   1.159   7.069   2.161 -0.4272  1.8245  0.9970
   25MOL    H81 5889   1.222   7.089   2.010 -0.2544 -0.1001 -0.3212
   25MOL    H82 5890   1.534   6.945   1.985  2.6649  0.9842  0.1070
   25MOL    H83 5891   1.544   7.109   2.031 -0.7567  0.0833  0.9287
   25MOL    H84 5892   1.418   7.073   1.922 -1.1462  0.8906  1.7928
   25MOL    H85 5893   1.421   7.039   2.455  0.2851  1.1310  0.4823
   25MOL    C86 5894   1.343   6.851   2.103  0.1727  0.5983 -0.6066
   25MOL    C87 5895   1.225   6.772   2.179  0.0613 -0.3140 -0.0408
   25MOL    C88 5896   1.093   6.821   2.124  0.4799  0.1233  0.0996
   25MOL    C89 5897   1.249   6.624   2.126 -0.6393  0.6264 -0.4861
   25MOL    O90 5898   1.297   6.538   2.193 -0.3755  0.4179 -0.3176
   25MOL    O91 5899   1.226   6.617   1.992 -0.1407 -0.0953  0.2405
   25MOL    H92 5900   1.326   6.847   1.995 -1.2685 -1.3425 -0.3368
   25MOL    H93 5901   1.439   6.799   2.111 -0.3436  0.0314  2.6310
   25MOL    H94 5902   1.014   6.746   2.124  0.0544  0.5727  0.2313
   25MOL    H95 5903   1.092   6.853   2.020 -0.6413 -0.8967 -0.2145
   25MOL    H96 5904   1.049   6.905   2.177 -0.2941 -0.8316  0.9951
   25MOL    H97 5905   1.271   6.541   1.960  1.5389  0.5727  0.9339
   25MOL    C98 5906   1.233   6.788   2.338 -0.6115 -0.4112 -0.2685
   25MOL    C99 5907   1.152   6.704   2.438 -0.2963 -0.6125  0.2250
   25MOL   C100 5908   1.010   6.665   2.368  0.5074 -0.9600 -0.4064
   25MOL   C101 5909   1.229   6.575   2.478  0.2808 -0.4275 -0.1513
   25MOL   O102 5910   1.348   6.573   2.515  0.0628  0.2013 -0.0340
   25MOL   O103 5911   1.160   6.463   2.452 -0.0163 -0.1150 -0.3826
   25MOL   H104 5912   1.337   6.759   2.355 -0.4239 -0.1439 -0.9029
   25MOL   H105 5913   1.225   6.895   2.358 -1.3204 -0.8128  1.6101
   25MOL   H106 5914   0.970   6.604   2.449 -1.2946 -0.3447 -0.8196
   25MOL   H107 5915   1.023   6.593   2.286 -1.2010 -2.0469  0.2397
   25MOL   H108 5916   0.937   6.745   2.359  0.2090 -1.3060 -1.0940
   25MOL   H109 5917   1.208   6.392   2.492  1.6399  0.8885 -0.5573
   25MOL   C110 5918   1.134   6.802   2.567  0.0343 -0.3329 -0.0934
   25MOL   C111 5919   1.103   6.766   2.714 -0.5759  0.0597  0.7216
   25MOL   C112 5920   1.000   6.646   2.727  0.4435  0.0427  1.0411
   25MOL   C113 5921   1.237   6.724   2.784  0.5005 -0.3757 -0.2311
   25MOL   O114 5922   1.339   6.796   2.764  0.4739 -0.1421  0.0558
   25MOL   O115 5923   1.226   6.630   2.877  0.1855  0.0595 -0.0313
   25MOL   H116 5924   1.224   6.862   2.569  0.1169 -0.5032  1.1303
   25MOL   H117 5925   1.056   6.871   2.533  2.3684  3.2401  1.5628
   25MOL   H118 5926   0.913   6.652   2.661  2.9738  0.0755 -2.4248
   25MOL   H119 5927   0.960   6.648   2.828 -0.2178 -0.0111  0.7852
   25MOL   H120 5928   1.039   6.546   2.708 -0.5475  0.0607 -1.3496
   25MOL   H121 5929   1.150   6.575   2.867  0.4575 -0.2863 -0.1983
   25MOL   C122 5930   1.029   6.877   2.797 -0.0085 -0.6507  0.3525
   25MOL   C123 5931   1.075   7.028   2.829  0.0299 -0.5028  0.2719
   25MOL   C124 5932   1.188   7.038   2.933 -0.7161  0.3867 -0.4523
   25MOL   C125 5933   1.126   7.087   2.690  0.5159  0.6185  0.0715
   25MOL   O126 5934   1.240   7.122   2.665  0.2516 -0.3228 -0.0555
   25MOL   O127 5935   1.030   7.098   2.597  0.2151 -0.0677 -0.1339
   25MOL   H128 5936   0.932   6.877   2.748  0.6249  0.6132 -0.9334
   25MOL   H129 5937   1.006   6.834   2.895  0.5802 -0.4104  0.6053
   25MOL   H130 5938   1.277   6.983   2.901 -0.0846  0.2873  1.4424
   25MOL   H131 5939   1.148   6.991   3.023 -0.8109  0.8014 -0.2770
   25MOL   H132 5940   1.216   7.142   2.948  0.0710  0.0936  0.1327
   25MOL   H133 5941   1.069   7.120   2.514  2.0223 -1.3190  0.3571
   25MOL   C134 5942   0.945   7.114   2.871  0.8786  0.7361  0.0216
   25MOL   C135 5943   0.930   7.272   2.897  0.1475 -0.3306  0.4078
   25MOL   C136 5944   0.781   7.271   2.931  0.8453  0.6486 -0.3187
   25MOL   C137 5945   1.012   7.319   3.022  0.5744 -0.3719  0.0300
   25MOL   O138 5946   1.096   7.411   3.025 -0.5419  0.1623  0.0950
   25MOL   O139 5947   0.972   7.241   3.130  0.3889 -0.7753  0.1984
   25MOL   H140 5948   0.868   7.075   2.805  0.3554  0.3162  0.8753
   25MOL   H141 5949   0.922   7.064   2.965 -2.1281 -1.0091 -1.5516
   25MOL   H142 5950   0.742   7.361   2.978  3.4043 -0.6423  4.6346
   25MOL   H143 5951   0.757   7.196   3.007  0.2557  0.7604 -0.3905
   25MOL   H144 5952   0.718   7.253   2.844  0.3675  0.7265  0.0098
   25MOL   H145 5953   1.024   7.260   3.207  0.7149  0.7935 -0.3744
   25MOL   C146 5954   0.967   7.357   2.772  0.0173  0.3056 -0.1990
   25MOL   C147 5955   0.930   7.510   2.744 -0.1769 -0.3541 -0.6755
   25MOL   C148 5956   0.793   7.496   2.676  0.1577 -0.3008 -0.0749
   25MOL   C149 5957   0.915   7.598   2.870  0.5397 -1.1580 -0.3918
   25MOL   O150 5958   1.000   7.667   2.919 -0.2166 -0.2556 -0.1853
   25MOL   O151 5959   0.784   7.590   2.916 -0.1086  0.1761 -0.1987
   25MOL   H152 5960   1.075   7.356   2.763  0.1796  1.2020  1.4080
   25MOL   H153 5961   0.930   7.297   2.689  1.0952 -0.4409 -0.1376
   25MOL   H154 5962   0.737   7.589   2.679 -1.2219 -1.1306  0.1168
   25MOL   H155 5963   0.723   7.423   2.716 -0.8947  1.4520  1.3470
   25MOL   H156 5964   0.804   7.467   2.572  0.0294 -0.5126 -0.0304
   25MOL   H157 5965   0.758   7.635   2.995  0.7633  0.7600 -0.2455
   25MOL   C158 5966   1.041   7.568   2.638  0.6309  0.2625  0.1648
   25MOL   C159 5967   1.036   7.702   2.556  0.5474  0.3528 -0.2124
   25MOL   C160 5968   0.909   7.687   2.461 -0.0167  0.1770  0.0864
   25MOL   C161 5969   1.022   0.055   2.646  0.1278  0.0554 -0.3090
   25MOL   O162 5970   0.926   0.125   2.640 -0.4238  0.4119  0.1503
   25MOL   O163 5971   1.126   0.077   2.723 -0.0188  0.0594 -0.0946
   25MOL   H164 5972   1.141   7.566   2.680  0.9432  0.5071 -0.5622
   25MOL   H165 5973   1.056   7.487   2.566  2.3674  0.3625  0.4024
   25MOL   H166 5974   0.919   7.598   2.398  1.6582 -0.5883  1.4019
   25MOL   H167 5975   0.899   0.000   2.388  1.3361 -0.1954 -0.5388
   25MOL   H168 5976   0.812   7.682   2.509 -0.2665  0.9986 -0.3231
   25MOL   H169 5977   1.199   0.018   2.714  0.1847  0.0178  1.6851
   25MOL   C170 5978   1.167   7.715   2.466 -0.0489  0.5293 -0.5132
   25MOL   C171 5979   1.210   0.076   2.379  0.1643  0.1983 -0.1544
   25MOL   C172 5980   1.252   0.190   2.469  0.4488  0.1564 -0.5528
   25MOL   C173 5981   1.341   0.035   2.311  0.4159 -0.6269 -0.2716
   25MOL   O174 5982   1.455   0.072   2.345  0.6009 -0.0111  0.6049
   25MOL   O175 5983   1.323   7.710   2.216  0.3918  0.2122 -0.1152
   25MOL   H176 5984   1.243   7.692   2.540  0.4259  0.9643 -0.8649
   25MOL   H177 5985   1.166   7.622   2.410 -3.6359  0.5434 -0.5886
   25MOL   H178 5986   1.306   0.265   2.411  0.1114 -0.9083 -2.3060
   25MOL   H179 5987   1.316   0.178   2.556  1.0499  1.5507 -0.7893
   25MOL   H180 5988   1.164   0.243   2.505  1.2538  2.7157 -2.2529
   25MOL   H181 5989   1.411   7.690   2.188  0.0367  0.1626 -1.2190
   25MOL   C182 5990   1.098   0.120   2.281  0.1023 -0.2552 -0.0939
   25MOL   C183 5991   1.113   0.214   2.152  0.1513  0.4003  0.2802
   25MOL   C184 5992   0.959   0.235   2.111  0.6143 -0.3683 -1.2612
   25MOL   C185 5993   1.178   0.351   2.188  0.0235  0.1253 -0.6016
   25MOL   O186 5994   1.118   0.458   2.199  0.4562  0.5242 -0.4827
   25MOL   O187 5995   1.309   0.348   2.196  0.1857  0.0107  0.6685
   25MOL   H188 5996   1.050   0.031   2.242  1.7622 -0.7480 -1.0420
   25MOL   H189 5997   1.024   0.164   2.348  0.7954  0.7717  0.0236
   25MOL   H190 5998   0.915   0.261   2.207  0.8994 -2.2472 -0.6046
   25MOL   H191 5999   0.916   0.141   2.079  0.2455  0.5887 -3.6827
   25MOL   H192 6000   0.930   0.313   2.040  0.2072  0.9227  0.2996
   25MOL   H193 6001   1.344   0.436   2.205 -0.3142  0.3780 -0.8052
   25MOL   C194 6002   1.184   0.141   2.034 -0.1272 -0.4438 -0.3105
   25MOL   C195 6003   1.203   0.194   1.882  0.0147  0.5317  0.6105
   25MOL   C196 6004   1.065   0.194   1.806 -0.4372  0.1412 -0.3851
   25MOL   C197 6005   1.263   0.339   1.876 -0.3869 -0.4303  0.1838
   25MOL   O198 6006   1.381   0.367   1.866 -0.8096  0.6186  0.3562
   25MOL   O199 6007   1.168   0.437   1.895 -0.3486  0.6898 -1.0229
   25MOL   H200 6008   1.289   0.131   2.062 -0.8847 -1.0765  2.4752
   25MOL   H201 6009   1.157   0.036   2.038  0.6484 -0.7857 -3.0326
   25MOL   H202 6010   1.072   0.214   1.700  1.7155 -0.3513 -0.3571
   25MOL   H203 6011   0.996   0.269   1.845 -0.8976 -0.2712 -0.3984
   25MOL   H204 6012   1.012   0.102   1.829 -0.7427  0.5953  0.8011
   25MOL   H205 6013   1.207   0.523   1.884  0.8550  0.1927 -0.6127
   25MOL   C206 6014   1.308   0.105   1.799  0.3092 -0.9870 -0.1672
   25MOL   C207 6015   1.274   7.735   1.733  0.5165 -0.1160  0.0485
   25MOL   C208 6016   1.195   7.641   1.833  0.1622 -0.1744  0.3229
   25MOL   C209 6017   1.184   7.756   1.605 -0.2759  0.4326 -0.1551
   25MOL   O210 6018   1.078   7.699   1.585  0.3519 -0.5173 -0.0640
   25MOL   O211 6019   1.240   0.076   1.519 -0.5543  0.0542  0.3563
   25MOL   H212 6020   1.351   0.162   1.717 -2.0448 -0.4124 -1.0470
   25MOL   H213 6021   1.382   0.088   1.877  1.5570 -0.1710 -1.1459
   25MOL   H214 6022   1.191   7.537   1.803  0.0726 -0.1141  0.1186
   25MOL   H215 6023   1.098   7.672   1.871  0.6770  1.1783  0.5915
   25MOL   H216 6024   1.259   7.651   1.921 -1.0072 -0.4748  1.2086
   25MOL   H217 6025   1.203   0.067   1.433  2.6980 -1.5054 -0.9199
   25MOL   C218 6026   1.411   7.666   1.692 -0.2598 -0.4549  0.0725
   25MOL   C219 6027   1.434   7.545   1.593 -0.3019  0.5498  0.1699
   25MOL   C220 6028   1.315   7.442   1.578 -0.1363  0.4117 -0.3040
   25MOL   C221 6029   1.468   7.610   1.452  0.4216  0.0305  0.5725
   25MOL   O222 6030   1.572   7.675   1.419  0.4654  0.8203  0.9667
   25MOL   O223 6031   1.364   7.614   1.369  0.0239 -0.7386  0.2166
   25MOL   H224 6032   1.471   7.755   1.672 -0.3308 -0.7734 -1.6586
   25MOL   H225 6033   1.449   7.630   1.787 -1.5670  0.1680  0.8594
   25MOL   H226 6034   1.327   7.380   1.489  0.3704  2.2990 -1.6060
   25MOL   H227 6035   1.222   7.499   1.577 -0.2855  0.2437  1.6634
   25MOL   H228 6036   1.322   7.368   1.658  1.4344 -0.1946 -0.9720
   25MOL   H229 6037   1.412   7.632   1.290  0.5473  0.5029  0.8026
   25MOL   C230 6038   1.565   7.474   1.643  0.4394  0.3055  0.6367
   25MOL   C231 6039   1.613   7.351   1.560 -0.8413  0.2774  0.1350
   25MOL   C232 6040   1.721   7.381   1.456  0.4140  0.1901  0.2179
   25MOL   C233 6041   1.672   7.241   1.651 -0.4633 -0.5569 -0.1236
   25MOL   O234 6042   1.749   7.252   1.744  0.1266  0.3563 -0.2132
   25MOL   O235 6043   1.629   7.126   1.610 -0.2472 -0.3110 -0.0775
   25MOL   H236 6044   1.650   7.539   1.664 -0.6967  0.8829  3.5870
   25MOL   H237 6045   1.535   7.441   1.742  1.5462 -1.0070  0.5571
   25MOL   H238 6046   1.755   7.300   1.391  0.5359 -0.0980  0.6362
   25MOL   H239 6047   1.809   7.421   1.507  0.7340 -1.6639  1.1677
   25MOL   H240 6048   1.686   7.458   1.388  1.5192  0.0526 -0.5048
   25MOL   H241 6049   1.664   7.056   1.661 -3.4210 -3.5776 -2.1553
   25MOL   H242 6050   1.529   7.308   1.505 -0.8558 -0.1980  0.5261
   26MOL     C1 6051   0.563   4.812   3.559 -0.4070 -0.1844 -0.9128
   26MOL     C2 6052   0.495   4.687   3.614 -0.5050  0.1321  0.4839
   26MOL     C3 6053   0.575   4.656   3.750 -0.1154  0.0446 -0.0816
   26MOL     C4 6054   0.349   4.718   3.641 -0.1380  0.8540 -0.2635
   26MOL     O5 6055   0.297   4.713   3.753  0.0847 -0.1461  0.6110
   26MOL     O6 6056   0.281   4.757   3.531  1.0890 -0.1863 -0.4093
   26MOL     H7 6057   0.516   4.846   3.466 -0.3061 -0.1841 -0.9639
   26MOL     H8 6058   0.666   4.793   3.529  0.2653  1.0477  0.5288
   26MOL     H9 6059   0.651   4.577   3.746 -0.3108 -0.0894 -1.1715
   26MOL    H10 6060   0.508   4.620   3.828 -0.4519 -2.2099 -1.3654
   26MOL    H11 6061   0.613   4.751   3.786 -2.8468  1.2068 -0.2275
   26MOL    H12 6062   0.192   4.775   3.559  1.1568 -0.8920  0.2520
   26MOL    H13 6063   0.571   4.897   3.626 -2.5202  0.7950 -1.8549
   26MOL    C14 6064   0.508   4.573   3.509  0.2796  0.5829 -0.3990
   26MOL    C15 6065   0.438   4.431   3.520 -0.5362 -0.0303 -0.1944
   26MOL    C16 6066   0.416   4.387   3.665  0.3124 -0.7205 -0.0663
   26MOL    C17 6067   0.298   4.426   3.450 -0.2471  0.0648  0.3639
   26MOL    O18 6068   0.244   4.523   3.403 -0.3587 -0.0073  0.1194
   26MOL    O19 6069   0.233   4.308   3.457 -0.1316  0.0762 -0.0524
   26MOL    H20 6070   0.469   4.622   3.420 -0.9557  1.4230  0.5864
   26MOL    H21 6071   0.616   4.561   3.499  0.3074 -0.6120  1.1437
   26MOL    H22 6072   0.509   4.373   3.720 -0.0490  0.2210  0.8029
   26MOL    H23 6073   0.360   4.294   3.673  1.3819 -1.4644 -0.9543
   26MOL    H24 6074   0.359   4.455   3.728  0.0007 -0.6689 -0.3994
   26MOL    H25 6075   0.147   4.318   3.421 -1.1281  0.4519  2.3248
   26MOL    C26 6076   0.529   4.316   3.464 -0.3280 -0.0323  0.0052
   26MOL    C27 6077   0.588   4.298   3.318 -0.1864 -0.1114 -0.5245
   26MOL    C28 6078   0.487   4.346   3.211 -0.3553 -0.3434 -0.3117
   26MOL    C29 6079   0.724   4.370   3.307 -0.1645 -0.7038 -0.1754
   26MOL    O30 6080   0.832   4.314   3.321  0.2348  0.2936  0.0367
   26MOL    O31 6081   0.711   4.503   3.280 -0.1303 -0.0548 -0.1277
   26MOL    H32 6082   0.619   4.317   3.525 -1.0998  0.7650  1.1619
   26MOL    H33 6083   0.488   4.221   3.499  0.9432 -1.3329 -1.9435
   26MOL    H34 6084   0.469   4.453   3.220  2.5455  0.1131  0.4815
   26MOL    H35 6085   0.391   4.294   3.203 -1.2217  1.0350  1.0059
   26MOL    H36 6086   0.545   4.326   3.120  0.4981  0.1721  0.1170
   26MOL    H37 6087   0.803   4.527   3.280  0.2538 -1.4733 -0.4527
   26MOL    C38 6088   0.614   4.140   3.300  0.4600  0.0074 -0.2042
   26MOL    C39 6089   0.500   4.022   3.275  0.0302  0.1032  0.1740
   26MOL    C40 6090   0.358   4.048   3.347 -0.5310 -0.1083  0.2321
   26MOL    C41 6091   0.462   4.022   3.127  0.2303  0.2698 -0.1747
   26MOL    O42 6092   0.527   4.081   3.039  0.7717 -0.6498  0.3374
   26MOL    O43 6093   0.348   3.954   3.098 -0.1603  0.5617 -0.1950
   26MOL    H44 6094   0.687   4.125   3.220 -1.3868  1.0121 -2.1453
   26MOL    H45 6095   0.664   4.114   3.393  1.7793  0.4707 -0.7819
   26MOL    H46 6096   0.305   4.129   3.297  0.9383  0.0213 -1.1562
   26MOL    H47 6097   0.363   4.069   3.454  0.3371  2.9242 -0.3577
   26MOL    H48 6098   0.288   3.964   3.344 -0.5007 -0.1652  0.9482
   26MOL    H49 6099   0.331   3.948   3.005  1.0812  1.9862 -0.5439
   26MOL    C50 6100   0.565   3.886   3.315  0.2649  0.6391 -0.0162
   26MOL    C51 6101   0.536   3.793   3.439 -0.4927 -0.5790 -0.7020
   26MOL    C52 6102   0.390   3.744   3.439  0.2672  0.1008  0.0018
   26MOL    C53 6103   0.627   3.665   3.420  0.4184 -0.3452  0.1372
   26MOL    O54 6104   0.582   3.563   3.372 -0.3870 -0.6234  0.0856
   26MOL    O55 6105   0.758   3.673   3.442 -0.0849 -0.5068 -0.2910
   26MOL    H56 6106   0.544   3.811   3.238 -0.3152 -1.8025  2.4367
   26MOL    H57 6107   0.673   3.896   3.309  0.3750 -0.4888  0.0140
   26MOL    H58 6108   0.315   3.811   3.480  1.6315  1.6811 -0.0261
   26MOL    H59 6109   0.369   3.650   3.490 -1.0269 -0.2015 -1.0804
   26MOL    H60 6110   0.374   3.728   3.333 -1.4328  1.1204  0.0975
   26MOL    H61 6111   0.796   3.592   3.412  0.1124 -0.1855 -0.9260
   26MOL    C62 6112   0.579   3.873   3.569 -0.2193 -0.5800  0.5661
   26MOL    C63 6113   0.535   3.835   3.717 -0.6980 -0.6184 -0.0049
   26MOL    C64 6114   0.400   3.911   3.757 -0.2369 -0.4788 -0.1312
   26MOL    C65 6115   0.525   3.683   3.735 -0.6139  0.2113  0.2724
   26MOL    O66 6116   0.619   3.607   3.733  0.5683  0.1010  0.5377
   26MOL    O67 6117   0.395   3.637   3.737  0.3363 -0.3446  0.3427
   26MOL    H68 6118   0.687   3.864   3.585 -0.3554 -1.3927  1.0720
   26MOL    H69 6119   0.558   3.978   3.550 -1.5752 -0.7180  1.2426
   26MOL    H70 6120   0.363   3.885   3.856 -1.1356 -0.9153 -0.5756
   26MOL    H71 6121   0.319   3.886   3.689  0.2788 -1.6559 -0.3290
   26MOL    H72 6122   0.410   4.019   3.751 -0.9744 -0.3801  0.3678
   26MOL    H73 6123   0.382   3.544   3.751  0.6046 -0.9238 -2.7683
   26MOL    C74 6124   0.651   3.869   3.827  0.1768  0.5007 -0.1223
   26MOL    C75 6125   0.685   4.006   3.888  0.0550 -0.1402  0.2821
   26MOL    C76 6126   0.713   4.100   3.763 -0.1821 -0.1860 -0.4714
   26MOL    C77 6127   0.568   4.069   3.974 -0.3670 -0.0152  0.2744
   26MOL    O78 6128   0.508   3.992   4.045  0.1569  0.0021 -0.2412
   26MOL    O79 6129   0.536   4.201   3.956 -0.2851  0.1999 -0.0882
   26MOL    H80 6130   0.631   3.806   3.915  0.5748  0.6359  0.0657
   26MOL    H81 6131   0.744   3.830   3.784 -0.3053  2.6040 -3.1824
   26MOL    H82 6132   0.770   4.061   3.679  1.0045  1.5126 -0.4823
   26MOL    H83 6133   0.766   4.192   3.789 -0.3050 -0.1149 -0.4752
   26MOL    H84 6134   0.620   4.137   3.720 -0.3256 -0.3826 -0.3280
   26MOL    H85 6135   0.453   4.210   4.001  0.5386 -1.2974  1.8250
   26MOL    C86 6136   0.807   3.996   3.988 -0.2043  0.5320  0.1157
   26MOL    C87 6137   0.896   4.129   4.027 -1.4057  0.2376 -0.0209
   26MOL    C88 6138   0.823   4.260   4.064 -0.3634  0.0471 -0.5773
   26MOL    C89 6139   0.972   4.080   4.155  0.4913 -0.0685  0.3046
   26MOL    O90 6140   0.952   4.128   4.268  0.3340 -0.0415 -0.0271
   26MOL    O91 6141   1.061   3.977   4.127  0.5138  0.7981 -0.5789
   26MOL    H92 6142   0.774   3.944   4.078  1.3228  1.2190  1.1102
   26MOL    H93 6143   0.887   3.938   3.943  1.5944  2.2569  0.9641
   26MOL    H94 6144   0.887   4.344   4.091  0.5929 -0.9711  0.3981
   26MOL    H95 6145   0.753   4.253   4.147  1.3117  1.8835  1.0437
   26MOL    H96 6146   0.768   4.299   3.979 -1.4312 -2.0294 -0.8775
   26MOL    H97 6147   1.090   3.947   4.212  1.3583  1.0926 -0.7532
   26MOL    C98 6148   1.000   4.156   3.910  0.2586  0.1366  0.1813
   26MOL    C99 6149   1.083   4.285   3.880 -0.4556  0.2083  0.8225
   26MOL   C100 6150   0.984   4.399   3.829 -0.4033  0.1109 -0.0592
   26MOL   C101 6151   1.161   4.341   4.001 -0.6162 -0.5351 -0.6349
   26MOL   O102 6152   1.137   4.452   4.045  0.1207 -0.8146  0.1055
   26MOL   O103 6153   1.253   4.259   4.062  0.3350  0.4274  0.2230
   26MOL   H104 6154   1.073   4.077   3.904  1.0670  0.9747 -1.4635
   26MOL   H105 6155   0.953   4.129   3.815  2.9541 -1.0395 -0.8649
   26MOL   H106 6156   0.907   4.351   3.769  0.4478 -1.0784 -0.2142
   26MOL   H107 6157   1.030   4.474   3.765 -1.2294  0.9949  0.3640
   26MOL   H108 6158   0.934   4.456   3.907  0.8034 -0.3339  1.0538
   26MOL   H109 6159   1.278   4.298   4.144 -3.3373  0.1220  1.5538
   26MOL   C110 6160   1.203   4.257   3.776  0.4881 -0.6162  0.0512
   26MOL   C111 6161   1.183   4.198   3.628 -0.0357 -0.3027 -0.0294
   26MOL   C112 6162   1.182   4.044   3.632  0.1006 -0.1180 -0.4980
   26MOL   C113 6163   1.055   4.251   3.559 -0.2819  0.0176 -0.0408
   26MOL   O114 6164   1.038   4.372   3.535 -0.4120  0.2442 -0.4906
   26MOL   O115 6165   0.967   4.150   3.515 -0.1186 -0.4706  0.2688
   26MOL   H116 6166   1.249   4.355   3.767  1.0495 -0.7646  1.2222
   26MOL   H117 6167   1.285   4.203   3.824  0.8295 -0.2557 -0.1227
   26MOL   H118 6168   1.094   4.006   3.685  2.4845  0.8432  4.4889
   26MOL   H119 6169   1.269   3.998   3.679  0.8767 -0.2765 -2.0685
   26MOL   H120 6170   1.180   3.997   3.534 -0.1976 -0.9632 -0.0979
   26MOL   H121 6171   0.898   4.181   3.457  0.3148 -1.7419 -0.9500
   26MOL   C122 6172   1.304   4.241   3.534  0.5820  1.1990  0.1131
   26MOL   C123 6173   1.357   4.182   3.402  0.3150 -0.0649  0.6586
   26MOL   C124 6174   1.460   4.295   3.357  0.4999 -0.0892 -0.4146
   26MOL   C125 6175   1.431   4.049   3.428 -0.0419 -0.0283 -0.8996
   26MOL   O126 6176   1.407   3.937   3.385 -0.0436 -0.1040  0.0195
   26MOL   O127 6177   1.534   4.071   3.522  0.7282  0.3919 -0.1832
   26MOL   H128 6178   1.290   4.348   3.520  1.2713  1.2041 -0.5806
   26MOL   H129 6179   1.388   4.240   3.603  1.1187  1.0236 -0.5408
   26MOL   H130 6180   1.504   4.361   3.431 -0.9672  0.4457 -0.0152
   26MOL   H131 6181   1.424   4.360   3.277 -1.1828 -0.1778  0.2621
   26MOL   H132 6182   1.548   4.243   3.317 -0.3536 -2.5416  0.7661
   26MOL   H133 6183   1.576   3.988   3.538 -1.4640 -0.7228 -0.0003
   26MOL   C134 6184   1.238   4.170   3.303  0.2724  0.3258 -0.0258
   26MOL   C135 6185   1.241   4.131   3.149  0.6106  0.2058 -0.6803
   26MOL   C136 6186   1.170   4.246   3.059 -0.2153  0.5070 -0.1087
   26MOL   C137 6187   1.388   4.131   3.099  0.0244 -0.3027  0.0080
   26MOL   O138 6188   1.443   4.238   3.067 -0.0731 -0.2799 -0.1387
   26MOL   O139 6189   1.460   4.019   3.110  0.0632  0.0056  1.2726
   26MOL   H140 6190   1.178   4.096   3.357  2.1776 -0.5372  0.9614
   26MOL   H141 6191   1.204   4.273   3.307 -0.0704  0.1813  1.0153
   26MOL   H142 6192   1.223   4.341   3.070  0.0328  0.5700 -1.6978
   26MOL   H143 6193   1.071   4.260   3.103 -0.6312  0.9565 -1.1725
   26MOL   H144 6194   1.162   4.229   2.951  0.0857 -2.2301  0.2773
   26MOL   H145 6195   1.412   3.946   3.147  0.2895 -1.6310 -1.4944
   26MOL   C146 6196   1.180   3.984   3.123  0.0935 -0.2714 -0.1255
   26MOL   C147 6197   1.027   3.951   3.115 -0.2770 -0.7045  0.1484
   26MOL   C148 6198   0.953   4.009   3.240 -0.2569  0.9802  0.1427
   26MOL   C149 6199   0.957   3.998   2.982  0.0582  0.4451  0.0806
   26MOL   O150 6200   1.015   4.038   2.879 -0.6428 -0.0002 -0.2695
   26MOL   O151 6201   0.824   3.961   2.982 -0.1998  0.0576  0.0899
   26MOL   H152 6202   1.230   3.954   3.031 -1.8899 -2.1069 -0.6482
   26MOL   H153 6203   1.217   3.915   3.199 -0.3999 -0.9731 -0.5203
   26MOL   H154 6204   0.998   3.978   3.335  0.7545  0.8949 -0.3595
   26MOL   H155 6205   0.850   3.974   3.242 -0.3438  1.1700 -1.1055
   26MOL   H156 6206   0.945   4.117   3.250  1.1915  1.0411  0.7546
   26MOL   H157 6207   0.791   3.966   2.894 -0.3422 -2.2739 -0.0195
   26MOL   C158 6208   1.009   3.790   3.132 -0.3926 -0.1277  0.7573
   26MOL   C159 6209   1.087   3.683   3.048 -0.2200 -0.0819  0.3888
   26MOL   C160 6210   1.106   3.720   2.898 -0.0335 -0.0642  0.9890
   26MOL   C161 6211   1.240   3.680   3.101  0.0671 -0.5049 -0.2877
   26MOL   O162 6212   1.337   3.681   3.027  0.3043 -0.5965  0.8645
   26MOL   O163 6213   1.245   3.668   3.234 -0.0533  0.4706  0.3359
   26MOL   H164 6214   1.027   3.763   3.236 -0.5450 -2.3535  0.2324
   26MOL   H165 6215   0.902   3.774   3.129 -0.4176  0.3612 -0.9716
   26MOL   H166 6216   1.167   3.652   2.839  2.5166  2.6316  0.3854
   26MOL   H167 6217   1.165   3.812   2.890 -0.8096  0.3586  0.0624
   26MOL   H168 6218   1.012   3.741   2.847 -0.2345  1.1878  1.8436
   26MOL   H169 6219   1.335   3.659   3.259  0.3632 -0.9768 -1.6059
   26MOL   C170 6220   1.021   3.543   3.069  0.2326  0.2127  0.2271
   26MOL   C171 6221   0.898   3.493   2.981  0.0206 -0.1733 -0.0340
   26MOL   C172 6222   0.783   3.596   2.957 -0.3370  0.4294  0.4744
   26MOL   C173 6223   0.966   3.466   2.839 -0.4112 -0.7305 -0.3310
   26MOL   O174 6224   0.908   3.505   2.733  0.0526 -0.4940  0.5826
   26MOL   O175 6225   1.089   3.402   2.842  0.1624  0.3939  0.2802
   26MOL   H176 6226   1.096   3.465   3.077 -1.3764 -1.4882 -0.7407
   26MOL   H177 6227   0.993   3.550   3.174  0.8580 -0.6988  0.4546
   26MOL   H178 6228   0.738   3.603   3.056 -0.4185  1.5227  0.3672
   26MOL   H179 6229   0.711   3.568   2.879  0.0208 -0.5218  0.4876
   26MOL   H180 6230   0.825   3.693   2.929 -1.1407  0.5521 -0.3462
   26MOL   H181 6231   1.135   3.397   2.760  0.5327 -0.4855  0.5439
   26MOL   C182 6232   0.850   3.351   3.040 -0.3099 -0.9340 -0.1030
   26MOL   C183 6233   0.755   3.247   2.979 -0.8215 -0.1796 -0.0725
   26MOL   C184 6234   0.793   3.193   2.835  0.0371  0.2284  0.8853
   26MOL   C185 6235   0.776   3.125   3.069  0.0384  0.4233  0.1051
   26MOL   O186 6236   0.857   3.032   3.049  0.6110 -0.4062 -0.3333
   26MOL   O187 6237   0.704   3.125   3.185 -0.3976 -0.5226  0.0336
   26MOL   H188 6238   0.943   3.296   3.054 -0.0120 -0.3353  0.3023
   26MOL   H189 6239   0.803   3.372   3.136 -1.6767  1.1274 -1.1761
   26MOL   H190 6240   0.744   3.098   2.817  0.5423  0.1393 -0.0739
   26MOL   H191 6241   0.896   3.162   2.815 -0.0640  0.6452 -0.3879
   26MOL   H192 6242   0.780   3.273   2.761  1.2908 -1.3944 -1.1636
   26MOL   H193 6243   0.739   3.053   3.235  0.4729  0.2795  0.5983
   26MOL   C194 6244   0.601   3.296   2.993  0.3427 -0.2162  0.5395
   26MOL   C195 6245   0.491   3.252   2.890 -0.0229 -0.4468 -0.3912
   26MOL   C196 6246   0.520   3.305   2.744 -0.3237 -0.1552 -0.4041
   26MOL   C197 6247   0.462   3.095   2.891 -0.1430  0.0626  0.6751
   26MOL   O198 6248   0.500   3.015   2.971 -0.4786 -0.3369 -0.5111
   26MOL   O199 6249   0.375   3.067   2.797  0.3446 -0.1312 -0.2536
   26MOL   H200 6250   0.548   3.273   3.085 -0.9171 -2.5305 -0.7369
   26MOL   H201 6251   0.598   3.405   2.985 -0.4502 -0.2966 -0.4216
   26MOL   H202 6252   0.432   3.329   2.683 -0.1221  1.1548 -0.2100
   26MOL   H203 6253   0.575   3.231   2.686  0.3430 -0.2648  0.3714
   26MOL   H204 6254   0.570   3.402   2.747 -0.6578  0.0391 -0.9617
   26MOL   H205 6255   0.356   2.975   2.782 -0.6477 -0.2443  1.5792
   26MOL   C206 6256   0.350   3.322   2.925  0.1325  0.4177  0.2104
   26MOL   C207 6257   0.279   3.345   3.061 -0.0620  0.0908  0.1085
   26MOL   C208 6258   0.271   3.212   3.145  0.4647  0.1644 -0.0330
   26MOL   C209 6259   0.360   3.452   3.141 -0.6286 -0.4909 -0.7608
   26MOL   O210 6260   0.387   3.563   3.098 -0.0059 -0.2417 -0.1534
   26MOL   O211 6261   0.416   3.404   3.258  0.1089  0.2596 -0.2664
   26MOL   H212 6262   0.361   3.421   2.880  1.1255  0.6453  0.9417
   26MOL   H213 6263   0.277   3.274   2.860 -1.2799  2.8439 -0.0636
   26MOL   H214 6264   0.226   3.130   3.090  3.0039  0.5469 -2.7944
   26MOL   H215 6265   0.227   3.213   3.245 -2.9692  2.5460 -1.4798
   26MOL   H216 6266   0.368   3.167   3.169  1.3028  0.7957 -2.1808
   26MOL   H217 6267   0.480   3.457   3.302  1.8458 -1.9547 -0.0638
   26MOL   C218 6268   0.132   3.391   3.044 -0.0036 -0.8196 -0.0837
   26MOL   C219 6269   0.038   3.452   3.151  0.1010 -0.1924  0.3535
   26MOL   C220 6270   7.660   3.441   3.084  0.6257  0.6512 -0.7655
   26MOL   C221 6271   0.038   3.374   3.288 -0.4614  0.1045  0.0631
   26MOL   O222 6272   0.083   3.423   3.395 -0.0232  0.3737 -0.1826
   26MOL   O223 6273   7.740   3.254   3.278 -0.0318  0.4027 -0.3079
   26MOL   H224 6274   0.118   3.454   2.956  0.7718  1.6341  1.5124
   26MOL   H225 6275   0.074   3.307   3.005 -3.3845  1.5379 -0.3509
   26MOL   H226 6276   7.575   3.475   3.143  1.1414  0.5556  0.0488
   26MOL   H227 6277   7.627   3.341   3.054 -2.1206  2.0597 -2.5839
   26MOL   H228 6278   7.658   3.502   2.994  0.7752 -0.4959 -1.5597
   26MOL   H229 6279   7.718   3.214   3.361 -5.0012  0.5154 -1.4406
   26MOL   C230 6280   0.078   3.604   3.166 -0.1620 -0.2064  0.3278
   26MOL   C231 6281   7.744   3.700   3.238 -0.4539 -0.7347  0.2779
   26MOL   C232 6282   0.045   3.821   3.304 -0.1847 -0.1430 -0.0866
   26MOL   C233 6283   7.635   3.762   3.140 -0.3100  0.6354  0.4019
   26MOL   O234 6284   7.660   3.786   3.019  0.4675  0.5966  0.0439
   26MOL   O235 6285   7.515   3.784   3.200 -0.4857 -0.3785 -0.5641
   26MOL   H236 6286   0.170   3.614   3.225 -0.8013 -0.8275  1.4490
   26MOL   H237 6287   0.120   3.642   3.073 -0.5401  0.3936  0.3973
   26MOL   H238 6288   7.739   3.862   3.375  2.3440 -1.9495  3.7256
   26MOL   H239 6289   0.074   3.896   3.230  1.7057 -0.6174  0.1655
   26MOL   H240 6290   0.126   3.790   3.369 -1.7273  0.8024  2.3767
   26MOL   H241 6291   7.456   3.829   3.141  1.7291  1.5527 -1.3795
   26MOL   H242 6292   7.694   3.641   3.314 -0.4560  0.8126  1.5142
   27MOL     C1 6293   1.273   2.967   2.777  0.9731 -0.7425  0.0950
   27MOL     C2 6294   1.368   2.854   2.733 -0.8840  0.1759 -0.0313
   27MOL     C3 6295   1.320   2.719   2.778  0.1268 -0.0513  0.0224
   27MOL     C4 6296   1.358   2.827   2.580  0.9025  0.1820 -0.3631
   27MOL     O5 6297   1.269   2.869   2.507  0.1806  0.5446 -0.4633
   27MOL     O6 6298   1.468   2.761   2.531 -0.0932  0.1357  0.0898
   27MOL     H7 6299   1.175   2.967   2.728  0.9910  0.9043  0.0299
   27MOL     H8 6300   1.313   3.059   2.735 -0.9606 -0.0660 -0.3280
   27MOL     H9 6301   1.396   2.642   2.766  1.7896  1.5865 -0.2558
   27MOL    H10 6302   1.227   2.688   2.730 -0.6738 -2.3442  2.9364
   27MOL    H11 6303   1.285   2.722   2.881  0.3793  0.8418  0.0890
   27MOL    H12 6304   1.459   2.747   2.438  1.0075 -0.6512  0.0914
   27MOL    H13 6305   1.251   2.972   2.883  0.2295  0.0977 -0.0937
   27MOL    C14 6306   1.514   2.862   2.792  0.4268  0.2034  0.6004
   27MOL    C15 6307   1.603   2.996   2.793 -0.1383 -0.3130  0.3644
   27MOL    C16 6308   1.746   2.947   2.806  0.4008  0.1608  0.0037
   27MOL    C17 6309   1.579   3.058   2.652  0.0827  0.2100 -0.1007
   27MOL    O18 6310   1.498   3.145   2.632 -0.7687  0.2823  0.2368
   27MOL    O19 6311   1.662   2.998   2.566 -0.0012 -0.2970 -0.3665
   27MOL    H20 6312   1.508   2.814   2.890 -1.9272 -0.9913 -0.1057
   27MOL    H21 6313   1.570   2.783   2.742  0.1259  0.8974 -0.8594
   27MOL    H22 6314   1.770   2.849   2.767  0.1408  0.0828  0.0422
   27MOL    H23 6315   1.775   2.926   2.909 -1.1371 -0.8872  0.2272
   27MOL    H24 6316   1.825   3.016   2.774  2.0380 -0.3045  2.7947
   27MOL    H25 6317   1.673   3.049   2.487  2.9944  2.2724  1.6313
   27MOL    C26 6318   1.564   3.083   2.910 -0.5059 -0.0524 -0.6912
   27MOL    C27 6319   1.640   3.223   2.951  0.0847  0.1057 -1.0008
   27MOL    C28 6320   1.786   3.195   3.000 -0.2165  0.1612  1.1889
   27MOL    C29 6321   1.642   3.324   2.834 -0.0827  0.3308 -0.7775
   27MOL    O30 6322   1.741   3.340   2.758 -0.2251  0.6284  0.3771
   27MOL    O31 6323   1.524   3.397   2.827 -0.4217  0.5091 -0.5843
   27MOL    H32 6324   1.458   3.106   2.905 -0.9051 -1.5914  0.2558
   27MOL    H33 6325   1.584   3.016   2.994  1.9249  1.4357 -0.0281
   27MOL    H34 6326   1.796   3.129   3.086 -0.9764 -2.6953 -0.8259
   27MOL    H35 6327   1.838   3.291   3.009  1.3963 -0.7314  1.6067
   27MOL    H36 6328   1.851   3.152   2.923 -1.2084 -2.6394  1.8607
   27MOL    H37 6329   1.540   3.467   2.765  4.6674 -0.2863 -0.4376
   27MOL    C38 6330   1.571   3.275   3.085  0.5121  0.5917  0.4576
   27MOL    C39 6331   1.631   3.393   3.178  0.2463 -0.4249 -0.0734
   27MOL    C40 6332   1.667   3.522   3.100  0.2822  0.9290 -0.0693
   27MOL    C41 6333   1.509   3.434   3.267  0.0898 -0.4856 -0.4793
   27MOL    O42 6334   1.479   3.555   3.294  0.0821 -0.0809  0.1248
   27MOL    O43 6335   1.446   3.327   3.335 -0.2159 -0.0487  0.1439
   27MOL    H44 6336   1.465   3.295   3.074  0.4264 -1.4130 -2.9737
   27MOL    H45 6337   1.581   3.187   3.148 -0.9011  0.7741  0.9639
   27MOL    H46 6338   1.594   3.561   3.029  0.8454  0.6774 -0.7859
   27MOL    H47 6339   1.751   3.503   3.033 -0.4784  1.9686 -1.3534
   27MOL    H48 6340   1.702   3.600   3.167 -0.5185  1.2712 -0.0459
   27MOL    H49 6341   1.464   3.241   3.301 -2.7746  0.0286 -1.5276
   27MOL    C50 6342   1.762   3.352   3.265 -0.6425 -0.3426 -0.4855
   27MOL    C51 6343   1.793   3.392   3.411 -0.3306  0.1481 -0.1456
   27MOL    C52 6344   1.809   3.543   3.418 -0.3197  0.0043  0.2334
   27MOL    C53 6345   1.695   3.333   3.517 -0.1253 -0.7317 -0.1860
   27MOL    O54 6346   1.655   3.216   3.519 -0.4274 -0.2642 -0.6939
   27MOL    O55 6347   1.669   3.425   3.614 -0.1640  0.5101  0.2404
   27MOL    H56 6348   1.782   3.245   3.260 -3.5424 -1.0473  1.6079
   27MOL    H57 6349   1.843   3.388   3.202 -0.4726  0.9192  0.4368
   27MOL    H58 6350   1.855   3.587   3.329 -0.6830  1.7211  0.8655
   27MOL    H59 6351   1.852   3.575   3.513 -0.1988 -2.3777  0.9881
   27MOL    H60 6352   1.712   3.593   3.410  0.9918  3.1011  2.4923
   27MOL    H61 6353   1.721   3.500   3.591  1.1769  0.1862  2.1211
   27MOL    C62 6354   1.941   3.347   3.453 -0.5002 -0.3782 -0.6411
   27MOL    C63 6355   2.064   3.329   3.359  0.2485 -0.5402 -0.3136
   27MOL    C64 6356   2.057   3.211   3.252  0.2351  0.1181  0.9236
   27MOL    C65 6357   2.091   3.455   3.269  0.0965  0.7771 -0.0361
   27MOL    O66 6358   2.108   3.451   3.146  0.5861 -0.5698 -0.2859
   27MOL    O67 6359   2.114   3.565   3.346 -0.2587 -0.8669 -0.2468
   27MOL    H68 6360   1.966   3.404   3.542 -0.0993 -1.0785 -0.3070
   27MOL    H69 6361   1.927   3.247   3.492  1.6496 -1.2785 -2.0933
   27MOL    H70 6362   2.010   3.120   3.288  0.7150 -0.3071  0.4865
   27MOL    H71 6363   2.156   3.176   3.224  0.1869  1.8797 -1.6497
   27MOL    H72 6364   1.998   3.239   3.164  2.1318  1.6090  0.0808
   27MOL    H73 6365   2.135   3.638   3.291 -0.7378 -0.3781  0.2073
   27MOL    C74 6366   2.199   3.306   3.449  0.2219 -0.2221 -0.1233
   27MOL    C75 6367   2.205   3.191   3.558  0.4065  0.4817  0.9473
   27MOL    C76 6368   2.110   3.231   3.679 -0.6414 -0.5566  0.1634
   27MOL    C77 6369   2.181   3.055   3.492  0.7863 -0.4109 -0.1173
   27MOL    O78 6370   2.266   2.992   3.429 -0.0252  0.1733  0.0774
   27MOL    O79 6371   2.058   3.007   3.520 -0.3619 -0.4261 -0.2225
   27MOL    H80 6372   2.284   3.286   3.384 -0.0958 -1.3257 -0.2235
   27MOL    H81 6373   2.222   3.402   3.495 -3.0193  0.2866  0.6237
   27MOL    H82 6374   2.150   3.224   3.780 -4.0420 -1.7856  1.4980
   27MOL    H83 6375   2.005   3.204   3.668 -0.4681 -0.5348 -1.8569
   27MOL    H84 6376   2.109   3.340   3.680 -0.1580 -0.5409 -0.6785
   27MOL    H85 6377   1.998   3.079   3.536  0.2950  0.7311 -2.6709
   27MOL    C86 6378   2.352   3.201   3.610 -0.2825  0.0685 -0.4283
   27MOL    C87 6379   2.411   3.119   3.739 -0.2810  0.5388  0.3081
   27MOL    C88 6380   2.552   3.060   3.715  0.2413 -0.2107  0.3909
   27MOL    C89 6381   2.438   3.223   3.847 -0.2165 -0.0962 -0.0362
   27MOL    O90 6382   2.549   3.273   3.864 -0.1027  0.1280 -0.1867
   27MOL    O91 6383   2.334   3.260   3.924 -0.1617 -0.5870  0.0921
   27MOL    H92 6384   2.406   3.161   3.525  1.8580  1.2847  0.3148
   27MOL    H93 6385   2.388   3.304   3.618 -1.5168  0.3416  2.4745
   27MOL    H94 6386   2.529   2.967   3.662 -1.9957  0.4123  0.2179
   27MOL    H95 6387   2.625   3.048   3.795 -0.2730  0.2551  0.9229
   27MOL    H96 6388   2.603   3.133   3.651 -0.8745  0.4155  0.2045
   27MOL    H97 6389   2.358   3.317   3.996  0.6337 -1.4129  0.5087
   27MOL    C98 6390   2.321   2.995   3.778  0.2954  0.0590  0.0677
   27MOL    C99 6391   2.348   2.887   3.881  0.0689  0.0228 -0.8330
   27MOL   C100 6392   2.483   2.798   3.864 -0.8500 -0.3728 -0.0493
   27MOL   C101 6393   2.362   2.957   4.024 -0.5222 -0.2602  0.7079
   27MOL   O102 6394   2.466   3.011   4.058 -0.0625  0.2509 -1.1801
   27MOL   O103 6395   2.247   2.970   4.087 -0.1042 -0.2347  0.2222
   27MOL   H104 6396   2.234   3.044   3.822 -0.5402 -0.2563 -1.2317
   27MOL   H105 6397   2.294   2.948   3.684 -0.5147  2.2512 -0.8286
   27MOL   H106 6398   2.483   2.707   3.924  0.8700 -0.5196 -0.2456
   27MOL   H107 6399   2.569   2.855   3.898  0.4702 -1.2950 -1.7989
   27MOL   H108 6400   2.505   2.758   3.765  2.9171  0.2791  0.4695
   27MOL   H109 6401   2.265   3.032   4.156 -2.6013  2.3203 -1.3247
   27MOL   C110 6402   2.231   2.785   3.886 -0.0539  0.1622  0.0826
   27MOL   C111 6403   2.201   2.669   3.783  0.4532  0.0470 -0.8634
   27MOL   C112 6404   2.213   2.711   3.637  0.2722 -0.0804  0.4372
   27MOL   C113 6405   2.293   2.546   3.813  0.0538  0.0399  0.1525
   27MOL   O114 6406   2.297   2.490   3.923 -0.8329 -0.8637 -0.2789
   27MOL   O115 6407   2.379   2.517   3.711 -0.0394 -0.3262  0.5805
   27MOL   H116 6408   2.236   2.730   3.980 -1.2095  0.6703  0.4478
   27MOL   H117 6409   2.139   2.843   3.894  0.6998  1.1879  1.6208
   27MOL   H118 6410   2.309   2.747   3.600 -1.0821  2.4060 -0.8013
   27MOL   H119 6411   2.134   2.780   3.607  0.0176  0.0158  1.3211
   27MOL   H120 6412   2.206   2.629   3.566  0.9260  0.0898  0.1722
   27MOL   H121 6413   2.385   2.586   3.646  0.1362  0.9271  1.8958
   27MOL   C122 6414   2.053   2.629   3.810  0.3679  0.1658  0.7317
   27MOL   C123 6415   1.981   2.522   3.715 -0.0505 -0.0702  0.7103
   27MOL   C124 6416   2.078   2.409   3.669 -0.5764 -0.4850 -0.1559
   27MOL   C125 6417   1.871   2.460   3.807  0.0889 -0.5617  0.2126
   27MOL   O126 6418   1.754   2.505   3.801  0.2929 -0.0167  0.2571
   27MOL   O127 6419   1.914   2.375   3.901  0.5648  0.7263  1.1017
   27MOL   H128 6420   2.058   2.590   3.911  1.1754 -2.9461 -0.4514
   27MOL   H129 6421   1.988   2.717   3.813  0.4280  0.3292 -1.8094
   27MOL   H130 6422   2.157   2.444   3.603  0.5914  0.4934  1.7128
   27MOL   H131 6423   2.041   2.315   3.630 -0.6257 -0.0751 -1.1054
   27MOL   H132 6424   2.134   2.367   3.753 -1.5241 -0.9092  0.2756
   27MOL   H133 6425   2.000   2.339   3.890 -0.1215 -0.4156 -0.7286
   27MOL   C134 6426   1.907   2.583   3.591  0.3547 -0.5500  0.0611
   27MOL   C135 6427   1.823   2.504   3.486 -0.5206  0.7669 -0.4156
   27MOL   C136 6428   1.920   2.482   3.366 -0.6373 -0.5507  1.0120
   27MOL   C137 6429   1.766   2.367   3.527 -0.5242 -0.1864 -0.0087
   27MOL   O138 6430   1.821   2.266   3.535 -0.3848  0.2216  0.0713
   27MOL   O139 6431   1.635   2.366   3.568 -0.0296  0.0385  0.8331
   27MOL   H140 6432   1.842   2.656   3.639 -0.7509  0.1485 -2.3973
   27MOL   H141 6433   1.974   2.649   3.536 -2.2278 -0.9974 -3.8911
   27MOL   H142 6434   2.013   2.434   3.399  0.1997 -1.5395 -2.5951
   27MOL   H143 6435   1.960   2.574   3.325 -0.0366 -1.9653 -1.6529
   27MOL   H144 6436   1.883   2.422   3.283 -0.9024  3.7253 -2.1300
   27MOL   H145 6437   1.622   2.274   3.585 -0.9326 -0.3011 -1.4656
   27MOL   C146 6438   1.702   2.586   3.438 -0.3911 -0.1706  0.1468
   27MOL   C147 6439   1.689   2.736   3.387 -0.0113  0.2352  0.3886
   27MOL   C148 6440   1.759   2.843   3.476 -0.2083  0.8766 -0.0409
   27MOL   C149 6441   1.751   2.761   3.254  0.7665 -0.4803 -0.0502
   27MOL   O150 6442   1.792   2.870   3.221  0.0836 -0.0409 -0.4827
   27MOL   O151 6443   1.773   2.648   3.175 -0.6691  0.0867  0.1056
   27MOL   H152 6444   1.649   2.517   3.372 -2.1704  1.2188  0.0889
   27MOL   H153 6445   1.650   2.603   3.532 -1.4428 -0.7038 -0.3326
   27MOL   H154 6446   1.748   2.947   3.446 -0.7860  1.1199  0.9802
   27MOL   H155 6447   1.866   2.823   3.483 -0.0379  0.9035 -2.3751
   27MOL   H156 6448   1.717   2.827   3.575  0.3752  1.0945  0.2468
   27MOL   H157 6449   1.813   2.654   3.090 -1.0954 -1.2012 -0.2032
   27MOL   C158 6450   1.535   2.770   3.388 -0.6712  0.2867  0.9032
   27MOL   C159 6451   1.429   2.680   3.300  0.2758  0.6197 -0.1079
   27MOL   C160 6452   1.476   2.634   3.153 -0.6026  0.3197 -0.5236
   27MOL   C161 6453   1.396   2.553   3.381  0.2406  0.5043  0.1282
   27MOL   O162 6454   1.390   2.439   3.333 -0.0622  0.5055 -0.0857
   27MOL   O163 6455   1.369   2.576   3.509  0.0546 -0.3086 -0.4420
   27MOL   H164 6456   1.492   2.788   3.486 -2.9791  1.2384 -0.2439
   27MOL   H165 6457   1.524   2.874   3.357 -1.0346  1.3711  4.4667
   27MOL   H166 6458   1.553   2.557   3.152  0.6648  1.5383  1.0771
   27MOL   H167 6459   1.520   2.714   3.094 -1.7146 -0.5771 -2.6318
   27MOL   H168 6460   1.397   2.579   3.101 -0.4637  0.1272 -0.5340
   27MOL   H169 6461   1.326   2.495   3.534  1.7547 -1.0347  0.2015
   27MOL   C170 6462   1.291   2.750   3.301  0.3542  0.4338  0.1564
   27MOL   C171 6463   1.270   2.893   3.235  0.6934 -0.0740 -0.6762
   27MOL   C172 6464   1.367   2.921   3.126 -0.2243  0.5646  0.3982
   27MOL   C173 6465   1.128   2.893   3.170  0.1330  0.2726 -0.0900
   27MOL   O174 6466   1.043   2.805   3.189 -0.4559  0.2194 -0.1587
   27MOL   O175 6467   1.109   3.007   3.089  0.0028  0.6474 -0.3157
   27MOL   H176 6468   1.230   2.674   3.251  2.0277  0.6544 -2.3248
   27MOL   H177 6469   1.248   2.769   3.399  0.3975 -1.6501  0.5999
   27MOL   H178 6470   1.349   2.846   3.049 -0.4092  1.1116 -0.0952
   27MOL   H179 6471   1.473   2.910   3.149  0.3212 -1.0237 -2.5894
   27MOL   H180 6472   1.340   3.018   3.084  0.3069  0.6198  0.1779
   27MOL   H181 6473   1.020   3.002   3.059 -0.1135  0.5120  0.0585
   27MOL   C182 6474   1.286   3.023   3.330  0.1161  0.1852 -0.1971
   27MOL   C183 6475   1.206   3.045   3.470  0.0417 -0.0216  0.7082
   27MOL   C184 6476   1.056   2.993   3.465  0.0770 -0.6212  0.7677
   27MOL   C185 6477   1.282   2.957   3.575  0.0189  0.0405 -1.3511
   27MOL   O186 6478   1.235   2.862   3.631 -1.0039 -0.0923 -0.3521
   27MOL   O187 6479   1.407   3.002   3.590 -0.5192  0.0571 -0.2002
   27MOL   H188 6480   1.391   3.048   3.341  0.0202  0.1644  0.8186
   27MOL   H189 6481   1.253   3.106   3.267 -2.6144  0.3599  1.3594
   27MOL   H190 6482   1.055   2.886   3.445 -0.8741 -0.3222 -0.8233
   27MOL   H191 6483   0.993   3.027   3.383 -2.4464 -0.4552  2.6956
   27MOL   H192 6484   1.001   3.019   3.555 -0.7283 -3.8003  1.2391
   27MOL   H193 6485   1.450   2.943   3.650 -0.7551  0.8908  0.7951
   27MOL   C194 6486   1.196   3.194   3.515 -0.6079 -0.2750  0.2720
   27MOL   C195 6487   1.085   3.304   3.467 -0.0654  0.9326 -0.3507
   27MOL   C196 6488   1.067   3.298   3.317  0.0774 -0.3681 -0.9081
   27MOL   C197 6489   0.940   3.295   3.528  0.8329  1.2152 -0.1236
   27MOL   O198 6490   0.908   3.221   3.624 -0.3023  0.1021 -0.3396
   27MOL   O199 6491   0.854   3.391   3.474 -0.0264  0.4273  0.1178
   27MOL   H200 6492   1.196   3.195   3.624 -2.7652  0.4008  0.2949
   27MOL   H201 6493   1.291   3.241   3.488 -0.4464 -0.7971 -0.0682
   27MOL   H202 6494   1.153   3.306   3.251 -1.0757  0.2098 -2.3591
   27MOL   H203 6495   0.999   3.379   3.292 -0.6636 -0.4784  0.6305
   27MOL   H204 6496   1.014   3.206   3.291  1.9663 -2.6630  2.9501
   27MOL   H205 6497   0.776   3.374   3.525 -1.1601 -2.1060 -2.3170
   27MOL   C206 6498   1.153   3.444   3.497  0.0917 -0.1892  0.5759
   27MOL   C207 6499   1.205   3.499   3.636  0.3515 -0.4239 -0.1310
   27MOL   C208 6500   1.327   3.415   3.682 -0.2565 -0.3361 -0.4203
   27MOL   C209 6501   1.244   3.647   3.607 -0.6680 -0.0343  0.0131
   27MOL   O210 6502   1.356   3.690   3.615 -0.4040  0.5091  0.4905
   27MOL   O211 6503   1.132   3.715   3.574 -0.0813  0.1355  0.1635
   27MOL   H212 6504   1.234   3.445   3.424 -0.7583 -0.9034 -0.3874
   27MOL   H213 6505   1.082   3.515   3.456 -1.2342 -3.0438 -2.2744
   27MOL   H214 6506   1.388   3.476   3.749 -1.4599 -0.8209  1.1279
   27MOL   H215 6507   1.393   3.397   3.597 -1.1467 -2.6777 -0.6544
   27MOL   H216 6508   1.309   3.318   3.727  4.9739 -1.2653 -0.0309
   27MOL   H217 6509   1.051   3.668   3.568  0.5053 -0.7734 -0.9240
   27MOL   C218 6510   1.091   3.485   3.744 -0.8140 -0.3318  0.0740
   27MOL   C219 6511   1.087   3.545   3.882 -0.0904  0.8173 -0.3085
   27MOL   C220 6512   1.222   3.538   3.945  0.0299 -0.2420  0.3843
   27MOL   C221 6513   1.051   3.692   3.879  0.7613  0.3380  0.1865
   27MOL   O222 6514   0.963   3.736   3.805 -0.0767  0.7140  0.2981
   27MOL   O223 6515   1.115   3.772   3.968  0.1814  0.0628  0.4222
   27MOL   H224 6516   0.996   3.505   3.694 -0.4869  0.2010 -0.3475
   27MOL   H225 6517   1.066   3.380   3.755 -2.4237  0.1585  1.3110
   27MOL   H226 6518   1.295   3.605   3.900  0.3133  0.1228  1.3732
   27MOL   H227 6519   1.270   3.441   3.932 -0.7210 -0.7220  1.1195
   27MOL   H228 6520   1.231   3.548   4.054 -0.5938 -0.9281  0.5083
   27MOL   H229 6521   1.072   3.855   3.957 -2.4019 -1.1998  0.5141
   27MOL   C230 6522   0.980   3.464   3.966 -0.5409 -0.7631 -0.0190
   27MOL   C231 6523   0.933   3.524   4.101 -0.0761 -0.0298 -0.4495
   27MOL   C232 6524   0.799   3.592   4.079  0.0383  0.1047 -0.6267
   27MOL   C233 6525   0.943   3.430   4.219 -0.3529 -0.2921  0.4173
   27MOL   O234 6526   0.988   3.318   4.210 -0.2939  0.7973 -0.1003
   27MOL   O235 6527   0.899   3.481   4.336  0.4107  0.0422  0.5410
   27MOL   H236 6528   0.895   3.436   3.903 -0.4266 -0.5037 -0.2897
   27MOL   H237 6529   1.035   3.373   3.990  3.9964  1.6054 -0.7948
   27MOL   H238 6530   0.773   3.640   4.173 -2.3833  2.1488 -2.2938
   27MOL   H239 6531   0.720   3.520   4.060  0.5961 -0.8434  0.5054
   27MOL   H240 6532   0.806   3.670   4.004 -1.1508  0.3718 -0.4705
   27MOL   H241 6533   0.930   3.425   4.406  1.5203 -1.9327 -1.4346
   27MOL   H242 6534   1.003   3.602   4.129  1.7790 -1.6468 -0.4233
   28MOL     C1 6535   4.155   6.162   0.705  0.0706 -0.7492  0.1858
   28MOL     C2 6536   4.205   6.261   0.595 -0.7024 -0.6856 -0.3830
   28MOL     C3 6537   4.085   6.355   0.558 -0.0332  0.0388 -0.0901
   28MOL     C4 6538   4.321   6.350   0.647 -0.2199 -0.3961 -0.1527
   28MOL     O5 6539   4.373   6.336   0.757  0.1215  0.8099  0.3264
   28MOL     O6 6540   4.349   6.452   0.562 -0.7165  0.4277 -0.0491
   28MOL     H7 6541   4.239   6.105   0.744 -0.7303 -2.7774 -0.9882
   28MOL     H8 6542   4.081   6.098   0.659 -0.2183  0.7892 -1.5475
   28MOL     H9 6543   4.087   6.448   0.615 -0.8718  0.4258 -0.6837
   28MOL    H10 6544   3.985   6.316   0.578 -0.2858  0.9111  0.3550
   28MOL    H11 6545   4.091   6.388   0.454 -0.1491 -1.1763 -0.4980
   28MOL    H12 6546   4.403   6.514   0.609 -0.7819 -0.5808  1.4069
   28MOL    H13 6547   4.112   6.218   0.788  0.1587  0.3842 -0.5157
   28MOL    C14 6548   4.243   6.195   0.459 -0.0745  0.3538 -0.1436
   28MOL    C15 6549   4.322   6.052   0.450 -0.4943 -0.0380 -0.0190
   28MOL    C16 6550   4.450   6.064   0.533  0.3324  0.2761  0.5979
   28MOL    C17 6551   4.224   5.932   0.496  0.0479  0.3487  0.1625
   28MOL    O18 6552   4.252   5.861   0.595  0.7438  0.0643 -0.4683
   28MOL    O19 6553   4.106   5.920   0.431  0.0196  0.1500  0.4133
   28MOL    H20 6554   4.150   6.184   0.403 -0.4062 -1.2344  0.6809
   28MOL    H21 6555   4.302   6.265   0.401  1.5259 -1.0225 -0.2375
   28MOL    H22 6556   4.452   6.077   0.641 -0.4170  1.3669  0.4903
   28MOL    H23 6557   4.506   6.151   0.497  1.0597 -1.2075 -1.9850
   28MOL    H24 6558   4.514   5.976   0.542 -1.1672 -0.8688  0.2256
   28MOL    H25 6559   4.096   5.992   0.370  0.4320  0.1424  0.3356
   28MOL    C26 6560   4.364   6.043   0.296 -0.7054  0.1161  0.3819
   28MOL    C27 6561   4.418   5.916   0.222  0.4086  0.3187 -0.0928
   28MOL    C28 6562   4.515   5.826   0.315  0.3726 -0.0143 -0.2361
   28MOL    C29 6563   4.306   5.813   0.186  0.0487 -0.3131 -0.1687
   28MOL    O30 6564   4.187   5.836   0.185  0.3720  0.0029 -0.0692
   28MOL    O31 6565   4.346   5.697   0.149 -0.4839  0.2830  0.0515
   28MOL    H32 6566   4.272   6.062   0.240  0.4006  2.4603 -0.7059
   28MOL    H33 6567   4.413   6.131   0.253  1.1873 -1.1770 -0.2021
   28MOL    H34 6568   4.593   5.892   0.354 -0.8089  0.4466  1.4166
   28MOL    H35 6569   4.567   5.743   0.267  0.8406  0.9669 -1.4428
   28MOL    H36 6570   4.461   5.787   0.402 -0.3043 -3.3940 -2.0790
   28MOL    H37 6571   4.276   5.636   0.132  0.5008 -0.7201 -0.4645
   28MOL    C38 6572   4.471   5.964   0.073 -0.2039  0.1720 -0.0849
   28MOL    C39 6573   4.621   6.019   0.050  0.6568  0.2480 -0.3573
   28MOL    C40 6574   4.664   6.115   0.165 -0.2429 -0.0342 -0.3060
   28MOL    C41 6575   4.724   5.910   0.046 -0.2280 -0.1701  0.2293
   28MOL    O42 6576   4.691   5.794   0.034  0.0165  0.3083 -0.7123
   28MOL    O43 6577   4.855   5.953   0.046 -0.2628  0.0106 -0.0119
   28MOL    H44 6578   4.458   5.880   0.005 -0.3159 -0.6123  0.8868
   28MOL    H45 6579   4.394   6.035   0.042  0.4262  1.2019  0.6566
   28MOL    H46 6580   4.592   6.196   0.173 -1.4565 -1.2905  1.9765
   28MOL    H47 6581   4.761   6.164   0.151  0.5479 -1.3698  0.3614
   28MOL    H48 6582   4.667   6.066   0.262  0.4771 -1.8096 -1.1938
   28MOL    H49 6583   4.916   5.883   0.034 -1.2028 -0.4964 -2.0571
   28MOL    C50 6584   4.625   6.115   7.690  0.2685 -0.2982  0.2375
   28MOL    C51 6585   4.632   6.066   7.539 -0.1520  0.1189 -0.1190
   28MOL    C52 6586   4.773   5.996   7.509  0.3085  0.1395  0.1322
   28MOL    C53 6587   4.520   5.964   7.499 -0.3276 -0.7524  0.5021
   28MOL    O54 6588   4.408   5.951   7.555  0.2814 -0.1376 -0.1783
   28MOL    O55 6589   4.550   5.891   7.386  0.2296  0.1608  0.4842
   28MOL    H56 6590   4.542   6.185   7.702 -0.4462 -0.7331 -1.9304
   28MOL    H57 6591   4.712   6.181   7.696  2.6359 -3.4353  1.7203
   28MOL    H58 6592   4.791   5.987   7.402 -1.8557 -0.8320 -0.1636
   28MOL    H59 6593   4.782   5.893   7.543  4.6449  0.2761 -0.2592
   28MOL    H60 6594   4.861   6.039   7.558 -0.7036  0.0589  2.0853
   28MOL    H61 6595   4.480   5.828   7.376  1.7142 -1.6479  1.3725
   28MOL    C62 6596   4.639   6.181   7.438 -0.0345 -0.1917 -0.4925
   28MOL    C63 6597   4.547   6.304   7.430  0.2751 -0.0049  0.7283
   28MOL    C64 6598   4.397   6.268   7.435 -0.2539 -0.5310 -0.4777
   28MOL    C65 6599   4.583   6.411   7.534  0.4105  0.0666  0.7412
   28MOL    O66 6600   4.501   6.475   7.604  1.0853  0.1968 -0.7572
   28MOL    O67 6601   4.715   6.438   7.541 -0.0323  0.3992  0.0069
   28MOL    H68 6602   4.745   6.207   7.442 -0.5257  1.8225  0.0574
   28MOL    H69 6603   4.636   6.139   7.338  0.4033  1.3184 -1.1553
   28MOL    H70 6604   4.364   6.187   7.500 -1.0313 -2.5890 -3.3263
   28MOL    H71 6605   4.357   6.241   7.337  0.7220  0.7654 -1.2377
   28MOL    H72 6606   4.332   6.350   7.465 -0.6939 -0.4876 -1.5273
   28MOL    H73 6607   4.732   6.491   7.617 -2.9958 -0.3852  1.2711
   28MOL    C74 6608   4.573   6.364   7.279 -0.4588  0.2456 -0.0164
   28MOL    C75 6609   4.488   6.490   7.220 -0.0487  0.4844 -0.4531
   28MOL    C76 6610   4.439   6.588   7.331 -0.3392  0.5498 -0.5644
   28MOL    C77 6611   4.591   6.561   7.132  0.1014  0.3775  0.4203
   28MOL    O78 6612   4.624   6.676   7.138 -0.2645  0.3113  0.2801
   28MOL    O79 6613   4.658   6.479   7.051  0.3553  0.6001 -0.0665
   28MOL    H80 6614   4.678   6.394   7.279 -0.7710  1.4577  2.0402
   28MOL    H81 6615   4.560   6.280   7.211  0.0691 -0.7413  1.0795
   28MOL    H82 6616   4.378   6.542   7.409  0.3836 -0.9029 -0.8292
   28MOL    H83 6617   4.375   6.670   7.299 -0.3572  0.9099  0.3716
   28MOL    H84 6618   4.523   6.624   7.390  0.0598  0.7019 -1.2221
   28MOL    H85 6619   4.709   6.517   6.981 -1.0249  2.0299 -0.3273
   28MOL    C86 6620   4.367   6.429   7.142  0.2530  0.3080  0.3297
   28MOL    C87 6621   4.294   6.492   7.009  0.5087  0.1098  0.2573
   28MOL    C88 6622   4.162   6.421   6.995  0.2320  1.1818 -0.2505
   28MOL    C89 6623   4.261   6.637   7.037 -0.5884 -0.6301 -0.4068
   28MOL    O90 6624   4.184   6.683   7.121 -0.1443 -0.0797  0.0955
   28MOL    O91 6625   4.340   6.723   6.958 -0.0139 -0.2183  0.2121
   28MOL    H92 6626   4.388   6.327   7.109  1.8101  0.3166  1.2451
   28MOL    H93 6627   4.292   6.415   7.219  0.0035  2.3480  0.4896
   28MOL    H94 6628   4.099   6.463   6.916 -2.2182 -3.0201 -0.7037
   28MOL    H95 6629   4.109   6.405   7.089  0.1482 -0.3571 -0.5389
   28MOL    H96 6630   4.189   6.318   6.968  0.6962  1.3777 -0.5383
   28MOL    H97 6631   4.335   6.814   6.980  0.4443 -0.1082 -0.1390
   28MOL    C98 6632   4.375   6.476   6.879 -0.2350 -0.2999  0.0806
   28MOL    C99 6633   4.327   6.462   6.724 -1.0610  0.0630 -0.3091
   28MOL   C100 6634   4.335   6.310   6.697  0.1591 -0.2965 -0.1778
   28MOL   C101 6635   4.192   6.518   6.682 -0.4490 -0.2892 -0.3577
   28MOL   O102 6636   4.103   6.459   6.625  0.2086  0.5452  0.0041
   28MOL   O103 6637   4.182   6.642   6.737  0.2381  0.0285  0.5373
   28MOL   H104 6638   4.461   6.542   6.885 -1.0316  0.6263  1.7606
   28MOL   H105 6639   4.413   6.377   6.909 -1.3912 -0.8921 -0.3889
   28MOL   H106 6640   4.437   6.275   6.711 -0.0964 -0.9164  0.1833
   28MOL   H107 6641   4.282   6.271   6.611 -0.2827  0.8031 -0.4212
   28MOL   H108 6642   4.289   6.250   6.776 -0.7260  2.1710  1.2680
   28MOL   H109 6643   4.102   6.680   6.704  0.9576  0.3995 -0.8257
   28MOL   C110 6644   4.451   6.529   6.642 -0.2068  1.0740 -0.4703
   28MOL   C111 6645   4.466   6.564   6.491 -0.3407  0.1424  0.1836
   28MOL   C112 6646   4.385   6.687   6.450 -0.0697 -0.2609 -0.0133
   28MOL   C113 6647   4.619   6.591   6.477  0.2084 -1.0564 -0.2445
   28MOL   O114 6648   4.658   6.707   6.451 -0.4059  0.2346  0.4565
   28MOL   O115 6649   4.692   6.478   6.490 -0.3894  0.4638 -0.1996
   28MOL   H116 6650   4.469   6.630   6.679 -1.8803  1.4409 -0.5850
   28MOL   H117 6651   4.533   6.468   6.677  0.1173  0.7527 -1.7727
   28MOL   H118 6652   4.432   6.724   6.359 -0.9607  3.2791  0.9024
   28MOL   H119 6653   4.403   6.779   6.505 -1.4743  0.7708 -1.2448
   28MOL   H120 6654   4.278   6.678   6.430  0.2237 -1.3696 -1.1305
   28MOL   H121 6655   4.783   6.504   6.483 -0.7606  1.4271 -1.5695
   28MOL   C122 6656   4.419   6.447   6.409  0.0956 -0.9743  0.3626
   28MOL   C123 6657   4.445   6.427   6.257  0.5325  0.6211 -0.3041
   28MOL   C124 6658   4.459   6.561   6.176  0.4147 -0.9439 -0.7333
   28MOL   C125 6659   4.579   6.349   6.220  0.4017  0.7070 -0.1080
   28MOL   O126 6660   4.622   6.356   6.103  0.4361 -0.2767  0.2947
   28MOL   O127 6661   4.622   6.259   6.309  0.3940  0.4832 -0.2227
   28MOL   H128 6662   4.471   6.368   6.464 -0.3320 -0.6781  1.1940
   28MOL   H129 6663   4.313   6.439   6.431  0.1596  0.2908  1.1933
   28MOL   H130 6664   4.537   6.626   6.215 -1.5511  1.9490 -1.4546
   28MOL   H131 6665   4.363   6.613   6.179  0.8729 -0.1300  0.2910
   28MOL   H132 6666   4.496   6.549   6.074  3.1660 -0.5022  0.1679
   28MOL   H133 6667   4.690   6.204   6.275  1.3409  0.3125  1.8693
   28MOL   C134 6668   4.327   6.355   6.180  0.6214  0.8859  0.2198
   28MOL   C135 6669   4.247   6.224   6.209  0.1073  0.3019  0.8319
   28MOL   C136 6670   4.353   6.133   6.275  0.9681  0.2317  0.5626
   28MOL   C137 6671   4.134   6.235   6.322  0.4599  0.3927 -0.4622
   28MOL   O138 6672   4.076   6.143   6.380  0.6737  0.0324 -0.4726
   28MOL   O139 6673   4.086   6.366   6.343 -0.4011 -0.1567  0.7313
   28MOL   H140 6674   4.252   6.433   6.169 -1.1864 -1.0423 -1.5557
   28MOL   H141 6675   4.376   6.334   6.085  1.4463  0.2418  0.7755
   28MOL   H142 6676   4.323   6.034   6.308  1.2191 -0.5148 -1.3873
   28MOL   H143 6677   4.400   6.173   6.365  0.7436  2.5986 -0.3313
   28MOL   H144 6678   4.427   6.102   6.201  0.5106 -0.0204  0.2111
   28MOL   H145 6679   4.010   6.355   6.398  0.0865  0.5522  1.5706
   28MOL   C146 6680   4.183   6.154   6.082  0.0345  0.0111 -0.0839
   28MOL   C147 6681   4.059   6.218   6.000 -0.6918 -0.0789  0.1749
   28MOL   C148 6682   3.922   6.186   6.071 -0.0637  0.7646 -0.1395
   28MOL   C149 6683   4.066   6.367   5.993 -0.7661  0.0639 -0.0258
   28MOL   O150 6684   3.992   6.446   6.040 -0.0341 -0.2613 -0.2740
   28MOL   O151 6685   4.180   6.403   5.925  0.1667  0.0234 -0.1834
   28MOL   H152 6686   4.269   6.151   6.015 -0.6506 -0.6207 -0.9528
   28MOL   H153 6687   4.150   6.055   6.114 -0.7054 -0.1915 -1.4204
   28MOL   H154 6688   3.902   6.231   6.168  0.5424  0.9541 -0.1026
   28MOL   H155 6689   3.925   6.079   6.093  0.3404  0.9996  0.9653
   28MOL   H156 6690   3.833   6.204   6.010 -0.2367  0.4010  0.0062
   28MOL   H157 6691   4.179   6.495   5.903  1.0280 -0.1996 -1.2121
   28MOL   C158 6692   4.050   6.144   5.863  0.5203  0.8321  0.7027
   28MOL   C159 6693   3.962   6.192   5.736  0.5945  0.1649 -1.2041
   28MOL   C160 6694   3.832   6.265   5.777  0.5335  0.3873  0.3198
   28MOL   C161 6695   4.055   6.286   5.645  0.2294 -0.7498  0.0646
   28MOL   O162 6696   4.033   6.403   5.628 -0.0798  0.3641 -0.4409
   28MOL   O163 6697   4.175   6.228   5.605  0.0002  0.7843 -0.4061
   28MOL   H164 6698   4.150   6.142   5.821 -0.0346 -0.6217 -0.5657
   28MOL   H165 6699   4.041   6.037   5.877 -1.3781  1.0571  1.4525
   28MOL   H166 6700   3.754   6.195   5.806  0.8209 -2.1012 -4.3861
   28MOL   H167 6701   3.792   6.331   5.700 -0.0843 -2.2117 -1.6743
   28MOL   H168 6702   3.851   6.330   5.863  0.2046 -1.1943  1.6150
   28MOL   H169 6703   4.237   6.296   5.583  0.3523  0.7229  0.3707
   28MOL   C170 6704   3.928   6.059   5.656 -0.7784 -0.0653  0.2446
   28MOL   C171 6705   3.856   6.055   5.515  0.4572  0.0101 -0.3067
   28MOL   C172 6706   3.734   6.151   5.509 -0.1440 -0.0252 -1.3728
   28MOL   C173 6707   3.945   6.080   5.384 -0.3543  1.3883 -0.8608
   28MOL   O174 6708   4.064   6.097   5.382  0.0658  0.4670 -0.7878
   28MOL   O175 6709   3.867   6.078   5.274 -0.8693  0.0265  0.0001
   28MOL   H176 6710   4.025   6.011   5.642 -0.6273  0.8751 -2.3089
   28MOL   H177 6711   3.878   5.986   5.719 -0.7777 -0.4292 -0.1792
   28MOL   H178 6712   3.663   6.119   5.433 -0.7646 -0.6271 -0.5434
   28MOL   H179 6713   3.754   6.258   5.503 -0.1026  0.1554  1.1882
   28MOL   H180 6714   3.675   6.134   5.599 -0.2519 -0.9722 -1.6150
   28MOL   H181 6715   3.917   6.077   5.194 -0.6780 -2.6887  0.1065
   28MOL   C182 6716   3.792   5.917   5.492  0.1676  0.7556  0.1604
   28MOL   C183 6717   3.863   5.777   5.475 -0.9367  0.6827 -0.5330
   28MOL   C184 6718   3.892   5.759   5.326 -0.5912  0.2148 -0.5672
   28MOL   C185 6719   3.992   5.759   5.561 -0.5202 -0.0042 -0.4293
   28MOL   O186 6720   3.996   5.718   5.677  0.3240  0.0359 -0.5529
   28MOL   O187 6721   4.108   5.798   5.497 -0.1174 -0.2541 -0.2106
   28MOL   H188 6722   3.734   5.913   5.585 -2.1542  3.2575 -1.1101
   28MOL   H189 6723   3.715   5.921   5.416  1.1132  1.7215 -0.7660
   28MOL   H190 6724   3.972   5.826   5.293  0.6147 -0.2524  1.2794
   28MOL   H191 6725   3.802   5.774   5.267 -0.6073 -0.1338 -0.6374
   28MOL   H192 6726   3.935   5.661   5.303  0.9491  0.6543  0.3830
   28MOL   H193 6727   4.179   5.755   5.542  0.1429 -0.5415 -0.8749
   28MOL   C194 6728   3.764   5.670   5.541  0.3696  0.1078 -0.2964
   28MOL   C195 6729   3.762   5.519   5.496  0.2183 -0.2762  0.5610
   28MOL   C196 6730   3.694   5.515   5.352  0.3534 -0.5948  0.6876
   28MOL   C197 6731   3.898   5.456   5.485 -0.2303  0.5337  0.0878
   28MOL   O198 6732   3.945   5.397   5.391 -0.6727  0.1515 -0.1545
   28MOL   O199 6733   3.959   5.459   5.602 -0.2599  0.2946  0.0433
   28MOL   H200 6734   3.771   5.687   5.649 -2.1016 -1.6605  0.1861
   28MOL   H201 6735   3.661   5.705   5.533 -0.3180 -1.9405 -0.7095
   28MOL   H202 6736   3.587   5.532   5.365 -0.0445 -1.5059 -1.2639
   28MOL   H203 6737   3.712   5.419   5.304  3.6856 -0.2836  1.2198
   28MOL   H204 6738   3.724   5.590   5.279  0.3663 -1.5316 -0.2824
   28MOL   H205 6739   4.051   5.438   5.590 -0.2734  0.5465 -0.4840
   28MOL   C206 6740   3.663   5.440   5.589  0.1483 -0.4156 -0.5797
   28MOL   C207 6741   3.635   5.284   5.590 -0.2699 -0.2474  0.3110
   28MOL   C208 6742   3.762   5.211   5.647 -0.4762 -0.7231  0.5374
   28MOL   C209 6743   3.521   5.248   5.690 -0.6108 -0.2953 -0.0962
   28MOL   O210 6744   3.526   5.164   5.779 -0.3458 -0.7779  0.1698
   28MOL   O211 6745   3.410   5.319   5.680 -0.7120  0.0324  0.1687
   28MOL   H212 6746   3.697   5.463   5.690  0.9608  1.1914 -1.2026
   28MOL   H213 6747   3.572   5.501   5.583 -1.4467 -2.5814  1.0323
   28MOL   H214 6748   3.847   5.212   5.579 -0.0420 -0.4830  1.0790
   28MOL   H215 6749   3.749   5.108   5.680  0.6830 -0.2407  2.5742
   28MOL   H216 6750   3.792   5.258   5.740 -1.0533  0.6530  0.0464
   28MOL   H217 6751   3.342   5.283   5.734 -0.4892 -0.2111  0.2912
   28MOL   C218 6752   3.601   5.227   5.449  0.6160 -0.5547  0.2904
   28MOL   C219 6753   3.541   5.086   5.414 -0.1266  0.0236  0.1682
   28MOL   C220 6754   3.595   4.972   5.499  0.3114 -0.0710  0.5161
   28MOL   C221 6755   3.389   5.084   5.420  0.9773 -0.3811 -0.1429
   28MOL   O222 6756   3.325   5.192   5.428 -0.3302  0.4167  0.2693
   28MOL   O223 6757   3.329   4.962   5.431  0.4978 -0.3429 -0.4202
   28MOL   H224 6758   3.553   5.302   5.386  3.4175  1.8064  0.8062
   28MOL   H225 6759   3.701   5.221   5.406  0.9706  1.2978  0.7888
   28MOL   H226 6760   3.565   4.869   5.480  0.4043 -0.0237  0.1035
   28MOL   H227 6761   3.566   4.968   5.604  2.9378  1.1039  1.3459
   28MOL   H228 6762   3.704   4.975   5.502  0.2395  1.6670  2.6446
   28MOL   H229 6763   3.234   4.960   5.435  0.4836 -0.0484 -0.6256
   28MOL   C230 6764   3.570   5.045   5.261 -0.0284  0.0840  0.0108
   28MOL   C231 6765   3.721   5.023   5.217 -0.3362  0.1502 -0.0472
   28MOL   C232 6766   3.743   4.900   5.133  0.1696 -0.1549 -0.2400
   28MOL   C233 6767   3.774   5.148   5.151 -0.0268  0.0495  0.5544
   28MOL   O234 6768   3.728   5.212   5.057 -0.0873  0.7065  1.0525
   28MOL   O235 6769   3.896   5.185   5.202 -0.0463  0.5442  0.3112
   28MOL   H236 6770   3.513   4.955   5.237  0.1823 -0.0170 -0.1137
   28MOL   H237 6771   3.518   5.116   5.197 -0.9066 -1.1724 -0.6934
   28MOL   H238 6772   3.750   4.807   5.191 -0.8342  0.6177  1.1440
   28MOL   H239 6773   3.833   4.921   5.075  0.4509  2.8601  1.1944
   28MOL   H240 6774   3.664   4.877   5.062  0.6367  2.0458 -1.4994
   28MOL   H241 6775   3.927   5.261   5.154  3.0564 -0.2392  0.9741
   28MOL   H242 6776   3.784   5.005   5.304 -0.8575 -2.2361 -0.1279
   29MOL     C1 6777   3.610   4.451   2.598  0.0893 -0.2236  0.4531
   29MOL     C2 6778   3.560   4.384   2.461 -0.5013  0.1175  0.0226
   29MOL     C3 6779   3.650   4.264   2.434  0.1351  0.0814 -0.3347
   29MOL     C4 6780   3.413   4.340   2.482 -0.1822 -0.4126 -0.3254
   29MOL     O5 6781   3.369   4.227   2.466 -0.7592  0.6548 -0.6005
   29MOL     O6 6782   3.336   4.443   2.518  0.1174 -0.5062 -0.3395
   29MOL     H7 6783   3.586   4.380   2.678 -0.7713 -1.0055 -0.4874
   29MOL     H8 6784   3.575   4.552   2.617  0.3019  0.0505 -0.5568
   29MOL     H9 6785   3.689   4.219   2.525  0.0021  1.3811  0.3696
   29MOL    H10 6786   3.741   4.295   2.383 -0.1203 -0.4910 -1.1499
   29MOL    H11 6787   3.618   4.185   2.366 -2.4678  0.9927 -0.2186
   29MOL    H12 6788   3.245   4.424   2.498  0.0274  1.3243 -1.8643
   29MOL    H13 6789   3.719   4.451   2.597  0.0921  1.1403 -1.2429
   29MOL    C14 6790   3.572   4.492   2.349  0.3150 -0.1843  0.5012
   29MOL    C15 6791   3.555   4.466   2.197 -0.0237  0.1722  0.7048
   29MOL    C16 6792   3.543   4.605   2.137 -0.0588 -0.2253 -0.2393
   29MOL    C17 6793   3.682   4.389   2.145  0.3775  0.7074  0.5620
   29MOL    O18 6794   3.688   4.270   2.113 -0.6279 -0.1726 -0.2032
   29MOL    O19 6795   3.783   4.476   2.144  0.0715 -0.7042  0.2252
   29MOL    H20 6796   3.511   4.574   2.385  0.6573  0.3143 -0.0453
   29MOL    H21 6797   3.665   4.549   2.356  0.9090 -0.4086 -3.7925
   29MOL    H22 6798   3.593   4.681   2.198  0.2608  1.7441 -2.8509
   29MOL    H23 6799   3.441   4.644   2.132  0.8220  2.0105 -2.0709
   29MOL    H24 6800   3.585   4.618   2.038 -1.8792  2.1871 -0.7569
   29MOL    H25 6801   3.866   4.445   2.111  0.9025  0.1127  1.5157
   29MOL    C26 6802   3.424   4.383   2.158 -0.1671  0.1340 -0.3641
   29MOL    C27 6803   3.358   4.369   2.019  0.3183  0.1965  0.3596
   29MOL    C28 6804   3.324   4.500   1.947  0.7227 -0.3821 -0.5674
   29MOL    C29 6805   3.445   4.300   1.913 -0.5259 -0.5191 -0.4360
   29MOL    O30 6806   3.522   4.362   1.838 -0.0589  0.1590 -0.0694
   29MOL    O31 6807   3.442   4.166   1.916 -0.2637 -0.2921 -0.3000
   29MOL    H32 6808   3.434   4.277   2.184 -1.3600  0.3333  0.9999
   29MOL    H33 6809   3.341   4.410   2.223  0.3857 -0.0304  0.4138
   29MOL    H34 6810   3.264   4.574   2.000  0.4436  0.4654 -2.0603
   29MOL    H35 6811   3.274   4.477   1.854  0.1828 -0.7378 -0.1925
   29MOL    H36 6812   3.410   4.562   1.924  1.5614 -1.6046 -0.7623
   29MOL    H37 6813   3.506   4.134   1.855  0.1562  0.9273 -0.5050
   29MOL    C38 6814   3.223   4.283   2.029 -0.1350 -0.1129 -0.3515
   29MOL    C39 6815   3.083   4.338   2.083  0.0990 -0.1833 -0.0480
   29MOL    C40 6816   2.990   4.215   2.068  0.5906  0.2224 -0.1495
   29MOL    C41 6817   3.092   4.386   2.232  0.3056 -0.1506  0.1935
   29MOL    O42 6818   3.128   4.501   2.266 -0.4548 -0.3289 -0.1145
   29MOL    O43 6819   3.081   4.281   2.317 -0.3903 -0.6951  0.3873
   29MOL    H44 6820   3.210   4.233   1.933 -0.4657 -2.2258  0.7608
   29MOL    H45 6821   3.248   4.200   2.094 -0.2458 -0.2137 -0.4363
   29MOL    H46 6822   3.033   4.122   2.105 -2.5467 -0.6471  1.4969
   29MOL    H47 6823   2.972   4.197   1.962 -1.9239  0.3970  0.2181
   29MOL    H48 6824   2.901   4.233   2.128 -1.8239 -0.9373 -3.2715
   29MOL    H49 6825   3.049   4.205   2.272 -1.0773 -1.1641  1.6322
   29MOL    C50 6826   3.020   4.458   2.004 -0.6376  0.7564 -0.3479
   29MOL    C51 6827   2.867   4.495   2.004  0.2225  0.3471 -0.2127
   29MOL    C52 6828   2.780   4.393   1.924  0.1600  0.0662  0.5830
   29MOL    C53 6829   2.804   4.499   2.148  0.0840  0.0382 -0.4789
   29MOL    O54 6830   2.719   4.418   2.189  0.2737 -0.5989  0.5192
   29MOL    O55 6831   2.842   4.608   2.217 -0.1117  0.0656  0.1379
   29MOL    H56 6832   3.078   4.547   2.024 -1.6475  1.1531  0.8695
   29MOL    H57 6833   3.033   4.439   1.897 -0.2397  0.0307 -0.1723
   29MOL    H58 6834   2.822   4.376   1.825 -1.6444  4.4464 -1.0735
   29MOL    H59 6835   2.683   4.439   1.905  0.2530 -1.6069 -4.5950
   29MOL    H60 6836   2.755   4.302   1.979 -0.8263 -0.2499 -0.3813
   29MOL    H61 6837   2.788   4.621   2.293  0.3640  1.6056  0.2364
   29MOL    C62 6838   2.838   4.635   1.934 -0.6798  0.2225  0.1413
   29MOL    C63 6839   2.879   4.681   1.788 -0.6848 -0.1580  0.0677
   29MOL    C64 6840   3.030   4.685   1.777  0.5183  0.6682 -0.2116
   29MOL    C65 6841   2.821   4.595   1.671 -0.0370 -0.1174  0.4956
   29MOL    O66 6842   2.891   4.527   1.593 -0.1701  0.1469  1.0796
   29MOL    O67 6843   2.692   4.607   1.663  0.1793 -0.2134 -0.1001
   29MOL    H68 6844   2.734   4.665   1.944 -0.3241  2.0153 -1.1726
   29MOL    H69 6845   2.901   4.702   1.994  0.3576 -0.2721 -0.3722
   29MOL    H70 6846   3.071   4.584   1.768  0.5625  0.6195  0.5119
   29MOL    H71 6847   3.079   4.723   1.867  1.3934 -1.6528  0.3475
   29MOL    H72 6848   3.067   4.755   1.702 -1.6986 -0.5996 -2.5762
   29MOL    H73 6849   2.665   4.557   1.588  1.0010 -0.0502 -0.5061
   29MOL    C74 6850   2.814   4.825   1.786 -0.1554 -0.8327  0.0444
   29MOL    C75 6851   2.841   4.945   1.683  0.2798  0.0193  0.3294
   29MOL    C76 6852   2.956   5.034   1.739  0.7942  0.2160  0.0183
   29MOL    C77 6853   2.884   4.893   1.539  0.4816  0.8175  0.0092
   29MOL    O78 6854   3.000   4.884   1.499  0.0439 -0.0293 -0.2639
   29MOL    O79 6855   2.783   4.849   1.463 -0.8640 -0.1453  0.4423
   29MOL    H80 6856   2.706   4.814   1.786 -0.2208 -0.2624  0.4281
   29MOL    H81 6857   2.837   4.865   1.885  1.0853 -1.7061  0.1164
   29MOL    H82 6858   2.993   5.097   1.658 -2.2656  1.4288 -0.5426
   29MOL    H83 6859   3.040   4.975   1.776 -0.5547 -1.4472  0.5116
   29MOL    H84 6860   2.929   5.090   1.829  3.9253  0.2482  0.9857
   29MOL    H85 6861   2.820   4.831   1.378 -0.2875  3.6423 -0.1849
   29MOL    C86 6862   2.710   5.033   1.655  0.0401  0.4447 -1.0508
   29MOL    C87 6863   2.633   5.120   1.763 -0.5512  0.1534  0.1981
   29MOL    C88 6864   2.618   5.053   1.902 -0.1817  0.2489 -0.2524
   29MOL    C89 6865   2.709   5.251   1.776  0.0744 -0.1199 -0.5328
   29MOL    O90 6866   2.733   5.301   1.886 -0.7602 -0.7159  0.6784
   29MOL    O91 6867   2.739   5.306   1.657 -0.5409 -0.3516  0.1283
   29MOL    H92 6868   2.724   5.084   1.560 -2.0606 -1.6760 -2.5560
   29MOL    H93 6869   2.636   4.963   1.615  0.8283 -0.4455 -0.9544
   29MOL    H94 6870   2.713   5.025   1.948 -0.4039 -1.1219 -0.5814
   29MOL    H95 6871   2.556   4.963   1.906 -1.3831  1.0012 -1.5686
   29MOL    H96 6872   2.554   5.114   1.965  0.4616  1.2345 -0.5429
   29MOL    H97 6873   2.774   5.394   1.662 -0.5974 -0.2815 -0.5689
   29MOL    C98 6874   2.492   5.141   1.704 -0.4912 -0.0032  0.4791
   29MOL    C99 6875   2.394   5.259   1.744  0.4143 -0.0059 -0.2488
   29MOL   C100 6876   2.393   5.294   1.899 -0.3214  0.1634 -0.1907
   29MOL   C101 6877   2.440   5.386   1.665 -0.3906  0.1946  0.6447
   29MOL   O102 6878   2.470   5.494   1.716 -0.2172 -0.4576  0.3721
   29MOL   O103 6879   2.437   5.363   1.532 -0.1305 -0.1095 -0.3626
   29MOL   H104 6880   2.512   5.159   1.598 -0.6384  2.3510  0.8237
   29MOL   H105 6881   2.430   5.052   1.710 -0.6463  0.2074  2.2844
   29MOL   H106 6882   2.337   5.223   1.958 -0.7313 -0.0270 -0.8023
   29MOL   H107 6883   2.343   5.389   1.915 -0.3465  0.2977 -1.0298
   29MOL   H108 6884   2.492   5.305   1.943 -0.3167  0.9905 -0.4018
   29MOL   H109 6885   2.436   5.442   1.481 -3.5298 -1.2436 -2.2574
   29MOL   C110 6886   2.249   5.215   1.686 -0.0870  0.3448 -0.2341
   29MOL   C111 6887   2.106   5.283   1.681  0.1934  0.4570  0.2302
   29MOL   C112 6888   2.064   5.299   1.833  0.7386  0.4263  0.4125
   29MOL   C113 6889   2.100   5.421   1.615 -0.3161 -0.0866  0.1646
   29MOL   O114 6890   2.174   5.457   1.520 -0.0630  0.2312  0.4109
   29MOL   O115 6891   2.005   5.502   1.664  0.5130 -0.2392 -0.4252
   29MOL   H116 6892   2.274   5.195   1.582 -1.9396 -0.4795 -0.5509
   29MOL   H117 6893   2.225   5.123   1.740  1.4897 -0.2452 -0.5202
   29MOL   H118 6894   1.956   5.310   1.842  0.7207 -0.8393  1.9291
   29MOL   H119 6895   2.113   5.388   1.873  0.4189  0.4733  0.7050
   29MOL   H120 6896   2.100   5.218   1.897 -4.1444 -0.4385  2.3027
   29MOL   H121 6897   2.012   5.588   1.624 -0.3496  0.4617  0.9066
   29MOL   C122 6898   2.001   5.178   1.622 -0.2324 -0.6369 -0.2415
   29MOL   C123 6899   2.004   5.110   1.480 -0.0348  0.3002  0.2650
   29MOL   C124 6900   2.006   5.212   1.365  0.0082  0.1976 -0.5383
   29MOL   C125 6901   2.129   5.020   1.464  0.0205  0.9225 -0.5916
   29MOL   O126 6902   2.146   4.932   1.544  0.1334  0.1073  0.0562
   29MOL   O127 6903   2.224   5.049   1.365  0.6268  0.4559 -0.9306
   29MOL   H128 6904   1.973   5.111   1.703 -1.4366  0.4829  0.2621
   29MOL   H129 6905   1.907   5.231   1.609  0.9080  1.0127 -1.9686
   29MOL   H130 6906   2.017   5.156   1.272 -2.7253 -1.8155  0.2641
   29MOL   H131 6907   2.074   5.295   1.379 -0.4855  0.4560  0.4179
   29MOL   H132 6908   1.907   5.255   1.353 -0.6315 -0.3752  2.1703
   29MOL   H133 6909   2.286   4.986   1.396 -0.8159 -0.9864 -0.8837
   29MOL   C134 6910   1.881   5.014   1.477  0.4049  0.4311  0.7429
   29MOL   C135 6911   1.839   4.914   1.361 -0.1997 -0.4245  0.0486
   29MOL   C136 6912   1.697   4.867   1.418  0.1285 -0.5785  0.2682
   29MOL   C137 6913   1.832   4.986   1.223 -0.6868 -0.7271 -0.4585
   29MOL   O138 6914   1.920   5.002   1.139 -0.4005  0.2495  0.1110
   29MOL   O139 6915   1.711   5.046   1.203 -0.6611  0.2045 -0.2653
   29MOL   H140 6916   1.873   4.971   1.576  0.1838  0.8557  0.9103
   29MOL   H141 6917   1.798   5.084   1.482  0.0108 -0.1106  1.7782
   29MOL   H142 6918   1.707   4.813   1.512 -1.3911 -0.6293  0.4154
   29MOL   H143 6919   1.647   4.812   1.337  0.7656  0.0410 -0.5482
   29MOL   H144 6920   1.631   4.953   1.428  1.5038  0.3769  1.1696
   29MOL   H145 6921   1.688   5.082   1.119 -0.0558  2.4079  0.4829
   29MOL   C146 6922   1.937   4.798   1.363  0.0347  0.3296 -0.0658
   29MOL   C147 6923   1.914   4.655   1.279 -0.0821 -0.2274  0.2886
   29MOL   C148 6924   1.880   4.684   1.133  0.1272 -0.1208 -0.3179
   29MOL   C149 6925   2.058   4.603   1.280 -0.4271  0.1778  0.0761
   29MOL   O150 6926   2.130   4.592   1.175  0.1449 -0.4548  0.1692
   29MOL   O151 6927   2.089   4.567   1.405  0.2643  0.0012  0.2108
   29MOL   H152 6928   2.025   4.846   1.321  1.2627 -0.9521  1.0060
   29MOL   H153 6929   1.948   4.772   1.468  0.3209  0.4996 -0.0556
   29MOL   H154 6930   1.881   4.603   1.060  1.4138  0.6351 -1.1563
   29MOL   H155 6931   1.953   4.759   1.103 -2.5145  1.9682 -1.8836
   29MOL   H156 6932   1.783   4.733   1.143  0.8230  1.4792 -1.1405
   29MOL   H157 6933   2.182   4.547   1.411  0.4922  1.0451  0.1746
   29MOL   C158 6934   1.815   4.556   1.359 -0.8350  0.4346  0.1152
   29MOL   C159 6935   1.761   4.419   1.292  0.6357  0.1097 -0.4361
   29MOL   C160 6936   1.873   4.350   1.217 -0.3598  0.1672  0.4299
   29MOL   C161 6937   1.711   4.324   1.407  0.7501 -0.4548 -0.3906
   29MOL   O162 6938   1.747   4.209   1.416  0.3514 -0.3878 -0.5068
   29MOL   O163 6939   1.614   4.373   1.492 -0.4268 -0.3856  0.1889
   29MOL   H164 6940   1.860   4.554   1.458  1.9051 -1.8440 -1.1156
   29MOL   H165 6941   1.727   4.613   1.389  0.7530  1.9474  1.9942
   29MOL   H166 6942   1.846   4.254   1.173 -2.1224  1.9966 -2.6592
   29MOL   H167 6943   1.973   4.360   1.260 -0.5079 -0.5963  0.9628
   29MOL   H168 6944   1.902   4.411   1.132 -0.9640 -1.3776 -0.9159
   29MOL   H169 6945   1.598   4.312   1.563  0.2922  0.0647  0.7477
   29MOL   C170 6946   1.639   4.457   1.212  0.3299 -0.0801  0.3579
   29MOL   C171 6947   1.582   4.367   1.093 -0.1773 -0.1069  0.3064
   29MOL   C172 6948   1.451   4.435   1.062  0.0135 -0.5377  0.0523
   29MOL   C173 6949   1.680   4.373   0.973  0.1753 -0.0777  0.9904
   29MOL   O174 6950   1.747   4.273   0.935  0.5919 -0.4650 -0.0466
   29MOL   O175 6951   1.687   4.497   0.913  0.0090  0.4620  0.3709
   29MOL   H176 6952   1.563   4.482   1.285 -0.0593  0.0540 -0.0867
   29MOL   H177 6953   1.665   4.553   1.167  0.4636  0.6026  1.8745
   29MOL   H178 6954   1.459   4.543   1.069  0.9520 -0.5808 -0.2062
   29MOL   H179 6955   1.371   4.413   1.133 -0.8869 -0.0666 -0.8009
   29MOL   H180 6956   1.410   4.412   0.963 -0.6688 -0.6630  0.3582
   29MOL   H181 6957   1.740   4.499   0.834 -0.3159 -1.4881  0.0642
   29MOL   C182 6958   1.557   4.228   1.143 -0.2321  1.0806  0.2159
   29MOL   C183 6959   1.462   4.118   1.076 -0.0044  0.1140 -0.7712
   29MOL   C184 6960   1.513   3.982   1.135  0.2781 -0.0078  0.4660
   29MOL   C185 6961   1.317   4.134   1.135 -0.0365  0.0149  0.1004
   29MOL   O186 6962   1.221   4.178   1.074 -0.1714 -0.4482 -0.0492
   29MOL   O187 6963   1.302   4.105   1.268 -0.3459  0.5093  0.2213
   29MOL   H188 6964   1.655   4.180   1.137 -0.9780 -0.4697 -0.0318
   29MOL   H189 6965   1.520   4.239   1.245 -2.4049 -1.2322 -0.2694
   29MOL   H190 6966   1.598   3.942   1.079 -1.4249 -1.3152 -1.2489
   29MOL   H191 6967   1.436   3.908   1.154 -0.5654  0.6805 -0.2169
   29MOL   H192 6968   1.556   4.002   1.234 -0.8143 -0.7365  1.0932
   29MOL   H193 6969   1.217   4.079   1.298 -1.2496 -1.8916 -3.9816
   29MOL   C194 6970   1.457   4.112   0.919  0.5232 -0.0166  0.1736
   29MOL   C195 6971   1.394   3.986   0.836  0.3220 -0.3697  0.7264
   29MOL   C196 6972   1.255   3.946   0.886 -0.3663  0.7553  0.5932
   29MOL   C197 6973   1.373   4.018   0.689  0.3761 -0.6160 -0.1304
   29MOL   O198 6974   1.406   4.124   0.638 -0.9484 -0.2733 -0.1033
   29MOL   O199 6975   1.303   3.916   0.621  0.6012 -0.0462  0.3094
   29MOL   H200 6976   1.402   4.198   0.881  0.4918  0.1653  0.6350
   29MOL   H201 6977   1.558   4.139   0.888  0.0908  0.6103 -0.7213
   29MOL   H202 6978   1.226   3.849   0.847  0.8900  0.9364 -0.8763
   29MOL   H203 6979   1.179   4.024   0.875 -0.4049  0.6108 -0.1956
   29MOL   H204 6980   1.256   3.924   0.992  2.1728 -1.4042  0.1923
   29MOL   H205 6981   1.301   3.933   0.528  0.6834  0.0858  0.3315
   29MOL   C206 6982   1.477   3.858   0.847  0.3005  0.7049 -0.2504
   29MOL   C207 6983   1.613   3.832   0.770  0.2830 -0.0296 -0.1717
   29MOL   C208 6984   1.591   3.777   0.628  0.8161 -0.4891  0.1668
   29MOL   C209 6985   1.704   3.962   0.758  0.5441  0.7189  0.4389
   29MOL   O210 6986   1.712   4.032   0.660  0.5134  0.2056 -0.1987
   29MOL   O211 6987   1.755   4.000   0.878  0.1483  0.1650  0.6047
   29MOL   H212 6988   1.483   3.814   0.946 -1.7916  0.7265 -0.0941
   29MOL   H213 6989   1.415   3.776   0.810  0.1404  0.0205  1.4618
   29MOL   H214 6990   1.561   3.867   0.575  1.2853  2.6225  4.9387
   29MOL   H215 6991   1.517   3.696   0.618  0.0760  0.3340 -1.2155
   29MOL   H216 6992   1.685   3.740   0.588  1.3650 -1.6289  2.4023
   29MOL   H217 6993   1.787   4.089   0.878  0.3763  0.0795  1.4118
   29MOL   C218 6994   1.687   3.720   0.854 -0.3032 -0.2584  0.8715
   29MOL   C219 6995   1.812   3.629   0.806 -0.3064  0.1105  0.4758
   29MOL   C220 6996   1.742   3.506   0.736 -0.1899  0.2095 -0.0516
   29MOL   C221 6997   1.914   3.693   0.712 -1.3393  0.1134 -0.0553
   29MOL   O222 6998   1.939   3.660   0.600  0.7521 -0.2961  0.5610
   29MOL   O223 6999   1.978   3.802   0.769 -0.1480 -0.4631 -0.0033
   29MOL   H224 7000   1.722   3.766   0.947  0.1878  0.6190  0.2603
   29MOL   H225 7001   1.606   3.651   0.876 -1.7281  1.6772  1.8321
   29MOL   H226 7002   1.820   3.438   0.701  1.6225  1.8996  0.5878
   29MOL   H227 7003   1.689   3.539   0.646  1.2516 -0.4764 -1.1587
   29MOL   H228 7004   1.672   3.445   0.793  0.4602 -0.9483 -0.4738
   29MOL   H229 7005   2.049   3.829   0.714  0.9292 -0.5132  1.3340
   29MOL   C230 7006   1.885   3.569   0.933 -0.1264 -0.5161  0.1628
   29MOL   C231 7007   1.824   3.468   1.036 -0.2292  0.8186  0.7199
   29MOL   C232 7008   1.922   3.403   1.129 -0.0112 -0.2627 -0.3924
   29MOL   C233 7009   1.710   3.535   1.114  1.0792 -1.3901  0.3502
   29MOL   O234 7010   1.598   3.503   1.093  0.2366  0.3271 -0.2807
   29MOL   O235 7011   1.753   3.631   1.200  0.1168 -0.8414 -0.1491
   29MOL   H236 7012   1.982   3.533   0.898  0.3893  0.7865  0.2399
   29MOL   H237 7013   1.934   3.647   0.991  0.4395  0.2324 -1.2828
   29MOL   H238 7014   1.995   3.347   1.072  0.0899 -0.7885  0.2390
   29MOL   H239 7015   1.867   3.345   1.204 -1.9796  1.8821 -0.1029
   29MOL   H240 7016   1.966   3.486   1.185 -0.3693  0.8986 -1.8043
   29MOL   H241 7017   1.675   3.662   1.242  1.9410  1.1113  1.9423
   29MOL   H242 7018   1.779   3.383   0.984  0.5910 -0.1558  1.5635
   30MOL     C1 7019   1.716   6.716   4.211 -0.0829  0.0759 -1.0957
   30MOL     C2 7020   1.561   6.735   4.226 -0.7597  0.1554 -0.2770
   30MOL     C3 7021   1.544   6.767   4.373  0.0738 -0.0179 -0.4730
   30MOL     C4 7022   1.507   6.849   4.138 -0.2308  0.3588  0.6328
   30MOL     O5 7023   1.408   6.919   4.162 -0.1515  0.1074 -0.3724
   30MOL     O6 7024   1.578   6.847   4.024  0.1210  0.2407  0.3656
   30MOL     H7 7025   1.739   6.694   4.107 -0.4063  1.2400 -1.4150
   30MOL     H8 7026   1.752   6.643   4.284  0.1824  2.2419  1.0410
   30MOL     H9 7027   1.580   6.680   4.430 -0.0345 -1.1705 -2.1387
   30MOL    H10 7028   1.443   6.789   4.408 -0.6945 -2.5232 -1.0198
   30MOL    H11 7029   1.608   6.850   4.403 -0.5261  0.0641  0.6140
   30MOL    H12 7030   1.524   6.903   3.971  0.9763  1.0212  0.3108
   30MOL    H13 7031   1.755   6.816   4.229 -1.7176  0.8050 -1.5064
   30MOL    C14 7032   1.497   6.596   4.182  0.0938  0.6084  0.6938
   30MOL    C15 7033   1.346   6.549   4.207 -0.8022 -0.1563  0.0573
   30MOL    C16 7034   1.330   6.525   4.360  0.0861 -0.6118  0.0944
   30MOL    C17 7035   1.250   6.651   4.144 -0.3713  0.4950 -0.6956
   30MOL    O18 7036   1.249   6.679   4.026 -0.5416  0.1281 -0.7782
   30MOL    O19 7037   1.172   6.722   4.231  0.0338  0.3698  0.2220
   30MOL    H20 7038   1.505   6.608   4.074  0.0038  1.6831  0.7977
   30MOL    H21 7039   1.568   6.515   4.201 -0.9525  0.0479  2.3955
   30MOL    H22 7040   1.421   6.495   4.413  1.0808  0.5230 -0.9364
   30MOL    H23 7041   1.246   6.458   4.378 -0.6689  0.8445  2.1366
   30MOL    H24 7042   1.301   6.616   4.413  0.8693 -1.5804  2.2508
   30MOL    H25 7043   1.144   6.804   4.192 -0.0057  1.3439  2.2666
   30MOL    C26 7044   1.333   6.410   4.128 -0.2990  0.2905 -0.2452
   30MOL    C27 7045   1.191   6.328   4.094 -1.4401  0.3999 -0.0274
   30MOL    C28 7046   1.242   6.199   4.022  0.1474  0.6794 -0.1009
   30MOL    C29 7047   1.130   6.282   4.231  0.1221 -0.5088 -0.2243
   30MOL    O30 7048   1.181   6.194   4.304  0.3069 -0.0312  0.3439
   30MOL    O31 7049   1.019   6.352   4.260 -0.9294  0.2232  0.1744
   30MOL    H32 7050   1.383   6.440   4.036  0.4516  0.1938  0.1301
   30MOL    H33 7051   1.396   6.333   4.172 -0.5687  0.3156  0.1884
   30MOL    H34 7052   1.314   6.145   4.085  1.0696  0.7015 -1.1332
   30MOL    H35 7053   1.300   6.228   3.935  1.2939 -2.2412 -0.3946
   30MOL    H36 7054   1.159   6.132   3.997 -0.4482  1.5607 -0.4797
   30MOL    H37 7055   0.983   6.325   4.344 -1.1737 -1.3699 -0.4252
   30MOL    C38 7056   1.094   6.401   3.995  0.5079 -0.6579  0.2018
   30MOL    C39 7057   0.979   6.331   3.910  0.4544  0.0171 -0.4200
   30MOL    C40 7058   1.039   6.283   3.775  0.0369  0.4535 -0.3870
   30MOL    C41 7059   0.906   6.208   3.979 -0.5434 -0.1416 -0.2177
   30MOL    O42 7060   0.884   6.101   3.920  0.3865  0.0262  0.5905
   30MOL    O43 7061   0.857   6.240   4.100  0.2181 -0.0058  0.3261
   30MOL    H44 7062   1.046   6.484   4.047 -2.4746 -1.3933 -1.2453
   30MOL    H45 7063   1.154   6.463   3.928 -0.9689  1.8267  1.1113
   30MOL    H46 7064   1.062   6.363   3.704 -0.7484  1.9808  1.0376
   30MOL    H47 7065   0.982   6.204   3.726  0.2090  0.5380 -0.7280
   30MOL    H48 7066   1.128   6.226   3.798 -0.0792  0.9399  1.3005
   30MOL    H49 7067   0.880   6.328   4.128 -1.0584  1.2688 -2.3955
   30MOL    C50 7068   0.864   6.441   3.882  0.1661 -0.7145 -0.1461
   30MOL    C51 7069   0.765   6.425   3.760  0.5262  1.1099  0.3267
   30MOL    C52 7070   0.840   6.450   3.623  0.6756 -0.1321  0.5972
   30MOL    C53 7071   0.698   6.281   3.756  0.1829 -0.5869 -0.3409
   30MOL    O54 7072   0.721   6.200   3.667  0.6502  0.0887 -0.0637
   30MOL    O55 7073   0.619   6.261   3.865  0.5574 -0.1499 -0.4775
   30MOL    H56 7074   0.808   6.463   3.973  0.9775 -1.1602  0.4816
   30MOL    H57 7075   0.914   6.538   3.873 -2.1753  0.5793  0.4363
   30MOL    H58 7076   0.896   6.543   3.630  0.0873  0.6954 -4.3386
   30MOL    H59 7077   0.765   6.464   3.546  2.1653  1.3310 -0.6294
   30MOL    H60 7078   0.907   6.370   3.590 -1.4205 -0.3554 -3.3666
   30MOL    H61 7079   0.595   6.170   3.878  0.5606 -0.3569 -1.8270
   30MOL    C62 7080   0.637   6.523   3.776 -0.3240 -0.0698 -0.1816
   30MOL    C63 7081   0.630   6.678   3.741 -0.2083  1.3621  0.1321
   30MOL    C64 7082   0.489   6.718   3.794  0.5697 -0.4129 -0.2965
   30MOL    C65 7083   0.736   6.759   3.828 -1.0897 -0.3453 -0.2103
   30MOL    O66 7084   0.707   6.795   3.940  0.3851 -0.7787 -0.2498
   30MOL    O67 7085   0.857   6.762   3.769  0.2679 -0.7215 -0.2916
   30MOL    H68 7086   0.548   6.474   3.737 -2.4113  3.0279  0.5138
   30MOL    H69 7087   0.625   6.505   3.883  2.4931  0.4293  0.2603
   30MOL    H70 7088   0.454   6.821   3.791 -2.2523 -1.3209 -0.1177
   30MOL    H71 7089   0.460   6.684   3.894 -0.8793 -0.1512 -0.6194
   30MOL    H72 7090   0.416   6.663   3.734 -0.2418 -1.5217  1.6408
   30MOL    H73 7091   0.903   6.837   3.803  0.0457 -0.1509 -1.2237
   30MOL    C74 7092   0.629   6.703   3.592 -0.4686  0.3602  0.8115
   30MOL    C75 7093   0.583   6.839   3.512  0.6754  0.1655  0.2705
   30MOL    C76 7094   0.441   6.808   3.458  0.4263  0.1043 -0.5286
   30MOL    C77 7095   0.562   6.966   3.597 -0.4048  0.0339 -0.4033
   30MOL    O78 7096   0.628   6.987   3.703  0.2134 -0.4757 -0.0632
   30MOL    O79 7097   0.463   7.048   3.559 -0.0557 -0.1460  0.2154
   30MOL    H80 7098   0.732   6.686   3.561 -0.7601 -0.5300  0.2950
   30MOL    H81 7099   0.589   6.615   3.541  0.6729 -0.7549  1.8092
   30MOL    H82 7100   0.432   6.704   3.426 -0.8275 -0.1116  0.4871
   30MOL    H83 7101   0.403   6.870   3.376 -1.3489  1.6228  1.3907
   30MOL    H84 7102   0.360   6.820   3.530  0.7782  2.0366 -0.4286
   30MOL    H85 7103   0.454   7.105   3.634  2.2022  1.5150 -0.7262
   30MOL    C86 7104   0.698   6.880   3.410  0.8391  1.1085  0.7655
   30MOL    C87 7105   0.742   6.815   3.269  0.3926 -0.2931 -0.3279
   30MOL    C88 7106   0.849   6.908   3.211 -0.0553  0.2959 -0.8051
   30MOL    C89 7107   0.809   6.683   3.302  0.2692 -0.5771 -0.1597
   30MOL    O90 7108   0.931   6.663   3.313 -0.0414 -0.0642 -0.5848
   30MOL    O91 7109   0.709   6.592   3.321 -0.1692  0.4629  0.1909
   30MOL    H92 7110   0.670   6.984   3.395 -2.3248  0.1688 -0.1045
   30MOL    H93 7111   0.793   6.883   3.465 -0.5217  2.3432  3.1345
   30MOL    H94 7112   0.860   6.874   3.107  0.5154 -0.0832 -0.6275
   30MOL    H95 7113   0.942   6.904   3.268  0.1207  0.4403 -1.0785
   30MOL    H96 7114   0.821   7.013   3.212 -2.4431 -0.3378 -0.0078
   30MOL    H97 7115   0.752   6.510   3.337  1.3448  1.8073  3.4701
   30MOL    C98 7116   0.613   6.813   3.178  0.1894  0.2041 -0.3892
   30MOL    C99 7117   0.608   6.789   3.023 -0.3665 -0.3138 -0.8566
   30MOL   C100 7118   0.645   6.929   2.956 -0.3961 -0.4940  0.8143
   30MOL   C101 7119   0.691   6.684   2.955 -0.1207  0.4894 -0.1147
   30MOL   O102 7120   0.750   6.587   3.006 -0.3115  0.2377  0.2553
   30MOL   O103 7121   0.694   6.714   2.822  0.1005 -0.5213 -0.3280
   30MOL   H104 7122   0.556   6.724   3.203 -0.5510  1.2536  1.7694
   30MOL   H105 7123   0.549   6.897   3.202  1.0076  0.3210  1.4661
   30MOL   H106 7124   0.677   7.003   3.029 -2.5730  0.3609  0.9505
   30MOL   H107 7125   0.561   6.982   2.910  0.3124  1.3701  1.6114
   30MOL   H108 7126   0.730   6.934   2.889 -2.5169  2.8520 -1.7695
   30MOL   H109 7127   0.634   6.786   2.805 -1.0594 -1.0811  1.2661
   30MOL   C110 7128   0.457   6.762   2.989 -0.5067 -0.1340 -0.5475
   30MOL   C111 7129   0.385   6.619   2.998  0.3193 -0.3428 -0.2064
   30MOL   C112 7130   0.428   6.541   2.876 -0.1157  0.0312  0.5007
   30MOL   C113 7131   0.421   6.526   3.124  0.1053 -0.9377 -0.5521
   30MOL   O114 7132   0.505   6.436   3.120  0.1675 -0.1676  0.2290
   30MOL   O115 7133   0.369   6.579   3.236 -0.0750 -0.0905 -0.0479
   30MOL   H116 7134   0.402   6.832   3.052 -1.0690  1.2458 -2.5110
   30MOL   H117 7135   0.446   6.799   2.887  2.8541  0.2411 -0.8157
   30MOL   H118 7136   0.373   6.447   2.869  0.4076 -0.2082 -0.5479
   30MOL   H119 7137   0.531   6.505   2.874  0.2264  1.0459 -1.0315
   30MOL   H120 7138   0.400   6.599   2.788 -1.3441 -2.0766 -0.5259
   30MOL   H121 7139   0.395   6.515   3.301  1.0908  0.4606  0.0530
   30MOL   C122 7140   0.233   6.660   2.984  0.5598 -1.0427  0.1439
   30MOL   C123 7141   0.101   6.573   2.986  0.2193 -0.4912 -0.6070
   30MOL   C124 7142   0.116   6.450   2.890 -0.2049  0.0176  0.5033
   30MOL   C125 7143   0.061   6.518   3.126 -0.6626  0.3898 -0.0797
   30MOL   O126 7144   0.019   6.400   3.143  0.2079  0.6271  0.3939
   30MOL   O127 7145   0.080   6.610   3.226 -0.1407 -0.7576  0.5224
   30MOL   H128 7146   0.209   6.734   3.060  0.8361 -1.5477  0.7246
   30MOL   H129 7147   0.232   6.707   2.885  0.1458  0.5075  0.8753
   30MOL   H130 7148   0.185   6.377   2.932  0.9114  0.5547 -0.3668
   30MOL   H131 7149   0.147   6.480   2.790 -0.7688  0.6104  0.5108
   30MOL   H132 7150   0.024   6.394   2.873  0.1415 -0.4899  0.2671
   30MOL   H133 7151   0.057   6.575   3.311  1.2519 -0.3554  1.0698
   30MOL   C134 7152   7.747   6.645   2.918  0.1067 -0.2363 -0.2725
   30MOL   C135 7153   7.680   6.782   2.970 -0.0266  0.4001 -0.4423
   30MOL   C136 7154   7.586   6.831   2.856 -0.1574  0.7359 -0.0366
   30MOL   C137 7155   7.589   6.746   3.093  0.1989  0.2760 -0.0065
   30MOL   O138 7156   7.602   6.786   3.211  0.1575  0.4664 -0.3216
   30MOL   O139 7157   7.477   6.687   3.049  0.3422  0.5701 -0.0048
   30MOL   H140 7158   7.760   6.668   2.812 -0.5990  1.6893  0.0431
   30MOL   H141 7159   7.662   6.576   2.914 -1.0607  1.0571  1.3570
   30MOL   H142 7160   7.651   6.869   2.777 -0.0765  0.4109 -0.1249
   30MOL   H143 7161   7.519   6.913   2.882  0.6277  1.7651 -1.2071
   30MOL   H144 7162   7.523   6.754   2.812 -0.8421  0.1156  1.9730
   30MOL   H145 7163   7.418   6.668   3.120 -0.3824  1.1495 -0.4364
   30MOL   C146 7164   0.018   6.897   3.001 -0.1932 -0.3169 -0.7384
   30MOL   C147 7165   7.765   7.057   3.002  0.2241 -0.3938  0.9182
   30MOL   C148 7166   0.010   7.100   2.843 -0.0604 -0.4132  0.1549
   30MOL   C149 7167   7.625   7.107   3.053  0.5840  1.1482  0.0775
   30MOL   O150 7168   7.541   7.038   3.099 -0.0557 -0.6007 -0.4266
   30MOL   O151 7169   7.613   7.242   3.025  0.7389  0.2221 -0.5707
   30MOL   H152 7170   0.062   6.873   3.097 -0.6998  0.7711 -0.2163
   30MOL   H153 7171   0.096   6.888   2.925  1.3708  2.1391  0.4953
   30MOL   H154 7172   7.687   7.077   2.786  0.0421 -1.4632  0.4161
   30MOL   H155 7173   0.099   7.078   2.784  0.3964  1.7852 -0.0447
   30MOL   H156 7174   0.028   7.208   2.850  1.5428 -0.7712  1.8210
   30MOL   H157 7175   7.528   7.274   3.050  0.5826 -0.5939 -0.0389
   30MOL   C158 7176   0.120   7.120   3.079  0.1079 -0.7606 -0.2967
   30MOL   C159 7177   0.102   7.166   3.231  0.1987  1.0421 -0.5559
   30MOL   C160 7178   0.013   7.294   3.251 -0.1018 -0.2749 -0.1060
   30MOL   C161 7179   0.048   7.064   3.337 -0.2914  0.0814 -0.4987
   30MOL   O162 7180   7.728   7.084   3.423  0.2302  0.2778  0.5479
   30MOL   O163 7181   0.117   6.944   3.334  0.0996 -0.5541 -0.2563
   30MOL   H164 7182   0.203   7.049   3.068 -0.3502 -1.1640 -1.1719
   30MOL   H165 7183   0.155   7.206   3.022 -0.4225 -0.2761  0.1000
   30MOL   H166 7184   0.041   7.343   3.344  3.2241  0.5753 -1.4763
   30MOL   H167 7185   7.674   7.272   3.254  0.0100 -1.3341 -2.4982
   30MOL   H168 7186   0.019   7.359   3.163 -2.0309 -0.5934 -0.4941
   30MOL   H169 7187   0.075   6.883   3.393 -0.0305  0.9877  1.2947
   30MOL   C170 7188   0.246   7.201   3.287 -0.0499 -0.3032  0.1352
   30MOL   C171 7189   0.351   7.302   3.211 -0.3560  0.2648  0.6629
   30MOL   C172 7190   0.451   7.340   3.320 -0.0080 -0.6389  0.0830
   30MOL   C173 7191   0.424   7.224   3.098 -0.4761  0.3920 -0.3265
   30MOL   O174 7192   0.390   7.231   2.978 -0.5319  0.5545 -0.1426
   30MOL   O175 7193   0.518   7.136   3.149 -0.4905 -0.1635  0.1668
   30MOL   H176 7194   0.241   7.246   3.386  0.5139 -0.9623  0.4689
   30MOL   H177 7195   0.294   7.105   3.309 -0.8758 -1.1862 -1.7633
   30MOL   H178 7196   0.511   7.260   3.364 -0.1475 -1.8026 -1.7956
   30MOL   H179 7197   0.400   7.392   3.401 -0.1500 -0.2747 -0.2346
   30MOL   H180 7198   0.528   7.398   3.269 -0.5813 -0.1788 -0.2631
   30MOL   H181 7199   0.515   7.157   3.241 -0.4294  0.2546  0.0741
   30MOL   C182 7200   0.283   7.439   3.156  0.3206  0.7573 -0.6018
   30MOL   C183 7201   0.350   7.576   3.110 -0.5808  0.3863 -0.1104
   30MOL   C184 7202   0.458   7.548   3.008 -0.6780 -1.0103 -0.4758
   30MOL   C185 7203   0.238   7.657   3.049  0.2964  0.2676 -0.5096
   30MOL   O186 7204   0.251   7.708   2.943  0.0720  0.3059 -0.1950
   30MOL   O187 7205   0.128   7.668   3.126 -0.0868  0.6577 -0.0188
   30MOL   H188 7206   0.235   7.416   3.060  2.0624 -0.1146 -1.2937
   30MOL   H189 7207   0.214   7.475   3.232 -2.6812 -0.5644 -2.6225
   30MOL   H190 7208   0.496   7.638   2.960  2.1265 -1.8622  0.0431
   30MOL   H191 7209   0.433   7.474   2.932 -3.0131  0.4482 -1.1664
   30MOL   H192 7210   0.535   7.491   3.059 -0.9915 -0.5260  0.5465
   30MOL   H193 7211   0.048   7.707   3.096 -1.0528 -0.6123  0.8436
   30MOL   C194 7212   0.401   7.665   3.236 -0.4020 -0.2240  0.8341
   30MOL   C195 7213   0.520   0.003   3.234  0.2137 -0.4419  0.2064
   30MOL   C196 7214   0.520   0.065   3.374  0.3456  0.1317 -0.3327
   30MOL   C197 7215   0.651   7.699   3.213  0.0015  0.3357 -0.3640
   30MOL   O198 7216   0.733   7.731   3.134  0.0743 -0.3024 -0.3113
   30MOL   O199 7217   0.658   7.597   3.300 -0.5131 -0.1660 -0.2484
   30MOL   H200 7218   0.317   7.725   3.271 -0.1723  1.0308 -0.7409
   30MOL   H201 7219   0.415   7.606   3.326 -0.0429 -0.3824  0.6727
   30MOL   H202 7220   0.602   0.134   3.396 -0.0319  1.1569 -2.0738
   30MOL   H203 7221   0.519   7.748   3.443  0.0170  0.6939  0.3540
   30MOL   H204 7222   0.426   0.115   3.399  1.1202  0.7323  1.4561
   30MOL   H205 7223   0.749   7.570   3.305 -0.1982  0.4814 -2.0379
   30MOL   C206 7224   0.492   0.113   3.125 -0.1600 -0.0332  0.2529
   30MOL   C207 7225   0.533   0.265   3.126 -0.1251  0.5442 -0.9019
   30MOL   C208 7226   0.487   0.327   2.989  0.6259  0.2280  0.1340
   30MOL   C209 7227   0.455   0.330   3.246 -0.8820  0.3411  1.2357
   30MOL   O210 7228   0.505   0.373   3.348  0.0935  0.1519  0.2548
   30MOL   O211 7229   0.323   0.334   3.221  0.1674  0.0260 -0.3512
   30MOL   H212 7230   0.533   0.080   3.029  0.8999  1.2185  0.2603
   30MOL   H213 7231   0.383   0.112   3.116 -0.1009 -1.2829 -0.5169
   30MOL   H214 7232   0.546   0.293   2.904  1.6246 -0.5992  1.1444
   30MOL   H215 7233   0.496   0.435   3.005  2.7993 -0.1670  1.6956
   30MOL   H216 7234   0.382   0.300   2.976  0.7565  0.0168 -0.5124
   30MOL   H217 7235   0.278   0.368   3.297 -2.2664 -0.9957 -1.2711
   30MOL   C218 7236   0.689   0.274   3.135  0.3135 -0.0799 -0.3569
   30MOL   C219 7237   0.773   0.413   3.116 -0.0677 -0.6027  0.1896
   30MOL   C220 7238   0.806   0.443   2.969 -0.4624  0.3311  0.0879
   30MOL   C221 7239   0.699   0.533   3.178 -0.3365  0.5345  0.4052
   30MOL   O222 7240   0.611   0.597   3.125 -0.2944 -0.0386 -0.1299
   30MOL   O223 7241   0.730   0.552   3.302  0.0887 -0.6584  0.0060
   30MOL   H224 7242   0.727   0.231   3.228  2.1461 -0.5319 -1.2769
   30MOL   H225 7243   0.729   0.202   3.063 -0.3617  0.2937 -1.1186
   30MOL   H226 7244   0.879   0.524   2.959 -0.9583  0.8521  0.6265
   30MOL   H227 7245   0.718   0.474   2.913 -1.4261 -1.4620  0.5705
   30MOL   H228 7246   0.842   0.359   2.911 -0.8845  0.2294 -0.0291
   30MOL   H229 7247   0.684   0.622   3.346  1.3589  0.3008 -0.1408
   30MOL   C230 7248   0.914   0.411   3.193  0.2273 -0.6025  0.3905
   30MOL   C231 7249   1.036   0.333   3.134  0.0591 -0.1205  0.0071
   30MOL   C232 7250   1.169   0.365   3.216  0.1165  0.5109 -0.4784
   30MOL   C233 7251   1.017   0.186   3.113 -1.1636  0.0005  0.1617
   30MOL   O234 7252   1.048   0.104   3.197 -0.0970  1.1556  0.4844
   30MOL   O235 7253   0.965   0.157   2.988 -0.1188 -0.2824  0.2152
   30MOL   H236 7254   0.941   0.516   3.203 -1.7256  0.0809 -1.2380
   30MOL   H237 7255   0.902   0.378   3.296  2.9778 -2.6071  0.1230
   30MOL   H238 7256   1.191   0.471   3.233  1.0757  0.2134  0.1869
   30MOL   H239 7257   1.248   0.342   3.145  0.3514  0.2393 -0.1286
   30MOL   H240 7258   1.179   0.312   3.310  3.3405 -0.8221 -1.5128
   30MOL   H241 7259   0.977   0.066   2.968 -0.6588 -0.1550 -0.6797
   30MOL   H242 7260   1.060   0.383   3.040  0.9376  0.4755  0.5336
   31MOL     C1 7261   1.727   0.591   6.250 -0.0289  0.0566  0.4303
   31MOL     C2 7262   1.792   0.728   6.289  0.7651  0.8062  0.4302
   31MOL     C3 7263   1.923   0.737   6.218  0.0161 -0.7051 -0.4807
   31MOL     C4 7264   1.711   0.846   6.241 -0.1007 -0.4429  0.5136
   31MOL     O5 7265   1.745   0.963   6.253  0.3050 -0.5209 -0.0265
   31MOL     O6 7266   1.605   0.805   6.170 -0.0835 -0.6217 -0.9674
   31MOL     H7 7267   1.620   0.583   6.267  0.0294 -3.9804 -0.4832
   31MOL     H8 7268   1.769   0.507   6.306  0.5629  0.7154  0.9752
   31MOL     H9 7269   1.978   0.643   6.227 -1.2103 -1.7405 -3.0985
   31MOL    H10 7270   1.996   0.814   6.243 -0.6634 -0.3307  0.3895
   31MOL    H11 7271   1.912   0.737   6.109 -0.0524 -0.0761 -0.4721
   31MOL    H12 7272   1.560   0.883   6.141  1.3624  0.8494  0.6544
   31MOL    H13 7273   1.741   0.574   6.143 -1.4763 -2.1180  0.5452
   31MOL    C14 7274   1.819   0.738   6.438 -0.1014  0.2632 -0.4498
   31MOL    C15 7275   1.712   0.727   6.550 -0.9171 -0.4628  0.2434
   31MOL    C16 7276   1.599   0.830   6.524 -0.9510  0.1838  0.2331
   31MOL    C17 7277   1.655   0.586   6.565 -0.6472  0.3630  0.1829
   31MOL    O18 7278   1.537   0.556   6.573 -0.0157 -0.9911 -0.3141
   31MOL    O19 7279   1.746   0.487   6.564  0.1209  0.6593 -0.2637
   31MOL    H20 7280   1.899   0.664   6.446 -0.3513 -0.1197 -1.3953
   31MOL    H21 7281   1.884   0.825   6.447  0.3830  0.1101 -2.2627
   31MOL    H22 7282   1.530   0.833   6.608 -1.7147  3.9567 -0.4231
   31MOL    H23 7283   1.540   0.802   6.436  0.3822 -2.3681  0.1088
   31MOL    H24 7284   1.624   0.935   6.505 -0.7573  0.0824 -0.0713
   31MOL    H25 7285   1.701   0.406   6.583  1.1694  0.2060  0.2632
   31MOL    C26 7286   1.792   0.767   6.682  0.2599 -0.4913 -0.0817
   31MOL    C27 7287   1.720   0.835   6.807  0.1258 -0.2170 -0.0223
   31MOL    C28 7288   1.682   0.986   6.791 -0.4533 -1.1269 -0.3140
   31MOL    C29 7289   1.585   0.758   6.837  0.2385 -0.7049 -0.0024
   31MOL    O30 7290   1.571   0.640   6.865  0.4234 -0.6943  0.5598
   31MOL    O31 7291   1.487   0.853   6.852  0.6903 -0.0117  0.6535
   31MOL    H32 7292   1.845   0.676   6.710 -1.0754 -2.1137 -2.7085
   31MOL    H33 7293   1.868   0.842   6.661 -0.1651  0.5327  1.8238
   31MOL    H34 7294   1.779   1.032   6.770 -0.3005 -1.8015 -1.0906
   31MOL    H35 7295   1.639   1.037   6.878  0.7162 -1.2563  0.3498
   31MOL    H36 7296   1.611   1.006   6.711  0.4616  0.5077 -0.7275
   31MOL    H37 7297   1.399   0.820   6.858  1.3174 -1.9222 -0.3764
   31MOL    C38 7298   1.805   0.818   6.941 -0.2807  0.2126  0.1973
   31MOL    C39 7299   1.937   0.907   6.974  0.2506  0.2024  0.2225
   31MOL    C40 7300   1.883   1.043   7.023 -0.0714 -0.3174  0.2781
   31MOL    C41 7301   2.007   0.837   7.094 -0.0322 -0.0457 -0.1102
   31MOL    O42 7302   2.113   0.777   7.093  0.5524 -0.1143  0.1284
   31MOL    O43 7303   1.934   0.858   7.203  0.0989 -0.0331  0.0340
   31MOL    H44 7304   1.742   0.819   7.030  1.5597 -1.5557  1.5637
   31MOL    H45 7305   1.821   0.710   6.947  1.0505  0.4973  2.2031
   31MOL    H46 7306   1.904   1.126   6.955 -0.7824  1.3895  2.0868
   31MOL    H47 7307   1.927   1.079   7.116 -4.2083  1.1280  1.7788
   31MOL    H48 7308   1.777   1.044   7.047 -0.1881  2.8332 -0.1333
   31MOL    H49 7309   1.991   0.839   7.276  1.6325 -0.0495 -1.1450
   31MOL    C50 7310   2.031   0.918   6.855 -0.4332 -0.2343 -0.0969
   31MOL    C51 7311   2.174   0.988   6.857  0.2487 -0.0975 -0.1792
   31MOL    C52 7312   2.213   1.051   6.990 -0.3520  0.3570 -0.4241
   31MOL    C53 7313   2.292   0.887   6.829 -0.4629 -0.4964  0.1559
   31MOL    O54 7314   2.362   0.893   6.723 -0.2523 -0.4092 -0.0651
   31MOL    O55 7315   2.297   0.784   6.921  0.0596 -0.1208 -0.0456
   31MOL    H56 7316   2.038   0.822   6.805 -0.0454 -0.1407 -0.2244
   31MOL    H57 7317   1.977   0.980   6.783  2.4575  1.8087 -0.6015
   31MOL    H58 7318   2.306   1.109   6.987 -1.4928  2.3490  1.2780
   31MOL    H59 7319   2.219   0.979   7.072  0.7015 -0.8648 -1.5584
   31MOL    H60 7320   2.138   1.125   7.021 -1.2837 -0.7535 -0.0151
   31MOL    H61 7321   2.236   0.803   6.990  2.0483  1.6855  1.2808
   31MOL    C62 7322   2.172   1.110   6.762  0.2987  0.6299  0.2399
   31MOL    C63 7323   2.160   1.108   6.604 -0.5827  0.0193  0.4372
   31MOL    C64 7324   2.120   0.976   6.535 -0.4041 -0.1809 -0.9035
   31MOL    C65 7325   2.050   1.212   6.570  0.5303  0.5114 -0.3452
   31MOL    O66 7326   2.069   1.324   6.535  0.2425 -0.4272 -0.2003
   31MOL    O67 7327   1.933   1.172   6.622 -1.2183  0.0114  0.1678
   31MOL    H68 7328   2.105   1.184   6.807 -0.0911 -0.1505  0.9601
   31MOL    H69 7329   2.270   1.151   6.785  1.2713 -1.9019  0.7376
   31MOL    H70 7330   2.108   0.969   6.427 -0.2517 -3.0496 -0.7475
   31MOL    H71 7331   2.023   0.943   6.571 -0.4078  1.0471  0.2620
   31MOL    H72 7332   2.192   0.899   6.561  1.2779  1.5026 -0.4657
   31MOL    H73 7333   1.872   1.242   6.605 -2.1922 -1.2797 -1.7878
   31MOL    C74 7334   2.297   1.154   6.536  0.7204  0.0051 -0.9645
   31MOL    C75 7335   2.334   1.142   6.379  0.5868 -0.0393  0.5272
   31MOL    C76 7336   2.210   1.173   6.285 -0.5260 -0.1214 -0.7485
   31MOL    C77 7337   2.436   1.253   6.340 -0.2879 -0.4791 -0.7815
   31MOL    O78 7338   2.415   1.346   6.258 -0.4772 -0.9201  0.9372
   31MOL    O79 7339   2.552   1.254   6.415 -0.2815 -0.4812 -0.1225
   31MOL    H80 7340   2.303   1.259   6.566 -1.0173 -0.4985  1.2790
   31MOL    H81 7341   2.374   1.096   6.587 -0.5025  0.3131  1.2953
   31MOL    H82 7342   2.182   1.275   6.311  1.9897  0.7715 -1.4148
   31MOL    H83 7343   2.111   1.129   6.297 -1.3489  1.5785 -1.0994
   31MOL    H84 7344   2.229   1.176   6.177 -0.7036  1.2138 -0.7559
   31MOL    H85 7345   2.607   1.331   6.411 -1.7781  0.6269 -0.1745
   31MOL    C86 7346   2.398   0.998   6.347 -0.5318  0.5310 -0.0079
   31MOL    C87 7347   2.445   0.939   6.210 -0.4844  0.0712  0.5246
   31MOL    C88 7348   2.550   1.039   6.148  0.9006 -0.3266 -0.4868
   31MOL    C89 7349   2.533   0.810   6.249 -0.4956 -0.2056 -0.5860
   31MOL    O90 7350   2.645   0.781   6.211  0.0345  0.6221  0.2927
   31MOL    O91 7351   2.468   0.737   6.343 -0.4959  0.4933  0.8588
   31MOL    H92 7352   2.485   0.998   6.412 -1.0449 -0.0900  0.6961
   31MOL    H93 7353   2.339   0.925   6.402  0.8404 -0.6190 -0.0288
   31MOL    H94 7354   2.608   0.999   6.064 -0.9029  0.1099 -1.9998
   31MOL    H95 7355   2.627   1.062   6.221 -2.5899  0.1045  3.2512
   31MOL    H96 7356   2.493   1.126   6.118 -1.7569 -2.0149 -0.4976
   31MOL    H97 7357   2.526   0.680   6.393  0.4530 -1.3050 -2.1249
   31MOL    C98 7358   2.322   0.880   6.125  0.0289 -0.2925  0.5427
   31MOL    C99 7359   2.317   0.857   5.969 -0.3050 -0.0843 -0.3270
   31MOL   C100 7360   2.289   0.999   5.898 -0.1264  0.9413  0.1302
   31MOL   C101 7361   2.459   0.810   5.915 -0.4409 -0.2170 -0.4724
   31MOL   O102 7362   2.524   0.875   5.834  0.0171 -0.7580 -0.2089
   31MOL   O103 7363   2.491   0.691   5.966  0.3275 -0.2427  0.2439
   31MOL   H104 7364   2.306   0.778   6.159 -1.8003 -0.0887  0.3653
   31MOL   H105 7365   2.234   0.935   6.158  0.6994 -0.0828  1.9990
   31MOL   H106 7366   2.184   1.025   5.906 -1.2233 -3.1932  0.3846
   31MOL   H107 7367   2.336   1.021   5.802 -0.1240  1.3924  0.2382
   31MOL   H108 7368   2.348   1.070   5.956 -2.6153  2.8115  0.4648
   31MOL   H109 7369   2.572   0.652   5.939  1.0955  1.3526  0.1724
   31MOL   C110 7370   2.200   0.760   5.935  0.6561 -0.7790  0.0550
   31MOL   C111 7371   2.164   0.701   5.791  0.4632  0.1839 -0.1263
   31MOL   C112 7372   2.031   0.616   5.810  0.8269  0.0163  0.1310
   31MOL   C113 7373   2.136   0.813   5.686  0.1509 -0.6594  0.4793
   31MOL   O114 7374   2.217   0.856   5.603 -0.2459 -0.0009 -0.0697
   31MOL   O115 7375   2.011   0.875   5.704 -0.1704  0.5246  0.4660
   31MOL   H116 7376   2.212   0.672   5.998 -1.6633 -0.7450  0.5649
   31MOL   H117 7377   2.111   0.801   5.982 -0.2745 -1.0543 -1.4397
   31MOL   H118 7378   1.978   0.597   5.717 -0.0902 -1.4756  0.9474
   31MOL   H119 7379   1.968   0.658   5.888  1.0102  1.8212 -0.6636
   31MOL   H120 7380   2.052   0.517   5.851 -2.6192 -0.3912  0.9959
   31MOL   H121 7381   2.004   0.938   5.634 -2.9089 -0.1085  0.1178
   31MOL   C122 7382   2.282   0.606   5.738 -0.7729 -0.2214 -0.0122
   31MOL   C123 7383   2.279   0.513   5.607  0.3293 -0.5943 -0.0471
   31MOL   C124 7384   2.159   0.416   5.611  0.2953  0.0574 -0.3210
   31MOL   C125 7385   2.270   0.605   5.483 -0.4963 -0.5076 -0.4519
   31MOL   O126 7386   2.171   0.611   5.412 -0.6048 -0.2415 -0.0131
   31MOL   O127 7387   2.386   0.672   5.451  0.4582 -0.1559 -0.3896
   31MOL   H128 7388   2.370   0.668   5.726 -1.3737  0.7379  0.4914
   31MOL   H129 7389   2.304   0.541   5.823  0.4054  2.0520  1.4443
   31MOL   H130 7390   2.068   0.475   5.601  0.1028  0.0888  1.3872
   31MOL   H131 7391   2.154   0.366   5.708  0.1164  0.6566 -0.0183
   31MOL   H132 7392   2.156   0.341   5.532 -2.4174 -1.5161  1.1612
   31MOL   H133 7393   2.374   0.725   5.374  1.0166 -1.0714 -1.1106
   31MOL   C134 7394   2.416   0.434   5.617 -0.4641 -0.2549 -0.6579
   31MOL   C135 7395   2.467   0.336   5.501 -0.1931  0.1908  0.5256
   31MOL   C136 7396   2.425   0.380   5.356  0.2037  0.3609  0.0037
   31MOL   C137 7397   2.620   0.338   5.511 -0.3999  0.0454  0.6937
   31MOL   O138 7398   2.701   0.358   5.421 -0.1767 -0.6481 -0.3388
   31MOL   O139 7399   2.655   0.313   5.633  0.4176  0.4195 -0.6624
   31MOL   H140 7400   2.493   0.511   5.615 -1.2341  0.5382  0.1238
   31MOL   H141 7401   2.433   0.390   5.715 -0.0276  0.3334 -0.4697
   31MOL   H142 7402   2.317   0.378   5.337  0.1877 -0.1697  0.1362
   31MOL   H143 7403   2.471   0.309   5.288  0.6337  0.8559 -0.2256
   31MOL   H144 7404   2.467   0.476   5.328 -1.0549  0.6875 -0.8131
   31MOL   H145 7405   2.578   0.279   5.676  1.0799 -2.3159 -1.5084
   31MOL   C146 7406   2.398   0.192   5.529 -0.0210 -0.3846  0.2537
   31MOL   C147 7407   2.464   0.049   5.550  0.0480  0.0951 -0.2929
   31MOL   C148 7408   2.581   0.037   5.442  0.8023  0.4034 -0.6431
   31MOL   C149 7409   2.516   0.033   5.699  0.4276  1.0367  1.7866
   31MOL   O150 7410   2.500   0.125   5.782 -0.5813 -0.5781  0.0190
   31MOL   O151 7411   2.572   7.676   5.723  0.1882 -0.0796  0.5590
   31MOL   H152 7412   2.323   0.205   5.607 -1.8308  3.5775 -1.9601
   31MOL   H153 7413   2.335   0.178   5.441  1.4844 -2.1212 -0.5890
   31MOL   H154 7414   2.581   7.703   5.401 -1.8213  0.4014 -0.6849
   31MOL   H155 7415   2.677   0.062   5.487  1.2756 -0.8961 -0.8852
   31MOL   H156 7416   2.582   0.105   5.357  3.1902  1.2634  0.0234
   31MOL   H157 7417   2.572   7.671   5.817 -3.7782 -0.1289  0.6277
   31MOL   C158 7418   2.368   7.699   5.511 -0.4914  0.7106 -0.2245
   31MOL   C159 7419   2.226   7.661   5.573  0.4775 -0.0437  0.6408
   31MOL   C160 7420   2.227   7.651   5.725  0.5097  0.0236  0.1507
   31MOL   C161 7421   2.129   0.009   5.532  0.0600  0.2835  0.0725
   31MOL   O162 7422   2.106   0.106   5.608 -0.2257 -0.5007  0.3713
   31MOL   O163 7423   2.072   7.757   5.416  0.2309 -0.6457  0.0716
   31MOL   H164 7424   2.347   7.706   5.404 -2.7130  0.4272  0.1713
   31MOL   H165 7425   2.429   7.612   5.532  0.4449  1.7674  1.5413
   31MOL   H166 7426   2.139   7.597   5.761  0.5418 -1.1762 -1.5584
   31MOL   H167 7427   2.236   7.743   5.782  1.0684 -1.7823  3.1083
   31MOL   H168 7428   2.310   7.592   5.763 -0.6746 -3.3913 -2.3119
   31MOL   H169 7429   2.011   0.055   5.386  2.2759  1.1496 -0.3526
   31MOL   C170 7430   2.167   7.525   5.517 -0.0737  0.1335 -0.1208
   31MOL   C171 7431   2.209   7.376   5.567  0.1605 -0.0966 -0.6814
   31MOL   C172 7432   2.359   7.367   5.576  0.2708 -1.3414  0.7148
   31MOL   C173 7433   2.150   7.338   5.713 -0.0942  0.4098  0.4789
   31MOL   O174 7434   2.219   7.296   5.809  0.6889 -0.6190  0.1536
   31MOL   O175 7435   2.016   7.352   5.714 -0.0887  0.5306  0.1082
   31MOL   H176 7436   2.062   7.530   5.544  0.4864  1.2928  1.9273
   31MOL   H177 7437   2.158   7.528   5.408  1.1869 -0.0273 -0.2379
   31MOL   H178 7438   2.382   7.262   5.593  2.5979 -0.8149  0.9994
   31MOL   H179 7439   2.405   7.431   5.651  0.2850 -1.8431  1.1383
   31MOL   H180 7440   2.400   7.407   5.484 -1.8728  0.8163  0.6488
   31MOL   H181 7441   1.999   7.318   5.801  1.0202 -0.2214  0.0424
   31MOL   C182 7442   2.141   7.278   5.462 -0.4481 -0.5011  0.2950
   31MOL   C183 7443   2.166   7.121   5.455  0.6031  0.3094  0.0742
   31MOL   C184 7444   2.302   7.103   5.385  0.2711 -0.7766 -0.7640
   31MOL   C185 7445   2.157   7.040   5.586 -0.1163 -0.5915  0.1308
   31MOL   O186 7446   2.253   6.975   5.636 -0.3025  0.1380  0.5469
   31MOL   O187 7447   2.036   7.053   5.650 -0.0107 -0.0304  0.5753
   31MOL   H188 7448   2.035   7.302   5.472 -1.2403 -2.2309 -2.9552
   31MOL   H189 7449   2.152   7.310   5.358  0.3984 -1.2089  0.1632
   31MOL   H190 7450   2.289   7.091   5.278  1.1147  0.6569 -1.0391
   31MOL   H191 7451   2.367   7.017   5.405  1.2840  0.2511  0.5508
   31MOL   H192 7452   2.378   7.180   5.398 -0.2214 -0.3195 -0.6057
   31MOL   H193 7453   2.037   6.994   5.723  0.1140  0.5191  1.0194
   31MOL   C194 7454   2.049   7.067   5.364  0.4928 -0.3030 -0.0392
   31MOL   C195 7455   2.030   6.914   5.317 -0.0310  0.4446  0.2700
   31MOL   C196 7456   1.875   6.893   5.297 -0.6593 -0.3559  0.8955
   31MOL   C197 7457   2.097   6.909   5.178  0.2434  0.1615  0.5920
   31MOL   O198 7458   2.206   6.857   5.161  0.3614 -0.0533  0.1029
   31MOL   O199 7459   2.027   6.963   5.071 -0.4894  0.2404 -0.0814
   31MOL   H200 7460   1.964   7.105   5.420 -0.2561  0.3883 -1.5939
   31MOL   H201 7461   2.036   7.138   5.282  2.0222  2.2842  1.8414
   31MOL   H202 7462   1.839   6.989   5.259 -1.7701 -0.4040  1.8001
   31MOL   H203 7463   1.816   6.853   5.379  0.4987 -1.8693  1.0164
   31MOL   H204 7464   1.864   6.827   5.211  0.5840  2.5739 -1.6316
   31MOL   H205 7465   2.071   6.969   4.987  0.1073  0.6255  0.2601
   31MOL   C206 7466   2.085   6.802   5.411 -0.9896  0.3905  0.0767
   31MOL   C207 7467   2.060   6.645   5.403  0.0849  0.7474  0.2555
   31MOL   C208 7468   2.047   6.599   5.256  0.0334  0.4472  0.1419
   31MOL   C209 7469   2.183   6.572   5.465  0.2658 -0.1807  0.0411
   31MOL   O210 7470   2.249   6.481   5.419 -0.7181  0.0481 -0.2583
   31MOL   O211 7471   2.208   6.629   5.586  0.6100  0.2517 -0.2869
   31MOL   H212 7472   2.193   6.819   5.408 -0.7547 -1.1935 -1.0128
   31MOL   H213 7473   2.053   6.828   5.512 -1.0661  1.3527 -0.1918
   31MOL   H214 7474   2.126   6.635   5.191 -1.4511 -0.4073 -2.1905
   31MOL   H215 7475   1.960   6.642   5.208 -2.6670 -1.3748  3.2273
   31MOL   H216 7476   2.044   6.490   5.244  0.0647  0.1044  2.8481
   31MOL   H217 7477   2.286   6.580   5.607  1.1433  0.4100 -1.7916
   31MOL   C218 7478   1.925   6.610   5.477  0.2638 -0.4496 -0.2348
   31MOL   C219 7479   1.887   6.472   5.544  0.4254  0.0522  0.3518
   31MOL   C220 7480   1.921   6.354   5.450  0.1095 -0.3751  0.3817
   31MOL   C221 7481   1.956   6.450   5.683  0.6562  0.0050  0.4327
   31MOL   O222 7482   2.010   6.545   5.744  0.1569  0.1260 -0.2571
   31MOL   O223 7483   1.947   6.321   5.729 -0.0570  0.0614  0.3904
   31MOL   H224 7484   1.900   6.679   5.557  1.2411 -1.5891  1.0692
   31MOL   H225 7485   1.850   6.631   5.401  1.1953  0.6463 -0.8660
   31MOL   H226 7486   1.887   6.368   5.347 -0.7863  0.2032  0.7427
   31MOL   H227 7487   1.872   6.262   5.483  1.4165 -0.1315  3.1215
   31MOL   H228 7488   2.026   6.325   5.453  0.2825  0.3343  1.8682
   31MOL   H229 7489   1.985   6.317   5.815  1.0252  0.5575 -0.0581
   31MOL   C230 7490   1.733   6.474   5.573  0.1872  0.3856 -0.2449
   31MOL   C231 7491   1.651   6.603   5.611  0.1889  0.2751 -0.2166
   31MOL   C232 7492   1.503   6.569   5.623  0.3659 -0.6230  0.0286
   31MOL   C233 7493   1.696   6.672   5.736  0.4327 -0.1327 -0.3680
   31MOL   O234 7494   1.731   6.794   5.740 -0.2030  0.1337 -0.0594
   31MOL   O235 7495   1.690   6.585   5.843 -0.3808 -0.0141 -0.1435
   31MOL   H236 7496   1.678   6.441   5.485  1.1233 -3.1865  0.4418
   31MOL   H237 7497   1.713   6.388   5.637 -1.5094  2.2776  1.8629
   31MOL   H238 7498   1.449   6.658   5.656  1.0163  0.1331 -0.9264
   31MOL   H239 7499   1.479   6.484   5.687 -0.6138  1.1445  2.1262
   31MOL   H240 7500   1.472   6.549   5.521 -0.7288 -0.6137  0.3525
   31MOL   H241 7501   1.734   6.616   5.921 -2.5647  1.0631  0.6775
   31MOL   H242 7502   1.651   6.683   5.537 -0.3171  0.0226 -0.4933
   32MOL     C1 7503   4.462   6.720   0.999  0.3969  0.3912 -0.1647
   32MOL     C2 7504   4.475   6.725   1.153  0.3483 -0.4123  0.0475
   32MOL     C3 7505   4.631   6.714   1.185  0.0588  0.0988 -0.7589
   32MOL     C4 7506   4.436   6.870   1.197 -0.0814 -0.7304 -0.0506
   32MOL     O5 7507   4.349   6.893   1.275 -0.0859  0.4605  0.9226
   32MOL     O6 7508   4.514   6.957   1.134  0.5475  0.0400 -0.2943
   32MOL     H7 7509   4.370   6.766   0.961 -0.5634  2.0288  3.9394
   32MOL     H8 7510   4.486   6.625   0.952 -0.5442 -0.3429  0.8249
   32MOL     H9 7511   4.687   6.798   1.145  0.0711 -0.5371 -2.1292
   32MOL    H10 7512   4.684   6.627   1.146  0.5151  0.1833 -0.3224
   32MOL    H11 7513   4.631   6.716   1.294  0.2526 -0.5744 -0.7438
   32MOL    H12 7514   4.494   7.042   1.170  1.7338 -0.0510  0.6079
   32MOL    H13 7515   4.540   6.782   0.953 -0.1469  1.3694  0.2211
   32MOL    C14 7516   4.400   6.616   1.241 -0.5115 -0.2305  0.4214
   32MOL    C15 7517   4.256   6.577   1.210  0.2691 -0.3405 -0.4228
   32MOL    C16 7518   4.154   6.698   1.208 -0.1942  0.1313 -0.7897
   32MOL    C17 7519   4.247   6.511   1.066  0.2890  0.1346  0.0555
   32MOL    O18 7520   4.179   6.555   0.973 -0.2440  0.0992 -0.3417
   32MOL    O19 7521   4.315   6.396   1.052  0.0784 -0.3738 -0.8989
   32MOL    H20 7522   4.456   6.524   1.221 -1.9078 -1.1893  0.8963
   32MOL    H21 7523   4.418   6.647   1.344  0.0402  1.3886 -0.1432
   32MOL    H22 7524   4.056   6.656   1.185 -0.3568 -2.1706  3.5198
   32MOL    H23 7525   4.181   6.776   1.137 -0.2791  1.1572  0.3048
   32MOL    H24 7526   4.144   6.743   1.306 -0.6610 -1.4485 -0.0847
   32MOL    H25 7527   4.311   6.365   0.963  1.2389  2.3070 -1.9511
   32MOL    C26 7528   4.216   6.463   1.306  0.0508  0.6572 -0.1565
   32MOL    C27 7529   4.077   6.389   1.329 -0.1670  0.0623  0.3804
   32MOL    C28 7530   4.114   6.266   1.406 -0.2314 -0.1459 -0.4509
   32MOL    C29 7531   3.994   6.491   1.417 -0.1520 -0.0040 -0.2578
   32MOL    O30 7532   3.922   6.581   1.371 -0.6401 -0.1647 -0.1248
   32MOL    O31 7533   4.002   6.469   1.550  0.1787 -0.5527  0.6449
   32MOL    H32 7534   4.283   6.378   1.295  1.0553  1.3412  0.5979
   32MOL    H33 7535   4.249   6.495   1.405 -3.4155 -0.3738  1.4234
   32MOL    H34 7536   4.175   6.300   1.489  0.1572  2.9124 -1.9333
   32MOL    H35 7537   4.177   6.196   1.352  0.2734  0.5305 -0.7364
   32MOL    H36 7538   4.030   6.208   1.447 -0.5145  1.7054  1.6977
   32MOL    H37 7539   3.939   6.519   1.600  0.3812  0.7897 -0.4038
   32MOL    C38 7540   3.999   6.349   1.197 -0.4189 -0.4671 -0.1101
   32MOL    C39 7541   3.883   6.245   1.189 -0.2653  0.1488 -0.0634
   32MOL    C40 7542   3.951   6.109   1.184 -0.2024  0.4568  0.6920
   32MOL    C41 7543   3.797   6.258   1.313  0.3612  1.4983 -0.6104
   32MOL    O42 7544   3.768   6.162   1.388 -0.0530 -0.1367 -0.0655
   32MOL    O43 7545   3.724   6.372   1.322  0.6868  0.7884  0.1853
   32MOL    H44 7546   3.972   6.444   1.151 -0.1308 -0.3797 -0.1025
   32MOL    H45 7547   4.076   6.318   1.126 -0.4712 -1.8111  0.4186
   32MOL    H46 7548   4.013   6.098   1.096  0.0639  1.3164  0.7659
   32MOL    H47 7549   3.876   6.031   1.174  1.1291 -0.7898  0.3773
   32MOL    H48 7550   4.002   6.079   1.275  2.5551  0.3152 -0.8637
   32MOL    H49 7551   3.662   6.344   1.389 -0.9100  2.7256 -0.4281
   32MOL    C50 7552   3.798   6.293   1.066  0.4123 -0.0194  0.7520
   32MOL    C51 7553   3.673   6.214   0.994 -0.6100 -0.0703 -0.4105
   32MOL    C52 7554   3.569   6.175   1.102  0.1512  0.0594 -0.0924
   32MOL    C53 7555   3.607   6.308   0.889  0.0419  0.1215  0.0571
   32MOL    O54 7556   3.486   6.334   0.887 -0.3029 -0.5290  0.3956
   32MOL    O55 7557   3.694   6.345   0.796  0.4706 -0.1351 -0.0527
   32MOL    H56 7558   3.755   6.393   1.077 -3.1056 -1.1526 -1.6231
   32MOL    H57 7559   3.872   6.314   0.990 -0.7392  1.4761  0.0158
   32MOL    H58 7560   3.478   6.128   1.064 -0.1399  0.9132 -0.4560
   32MOL    H59 7561   3.547   6.260   1.166 -1.4524 -0.3464 -0.0857
   32MOL    H60 7562   3.605   6.099   1.171  0.2950 -0.0805 -0.3201
   32MOL    H61 7563   3.661   6.409   0.735 -1.8548 -2.4438 -1.3053
   32MOL    C62 7564   3.728   6.077   0.922  0.1339  0.0585  0.4721
   32MOL    C63 7565   3.656   5.986   0.811 -0.3089 -1.0246 -0.0247
   32MOL    C64 7566   3.516   5.965   0.864  0.0002  0.2670 -0.9133
   32MOL    C65 7567   3.653   6.075   0.676 -0.7313  0.1097 -0.9709
   32MOL    O66 7568   3.549   6.099   0.608  0.0012  0.4596  0.8870
   32MOL    O67 7569   3.782   6.118   0.656 -0.4399 -0.3424 -0.0518
   32MOL    H68 7570   3.824   6.110   0.884 -0.1056  0.2549  0.0358
   32MOL    H69 7571   3.749   6.012   1.008  1.8603  1.2990  1.0119
   32MOL    H70 7572   3.455   5.896   0.806  0.0382 -1.2772  0.8379
   32MOL    H71 7573   3.446   6.048   0.880 -0.6602 -0.2108 -1.3188
   32MOL    H72 7574   3.521   5.903   0.953 -0.1402 -1.4838 -2.1088
   32MOL    H73 7575   3.794   6.185   0.591  1.4363 -0.1182  0.5065
   32MOL    C74 7576   3.751   5.860   0.791  0.3959 -0.2601 -0.3354
   32MOL    C75 7577   3.715   5.718   0.753 -0.2309  0.2507 -0.0984
   32MOL    C76 7578   3.639   5.730   0.624  0.2205 -0.5282  0.4044
   32MOL    C77 7579   3.843   5.629   0.721  0.0102  0.5022 -0.2167
   32MOL    O78 7580   3.964   5.647   0.754  0.2974  0.5110  0.2784
   32MOL    O79 7581   3.800   5.516   0.667  0.2360 -0.5233  0.0980
   32MOL    H80 7582   3.825   5.891   0.717  0.3627  0.0634 -0.2326
   32MOL    H81 7583   3.814   5.852   0.879 -0.0167  0.5955  0.0341
   32MOL    H82 7584   3.554   5.799   0.625 -0.1497 -0.9274 -1.4583
   32MOL    H83 7585   3.587   5.644   0.581 -1.6719  1.3942 -1.3038
   32MOL    H84 7586   3.709   5.768   0.550  2.0118 -1.1766  1.7447
   32MOL    H85 7587   3.871   5.454   0.656  1.2735  0.4355  1.2492
   32MOL    C86 7588   3.627   5.644   0.858 -0.5253  0.2988 -0.1748
   32MOL    C87 7589   3.674   5.581   0.991 -0.8184 -0.0068 -0.9306
   32MOL    C88 7590   3.748   5.686   1.077 -0.3404 -0.0877 -0.3795
   32MOL    C89 7591   3.544   5.552   1.070 -0.2301 -0.8813 -0.1052
   32MOL    O90 7592   3.513   5.587   1.186  0.0784 -0.6381  0.0044
   32MOL    O91 7593   3.454   5.479   1.005 -0.3442 -0.1261 -0.5014
   32MOL    H92 7594   3.543   5.708   0.884 -0.9328 -1.6920  3.8148
   32MOL    H93 7595   3.576   5.561   0.809 -0.0446  0.3243 -0.7225
   32MOL    H94 7596   3.854   5.694   1.053  0.3284 -0.4179  2.3020
   32MOL    H95 7597   3.729   5.681   1.185  0.8606 -1.6818 -0.2242
   32MOL    H96 7598   3.703   5.782   1.050 -0.2456 -0.1916 -0.9082
   32MOL    H97 7599   3.388   5.461   1.071  0.0450 -1.4255 -0.4544
   32MOL    C98 7600   3.758   5.450   0.976 -0.3543  0.5357 -0.1268
   32MOL    C99 7601   3.781   5.333   1.084 -0.0512  0.5683 -0.3298
   32MOL   C100 7602   3.659   5.249   1.126  0.4056 -0.1914 -0.2025
   32MOL   C101 7603   3.867   5.236   1.004 -0.4892 -0.7229  0.1343
   32MOL   O102 7604   3.986   5.211   1.037  0.5778 -0.7342  0.0999
   32MOL   O103 7605   3.809   5.175   0.899  0.0063  0.0988  0.1756
   32MOL   H104 7606   3.725   5.401   0.885 -0.9444  2.1184 -0.7770
   32MOL   H105 7607   3.859   5.468   0.941 -0.7967  0.6594 -1.3723
   32MOL   H106 7608   3.606   5.206   1.041 -1.2897  2.8181 -0.7300
   32MOL   H107 7609   3.582   5.311   1.170 -1.5483 -0.9915 -2.4046
   32MOL   H108 7610   3.683   5.168   1.195  0.4518  0.6188  0.7310
   32MOL   H109 7611   3.860   5.102   0.869  1.9274  1.0633  1.0349
   32MOL   C110 7612   3.860   5.389   1.201  0.2052 -0.3921  0.5632
   32MOL   C111 7613   3.869   5.336   1.349 -0.1249 -0.1821 -0.4384
   32MOL   C112 7614   3.727   5.347   1.422 -0.5654  0.0623 -0.3803
   32MOL   C113 7615   3.926   5.192   1.359  0.7437  0.2390  0.9036
   32MOL   O114 7616   3.865   5.094   1.396 -0.4042 -0.2513 -0.7608
   32MOL   O115 7617   4.056   5.187   1.318 -0.4317  0.3427  0.4160
   32MOL   H116 7618   3.964   5.413   1.178 -0.1508  0.5867 -0.0652
   32MOL   H117 7619   3.812   5.487   1.209  0.4519 -0.2892  0.8043
   32MOL   H118 7620   3.728   5.287   1.513  0.4984  1.4379  0.5368
   32MOL   H119 7621   3.645   5.310   1.360  1.1095 -2.8705 -0.9343
   32MOL   H120 7622   3.709   5.452   1.447  0.0851 -0.3198  1.7250
   32MOL   H121 7623   4.091   5.100   1.308 -1.2774  0.1059 -0.6813
   32MOL   C122 7624   3.971   5.433   1.422 -0.5633 -0.2635  0.2578
   32MOL   C123 7625   4.003   5.458   1.578 -0.1978  0.5803  0.8230
   32MOL   C124 7626   3.877   5.521   1.640  0.7974 -0.4720 -0.4104
   32MOL   C125 7627   4.034   5.326   1.647 -0.1277  1.0281 -0.2665
   32MOL   O126 7628   4.148   5.283   1.675 -0.2696 -0.6647 -0.4171
   32MOL   O127 7629   3.920   5.250   1.677 -0.2295  0.3981 -0.5164
   32MOL   H128 7630   4.063   5.428   1.364 -0.4311 -2.0076  0.5982
   32MOL   H129 7631   3.946   5.534   1.391  0.5685 -0.2081 -0.5112
   32MOL   H130 7632   3.796   5.448   1.642 -0.8440  1.3029 -0.3074
   32MOL   H131 7633   3.851   5.615   1.592  1.5394 -1.3998 -2.6776
   32MOL   H132 7634   3.889   5.525   1.748  2.8282 -0.2813 -0.6290
   32MOL   H133 7635   3.947   5.165   1.708  0.2956  0.7449 -0.0336
   32MOL   C134 7636   4.121   5.557   1.572 -0.0592 -0.2891 -1.0024
   32MOL   C135 7637   4.172   5.641   1.688  0.0251 -0.5668 -0.0842
   32MOL   C136 7638   4.092   5.772   1.693 -1.1555  0.1009  0.0114
   32MOL   C137 7639   4.161   5.574   1.830 -0.1172 -0.4282 -1.0739
   32MOL   O138 7640   4.235   5.491   1.867 -0.2871  0.2804 -0.2214
   32MOL   O139 7641   4.054   5.618   1.900  0.0277 -0.1357 -0.1242
   32MOL   H140 7642   4.202   5.499   1.529  0.6119 -0.6334  0.7064
   32MOL   H141 7643   4.098   5.628   1.493 -0.2480 -2.1077 -2.6278
   32MOL   H142 7644   4.114   5.836   1.779  1.7026 -0.4304 -0.2575
   32MOL   H143 7645   3.987   5.744   1.695 -1.1587  0.1620  1.3044
   32MOL   H144 7646   4.107   5.845   1.614 -2.5442 -0.4781 -0.7958
   32MOL   H145 7647   4.047   5.569   1.980 -1.8465 -1.0965 -0.8278
   32MOL   C146 7648   4.316   5.680   1.656  0.2949 -0.2672 -0.3444
   32MOL   C147 7649   4.399   5.796   1.721 -0.6223 -0.2829  0.2114
   32MOL   C148 7650   4.379   5.921   1.626  0.7352  0.5510  0.3225
   32MOL   C149 7651   4.360   5.834   1.865  0.1186 -0.3856 -0.1578
   32MOL   O150 7652   4.320   5.946   1.896 -0.1071 -0.1890  0.3528
   32MOL   O151 7653   4.384   5.726   1.943 -0.5099 -0.1238  0.6785
   32MOL   H152 7654   4.368   5.584   1.662 -1.6380 -1.2536  1.0840
   32MOL   H153 7655   4.304   5.694   1.549  0.1339  0.8522 -0.1820
   32MOL   H154 7656   4.277   5.958   1.619  0.7816  0.5991 -0.1247
   32MOL   H155 7657   4.414   5.903   1.525 -1.8239  0.9698 -0.6774
   32MOL   H156 7658   4.436   6.003   1.670  1.6204  0.4531 -0.6175
   32MOL   H157 7659   4.401   5.646   1.895  1.9295 -1.0554  2.9813
   32MOL   C158 7660   4.552   5.748   1.733 -0.2429  0.0491  0.5780
   32MOL   C159 7661   4.653   5.741   1.612  0.3020 -0.8398 -0.9968
   32MOL   C160 7662   4.584   5.662   1.492  0.3193 -0.1465 -0.4417
   32MOL   C161 7663   4.696   5.877   1.551  0.5499  0.2770 -0.6629
   32MOL   O162 7664   4.673   5.986   1.606  0.0385  0.3489 -0.1532
   32MOL   O163 7665   4.760   5.876   1.430 -0.9024 -0.4514  0.2755
   32MOL   H164 7666   4.603   5.823   1.793 -0.6427  1.5690 -0.9379
   32MOL   H165 7667   4.550   5.650   1.780  0.7884 -0.9233 -1.3352
   32MOL   H166 7668   4.516   5.725   1.435  0.2793 -0.2059 -0.4598
   32MOL   H167 7669   4.538   5.570   1.528  0.1463  0.2671  0.4174
   32MOL   H168 7670   4.658   5.635   1.416  1.2963  0.5417  0.2544
   32MOL   H169 7671   4.772   5.968   1.411 -0.2142 -0.8476 -1.3034
   32MOL   C170 7672   4.782   5.656   1.646 -0.5885 -0.4909  0.7612
   32MOL   C171 7673   4.896   5.710   1.747  0.2186  0.1745 -0.4772
   32MOL   C172 7674   4.848   5.821   1.852  1.0543  0.3504 -0.3165
   32MOL   C173 7675   4.924   5.578   1.831 -0.0766 -0.4257 -0.6357
   32MOL   O174 7676   4.895   5.571   1.949 -0.0532  0.7346 -0.2359
   32MOL   O175 7677   4.975   5.479   1.751 -0.3262  0.3729  0.6036
   32MOL   H176 7678   4.740   5.557   1.663 -1.3270 -0.9793 -3.3585
   32MOL   H177 7679   4.837   5.631   1.555 -0.0142 -1.0550  1.2591
   32MOL   H178 7680   4.920   5.869   1.919 -1.3047 -0.8198  3.2226
   32MOL   H179 7681   4.765   5.790   1.917  0.8786  0.4734 -0.4832
   32MOL   H180 7682   4.813   5.908   1.797  0.2745 -0.9483 -1.9099
   32MOL   H181 7683   4.979   5.396   1.796 -3.0614 -0.2095 -0.1168
   32MOL   C182 7684   5.018   5.762   1.670  0.0509 -0.6592  0.0730
   32MOL   C183 7685   5.157   5.792   1.731  0.2976  0.0984 -0.3525
   32MOL   C184 7686   5.156   5.830   1.877 -0.1833 -0.6435  0.3555
   32MOL   C185 7687   5.239   5.660   1.731  0.8085  0.6734  0.9815
   32MOL   O186 7688   5.273   5.598   1.836 -0.2058 -0.6951 -0.4257
   32MOL   O187 7689   5.252   5.604   1.604  0.3511  0.0703 -0.1860
   32MOL   H188 7690   5.029   5.702   1.580  0.2276  1.4411 -1.3606
   32MOL   H189 7691   4.988   5.854   1.619 -0.6264  0.2944  2.1539
   32MOL   H190 7692   5.255   5.841   1.921 -0.3382 -3.1460  1.4117
   32MOL   H191 7693   5.093   5.772   1.944 -2.7553  1.0806 -0.5125
   32MOL   H192 7694   5.108   5.926   1.896 -0.2284 -0.2155 -1.8130
   32MOL   H193 7695   5.267   5.511   1.605 -0.0755 -0.1090 -4.3839
   32MOL   C194 7696   5.240   5.897   1.639 -0.4869 -0.2702 -0.3659
   32MOL   C195 7697   5.208   6.053   1.633  0.4010  0.0873 -0.7038
   32MOL   C196 7698   5.062   6.095   1.640  0.5996 -0.0296  0.1171
   32MOL   C197 7699   5.282   6.126   1.752  0.5132  0.0928 -0.0636
   32MOL   O198 7700   5.225   6.193   1.832  0.4092  0.2418 -0.1846
   32MOL   O199 7701   5.412   6.103   1.745 -0.2137 -0.3083  0.8854
   32MOL   H200 7702   5.349   5.889   1.647 -0.6552 -1.3065  0.8806
   32MOL   H201 7703   5.229   5.844   1.545 -2.3422  1.3708 -1.1130
   32MOL   H202 7704   5.034   6.199   1.624 -1.5230 -0.5622  0.1929
   32MOL   H203 7705   5.002   6.067   1.727 -0.0562 -0.2249 -0.3877
   32MOL   H204 7706   5.001   6.046   1.563 -0.3561  1.6483 -0.2272
   32MOL   H205 7707   5.459   6.162   1.801  2.7162 -1.3212 -0.4311
   32MOL   C206 7708   5.274   6.106   1.496 -0.3218  0.2639  0.3616
   32MOL   C207 7709   5.198   6.099   1.352  0.4933  0.0986 -0.7186
   32MOL   C208 7710   5.314   6.138   1.252 -0.0995  0.3816  0.3393
   32MOL   C209 7711   5.156   5.957   1.320 -0.3818  0.3585 -0.1456
   32MOL   O210 7712   5.217   5.882   1.239 -0.2087 -0.2980 -0.5358
   32MOL   O211 7713   5.043   5.907   1.385 -0.3937  0.0642 -0.2101
   32MOL   H212 7714   5.302   6.211   1.504 -1.1218  0.5866 -0.9464
   32MOL   H213 7715   5.372   6.058   1.489 -0.0095  0.9784 -0.2136
   32MOL   H214 7716   5.393   6.065   1.239 -0.5720  0.0458 -0.7646
   32MOL   H215 7717   5.384   6.209   1.295 -0.4714  1.9631 -1.6035
   32MOL   H216 7718   5.288   6.172   1.152  1.1469 -1.0222 -0.4812
   32MOL   H217 7719   5.032   5.814   1.371  1.8705 -0.1243 -0.9085
   32MOL   C218 7720   5.072   6.191   1.332 -0.0424 -0.4034 -0.4030
   32MOL   C219 7721   5.075   6.344   1.301  0.0970 -0.3991  0.3879
   32MOL   C220 7722   5.174   6.420   1.384 -0.4428 -0.4543  0.2106
   32MOL   C221 7723   5.104   6.365   1.154 -0.1850 -0.4680  0.8302
   32MOL   O222 7724   5.195   6.439   1.114  0.6615  0.1529 -0.0594
   32MOL   O223 7725   5.021   6.301   1.070  0.6376 -0.3324  0.2220
   32MOL   H224 7726   5.005   6.152   1.255 -1.3729  0.4611  0.3037
   32MOL   H225 7727   5.001   6.185   1.414  0.3657  0.5176  0.0286
   32MOL   H226 7728   5.155   6.410   1.491 -2.0612 -0.9478 -0.1170
   32MOL   H227 7729   5.165   6.525   1.358 -1.8283 -0.9336 -1.3301
   32MOL   H228 7730   5.278   6.393   1.363  0.2638  0.9717  1.7599
   32MOL   H229 7731   5.038   6.319   0.979  0.9384 -0.1623  0.3123
   32MOL   C230 7732   4.928   6.401   1.332  0.0465  0.6134 -0.9699
   32MOL   C231 7733   4.877   6.422   1.480  1.1801  0.4277  0.9285
   32MOL   C232 7734   4.859   6.572   1.519  0.2748 -0.4377 -0.2591
   32MOL   C233 7735   4.745   6.332   1.506 -0.5535 -0.3235  0.5863
   32MOL   O234 7736   4.637   6.353   1.456  0.4530  0.1159  0.0337
   32MOL   O235 7737   4.778   6.226   1.584 -0.0859  0.1032 -0.1581
   32MOL   H236 7738   4.928   6.492   1.272 -0.8326  0.2793 -1.4768
   32MOL   H237 7739   4.854   6.338   1.284  1.9311 -1.3939 -1.2944
   32MOL   H238 7740   4.799   6.576   1.610 -0.9652 -0.5873 -1.0457
   32MOL   H239 7741   4.806   6.628   1.442  1.8796  0.3683 -0.7865
   32MOL   H240 7742   4.951   6.617   1.555  0.2764 -1.1904  0.7225
   32MOL   H241 7743   4.717   6.156   1.602  0.1993  0.1217  0.8769
   32MOL   H242 7744   4.953   6.387   1.550 -0.7693  1.7488  3.8318
   33MOL     C1 7745   4.312   1.724   6.879 -0.1194  1.0713 -0.1676
   33MOL     C2 7746   4.439   1.638   6.840  0.1712 -0.2515 -0.1414
   33MOL     C3 7747   4.459   1.536   6.961 -0.1998  0.2185 -0.7203
   33MOL     C4 7748   4.408   1.560   6.710 -0.6846  0.1087  0.3771
   33MOL     O5 7749   4.416   1.438   6.695  0.0463  0.2582 -0.1391
   33MOL     O6 7750   4.367   1.649   6.616  0.5539 -0.3975 -0.6666
   33MOL     H7 7751   4.295   1.809   6.814  0.6065  0.3441 -1.3283
   33MOL     H8 7752   4.340   1.758   6.978  0.4481 -0.4549  0.2238
   33MOL     H9 7753   4.517   1.446   6.943  0.4299  0.1718  1.4117
   33MOL    H10 7754   4.364   1.502   7.004  1.7139 -1.7341  2.1270
   33MOL    H11 7755   4.498   1.590   7.047  1.1151  0.2094 -1.3150
   33MOL    H12 7756   4.342   1.594   6.544  0.3639 -0.3922 -0.6056
   33MOL    H13 7757   4.214   1.676   6.887  0.4027 -0.5467 -2.8003
   33MOL    C14 7758   4.554   1.741   6.830  0.2388  0.2099 -0.0472
   33MOL    C15 7759   4.705   1.717   6.799  0.4189  1.0131 -0.8037
   33MOL    C16 7760   4.765   1.603   6.879  0.2109 -0.3937  0.2649
   33MOL    C17 7761   4.732   1.684   6.650  0.1669 -0.4958 -0.4677
   33MOL    O18 7762   4.658   1.704   6.557 -0.1405  0.4069 -0.1448
   33MOL    O19 7763   4.860   1.639   6.630  0.0476 -0.7264  0.1444
   33MOL    H20 7764   4.531   1.813   6.751 -0.2849  1.0734  0.8933
   33MOL    H21 7765   4.541   1.813   6.910 -0.4582 -0.1391  0.1615
   33MOL    H22 7766   4.742   1.633   6.982 -0.0664 -0.0595  0.1034
   33MOL    H23 7767   4.874   1.599   6.881  0.3373  1.6290 -1.8000
   33MOL    H24 7768   4.727   1.507   6.844  0.4255  0.3566 -2.0808
   33MOL    H25 7769   4.854   1.641   6.536 -0.7932  0.9729  0.2176
   33MOL    C26 7770   4.788   1.845   6.825 -0.3041 -0.6128  0.1874
   33MOL    C27 7771   4.771   1.987   6.760 -0.2437  0.6236  0.0704
   33MOL    C28 7772   4.738   1.992   6.607 -0.7739 -0.0910 -0.5847
   33MOL    C29 7773   4.649   2.064   6.830 -0.2236  0.2370 -0.2451
   33MOL    O30 7774   4.620   2.053   6.951 -0.6983 -0.3082  0.1930
   33MOL    O31 7775   4.567   2.129   6.743 -0.3527 -0.0800 -0.0266
   33MOL    H32 7776   4.784   1.864   6.932 -1.8974 -0.1072  0.0379
   33MOL    H33 7777   4.891   1.810   6.813 -0.0370 -0.2101  1.3146
   33MOL    H34 7778   4.644   1.942   6.583 -1.6943  0.7291  1.2260
   33MOL    H35 7779   4.812   1.935   6.550 -0.4516 -0.8291  0.5545
   33MOL    H36 7780   4.739   2.092   6.562  0.9588 -0.1225 -0.6612
   33MOL    H37 7781   4.491   2.164   6.787 -0.6854  0.2632 -0.8440
   33MOL    C38 7782   4.899   2.069   6.797  0.1541  0.2795 -0.5167
   33MOL    C39 7783   5.032   2.072   6.696  0.1929 -0.0081 -0.0466
   33MOL    C40 7784   5.083   1.925   6.669  0.2508  0.2068 -0.3727
   33MOL    C41 7785   5.022   2.146   6.565 -0.3614 -0.1571 -0.1835
   33MOL    O42 7786   5.077   2.108   6.460 -0.5236  0.2471  0.7386
   33MOL    O43 7787   4.942   2.255   6.576 -0.5806 -0.0567  0.2110
   33MOL    H44 7788   4.870   2.174   6.796 -1.9239 -0.2640 -0.4622
   33MOL    H45 7789   4.927   2.037   6.897 -1.3710 -2.2789 -0.8493
   33MOL    H46 7790   5.017   1.862   6.610  0.7597 -0.6043 -0.0809
   33MOL    H47 7791   5.099   1.872   6.763  0.7291  0.1127 -0.5036
   33MOL    H48 7792   5.178   1.930   6.615  0.4373  1.9248  0.0821
   33MOL    H49 7793   4.925   2.288   6.489  1.8569  1.8928  0.4164
   33MOL    C50 7794   5.152   2.139   6.785 -0.2871 -0.2982 -0.0771
   33MOL    C51 7795   5.161   2.279   6.852 -0.5751 -0.2134 -0.4319
   33MOL    C52 7796   5.043   2.308   6.947  0.5205 -0.4010 -0.3123
   33MOL    C53 7797   5.294   2.284   6.937  0.5055 -0.5685 -0.1616
   33MOL    O54 7798   5.300   2.324   7.054  0.1221  0.2430  0.3526
   33MOL    O55 7799   5.405   2.249   6.878  0.0521  0.3930  0.4340
   33MOL    H56 7800   5.168   2.067   6.866 -1.8422  1.3929  1.7670
   33MOL    H57 7801   5.239   2.120   6.722 -0.9404 -1.8691 -0.5367
   33MOL    H58 7802   4.961   2.342   6.884  0.9002  3.3103  1.0435
   33MOL    H59 7803   5.064   2.377   7.029 -1.0376 -0.5818  0.2581
   33MOL    H60 7804   5.020   2.219   7.005 -0.5149 -0.4722 -0.8088
   33MOL    H61 7805   5.468   2.234   6.946 -0.7160  1.1219  1.3220
   33MOL    C62 7806   5.173   2.383   6.731  0.3388 -0.0534 -0.2930
   33MOL    C63 7807   5.239   2.530   6.740  0.0009  0.4174  0.0415
   33MOL    C64 7808   5.201   2.588   6.877 -0.5630 -0.9123 -0.1481
   33MOL    C65 7809   5.396   2.521   6.724  0.3145  0.6114  0.2627
   33MOL    O66 7810   5.439   2.452   6.637  0.3776 -0.2901 -0.2642
   33MOL    O67 7811   5.467   2.571   6.823  0.5300 -0.1908  0.1603
   33MOL    H68 7812   5.217   2.323   6.651 -0.8617  2.1110 -2.6445
   33MOL    H69 7813   5.068   2.395   6.703  0.0159  0.5579  1.1345
   33MOL    H70 7814   5.236   2.521   6.955  2.0401 -0.2079 -0.6736
   33MOL    H71 7815   5.092   2.592   6.887 -0.4894  0.0381  0.2933
   33MOL    H72 7816   5.237   2.688   6.899  3.1044 -2.0852 -0.4999
   33MOL    H73 7817   5.560   2.582   6.813  0.5798 -1.0368 -0.3002
   33MOL    C74 7818   5.172   2.608   6.625 -0.1197 -0.1222  0.1454
   33MOL    C75 7819   5.231   2.737   6.553 -0.0780  0.2425 -0.0752
   33MOL    C76 7820   5.297   2.821   6.664  0.1175  0.8665  0.1372
   33MOL    C77 7821   5.343   2.687   6.451  0.5556 -0.9558 -0.0217
   33MOL    O78 7822   5.457   2.736   6.450 -0.6743  0.2786  0.9110
   33MOL    O79 7823   5.297   2.600   6.363  0.2797  0.8696  0.6392
   33MOL    H80 7824   5.153   2.538   6.544 -1.3542  1.3233 -0.8504
   33MOL    H81 7825   5.069   2.626   6.656 -0.7108 -0.2930 -1.6597
   33MOL    H82 7826   5.389   2.780   6.705  0.6752 -0.7733 -2.6154
   33MOL    H83 7827   5.238   2.841   6.754 -4.7259 -2.5674 -2.0202
   33MOL    H84 7828   5.333   2.912   6.617  1.6290 -0.1896 -0.8042
   33MOL    H85 7829   5.362   2.566   6.303  0.9973  2.1605  0.6720
   33MOL    C86 7830   5.112   2.822   6.492  0.0238 -0.1703  0.3767
   33MOL    C87 7831   5.021   2.795   6.366  0.1306  0.1785 -0.4040
   33MOL    C88 7832   4.907   2.907   6.379 -0.0115 -0.1451  0.3845
   33MOL    C89 7833   5.100   2.827   6.237 -0.1630 -0.3125  0.1629
   33MOL    O90 7834   5.121   2.745   6.152 -0.1385 -0.3906  0.4522
   33MOL    O91 7835   5.113   2.960   6.224 -0.3031 -0.0590 -0.0874
   33MOL    H92 7836   5.048   2.838   6.580  2.4737  1.4362  1.9461
   33MOL    H93 7837   5.151   2.923   6.481  0.6205 -0.2760  1.4209
   33MOL    H94 7838   4.859   2.934   6.285  0.5317 -0.1764  0.0957
   33MOL    H95 7839   4.950   3.000   6.417 -2.7140  1.1129  0.4528
   33MOL    H96 7840   4.832   2.883   6.454  1.2707 -0.4039  1.6149
   33MOL    H97 7841   5.140   2.991   6.139 -2.5121  1.7618 -0.1841
   33MOL    C98 7842   4.956   2.655   6.369  0.6626  0.0471 -0.3123
   33MOL    C99 7843   4.821   2.613   6.283  0.6490  1.1959  0.0154
   33MOL   C100 7844   4.831   2.680   6.136 -0.3753 -0.0542 -0.3537
   33MOL   C101 7845   4.819   2.458   6.267  0.2157 -0.1011  0.8493
   33MOL   O102 7846   4.857   2.382   6.354 -0.7745 -0.0924  0.1132
   33MOL   O103 7847   4.759   2.424   6.149 -0.0621 -0.1167 -0.4848
   33MOL   H104 7848   5.027   2.576   6.342  1.1890 -0.3067  1.9774
   33MOL   H105 7849   4.931   2.631   6.472  0.3682 -0.4958 -0.5038
   33MOL   H106 7850   4.909   2.632   6.078  0.0563 -3.1007  2.5875
   33MOL   H107 7851   4.850   2.787   6.149  0.0037 -0.4079  2.5056
   33MOL   H108 7852   4.745   2.677   6.070 -0.5418  1.7763 -0.2488
   33MOL   H109 7853   4.748   2.330   6.149 -0.2701 -0.0977  0.5060
   33MOL   C110 7854   4.688   2.654   6.347 -0.8697  0.0390 -0.5739
   33MOL   C111 7855   4.618   2.603   6.479  0.4776  0.0240 -0.1544
   33MOL   C112 7856   4.478   2.686   6.485 -0.0106  0.1202 -0.0216
   33MOL   C113 7857   4.585   2.450   6.465 -0.1669 -0.6741  0.3999
   33MOL   O114 7858   4.608   2.365   6.548  0.1376 -0.5144 -0.0548
   33MOL   O115 7859   4.513   2.429   6.355 -0.2039 -0.4660  0.3134
   33MOL   H116 7860   4.685   2.763   6.347  0.1552  0.0799  0.4173
   33MOL   H117 7861   4.616   2.633   6.269  1.3171 -0.5776 -2.4979
   33MOL   H118 7862   4.431   2.671   6.388 -0.6135 -2.5099  0.6524
   33MOL   H119 7863   4.480   2.793   6.506  0.7927  0.4371 -1.6443
   33MOL   H120 7864   4.420   2.649   6.569  0.2790  0.1523  0.1952
   33MOL   H121 7865   4.484   2.340   6.365 -2.0374  0.3760  2.7803
   33MOL   C122 7866   4.712   2.630   6.607  0.0231 -0.2726 -0.0297
   33MOL   C123 7867   4.666   2.654   6.754  0.9946  0.1247  0.5909
   33MOL   C124 7868   4.796   2.661   6.848 -0.4669 -0.1225  0.5872
   33MOL   C125 7869   4.600   2.794   6.768  0.6314  0.7806  0.4580
   33MOL   O126 7870   4.479   2.812   6.783  0.0761 -0.8758  0.1592
   33MOL   O127 7871   4.682   2.894   6.769 -0.4103 -0.6496 -0.2016
   33MOL   H128 7872   4.788   2.553   6.610 -0.3325 -0.5498  3.0001
   33MOL   H129 7873   4.762   2.725   6.590 -0.0952 -0.3402 -0.7748
   33MOL   H130 7874   4.872   2.731   6.814  0.3482 -0.8997  0.7807
   33MOL   H131 7875   4.844   2.563   6.851  1.0085  0.5259 -1.0508
   33MOL   H132 7876   4.764   2.671   6.951 -0.1971  1.7013  0.5095
   33MOL   H133 7877   4.634   2.967   6.805  1.3904 -0.0954  1.2202
   33MOL   C134 7878   4.565   2.546   6.807 -0.4608  0.0207  0.2082
   33MOL   C135 7879   4.528   2.509   6.954 -0.1331 -0.7946  0.0103
   33MOL   C136 7880   4.641   2.412   7.004  0.2626 -0.1258 -0.3874
   33MOL   C137 7881   4.517   2.617   7.069 -0.8171  0.0256  0.3838
   33MOL   O138 7882   4.547   2.601   7.188 -0.9147 -0.2564  0.1666
   33MOL   O139 7883   4.461   2.735   7.035 -0.0692 -0.3318 -0.1455
   33MOL   H140 7884   4.472   2.551   6.750  0.5795 -0.3595 -1.5559
   33MOL   H141 7885   4.605   2.454   6.764 -0.7156 -0.5299  1.1294
   33MOL   H142 7886   4.608   2.379   7.103  0.2955  0.6758 -0.1004
   33MOL   H143 7887   4.739   2.459   7.018 -0.0423 -0.1857  2.3272
   33MOL   H144 7888   4.665   2.332   6.935 -1.8099  0.5386 -1.9115
   33MOL   H145 7889   4.439   2.747   6.944  0.5821 -2.6340 -0.6438
   33MOL   C146 7890   4.397   2.409   6.956 -0.3678  0.0123 -0.2382
   33MOL   C147 7891   4.260   2.436   6.882  0.4982  0.4816 -0.0556
   33MOL   C148 7892   4.220   2.580   6.897 -0.1381 -0.4782  0.3261
   33MOL   C149 7893   4.272   2.397   6.734 -0.3951 -0.4138 -0.3547
   33MOL   O150 7894   4.354   2.315   6.689  0.2308  0.1250 -0.1689
   33MOL   O151 7895   4.179   2.471   6.664 -0.0096 -0.6486 -0.2227
   33MOL   H152 7896   4.426   2.308   6.928 -0.7811  0.3891 -2.1050
   33MOL   H153 7897   4.375   2.392   7.061  3.5893  5.2696  1.6579
   33MOL   H154 7898   4.127   2.598   6.844  0.6070  0.5388 -0.6689
   33MOL   H155 7899   4.290   2.656   6.863 -0.2094 -1.6591 -2.5779
   33MOL   H156 7900   4.208   2.606   7.003 -0.9639  2.2442 -0.3955
   33MOL   H157 7901   4.211   2.464   6.575  2.1878 -1.4727  0.6065
   33MOL   C158 7902   4.130   2.351   6.937 -0.3983  0.0874  0.3846
   33MOL   C159 7903   4.121   2.197   6.951  0.2294  0.1015  0.0085
   33MOL   C160 7904   4.128   2.124   6.804 -0.1164  0.2934  0.2356
   33MOL   C161 7905   4.245   2.143   7.033 -0.3643  0.8124  0.1065
   33MOL   O162 7906   4.338   2.075   6.990 -0.2076  0.4557 -0.1812
   33MOL   O163 7907   4.248   2.172   7.162 -0.7326 -0.3683 -0.3002
   33MOL   H164 7908   4.113   2.386   7.039 -0.0487 -1.4197  0.9709
   33MOL   H165 7909   4.038   2.381   6.886 -1.0496 -1.7539  0.4331
   33MOL   H166 7910   4.225   2.100   6.760 -1.5312 -0.6623 -2.4975
   33MOL   H167 7911   4.093   2.184   6.720  2.1193 -2.5007 -2.8659
   33MOL   H168 7912   4.087   2.023   6.796 -0.1827  0.1086  2.6510
   33MOL   H169 7913   4.328   2.142   7.201 -0.8372 -0.5184 -0.1998
   33MOL   C170 7914   3.992   2.145   7.026 -0.0546  0.8254 -0.3645
   33MOL   C171 7915   3.843   2.180   6.993 -0.0917  0.6983  0.5629
   33MOL   C172 7916   3.799   2.325   7.021 -0.3497 -0.0498 -0.2206
   33MOL   C173 7917   3.824   2.160   6.839 -0.2454  0.2930  0.1306
   33MOL   O174 7918   3.855   2.242   6.759  0.6942 -0.2811  0.0398
   33MOL   O175 7919   3.759   2.044   6.808 -0.4667  0.3086  0.3735
   33MOL   H176 7920   4.006   2.038   7.045 -3.5442  0.2441 -0.6975
   33MOL   H177 7921   4.016   2.184   7.125  1.6896 -0.0722 -0.4021
   33MOL   H178 7922   3.806   2.350   7.127 -1.6250  2.8357 -0.7741
   33MOL   H179 7923   3.695   2.338   6.991 -0.9021  1.4191  2.2182
   33MOL   H180 7924   3.855   2.409   6.979  1.1747 -0.6739  0.4899
   33MOL   H181 7925   3.749   2.047   6.714  3.4869 -0.8155 -0.1921
   33MOL   C182 7926   3.750   2.070   7.074  0.1522 -0.5266  0.7306
   33MOL   C183 7927   3.715   2.069   7.223  0.2599 -0.6333  0.4252
   33MOL   C184 7928   3.853   2.068   7.306  0.5851  0.3701  0.2504
   33MOL   C185 7929   3.622   2.189   7.261  0.4104  0.7367 -0.1492
   33MOL   O186 7930   3.509   2.206   7.222 -0.5131 -0.2764 -0.1062
   33MOL   O187 7931   3.674   2.265   7.359  0.4814  0.1594 -0.3466
   33MOL   H188 7932   3.651   2.082   7.030  0.2666 -0.2262  0.5525
   33MOL   H189 7933   3.785   1.975   7.035 -0.7993 -0.9150  0.8154
   33MOL   H190 7934   3.883   2.173   7.313  0.8609  0.2448  0.9102
   33MOL   H191 7935   3.929   2.006   7.258 -0.0736 -1.0517  1.0104
   33MOL   H192 7936   3.842   2.031   7.407  1.7609  1.4415  0.7810
   33MOL   H193 7937   3.764   2.240   7.371 -0.0333 -1.9395 -0.6548
   33MOL   C194 7938   3.628   1.939   7.243  1.1215 -0.2662  0.2782
   33MOL   C195 7939   3.592   1.868   7.377  0.4561 -0.1394  0.2443
   33MOL   C196 7940   3.710   1.772   7.403 -0.8038  0.0157  0.5384
   33MOL   C197 7941   3.568   1.964   7.493  0.9025  0.5502  0.3531
   33MOL   O198 7942   3.459   2.022   7.508 -0.2260  0.1477  0.0550
   33MOL   O199 7943   3.667   1.968   7.586 -0.3359 -0.3301  0.1629
   33MOL   H200 7944   3.525   1.956   7.213  1.0943  0.0692  0.5678
   33MOL   H201 7945   3.654   1.864   7.167  0.3568  1.6280 -1.9075
   33MOL   H202 7946   3.710   1.695   7.327 -1.1036  0.9674 -0.4353
   33MOL   H203 7947   3.707   1.731   7.504 -1.6824  0.6020  0.7586
   33MOL   H204 7948   3.805   1.822   7.391 -1.9228  2.2212  0.6432
   33MOL   H205 7949   3.644   2.039   7.644  2.3650 -0.4338  1.4345
   33MOL   C206 7950   3.460   1.782   7.348 -0.5327 -0.1480  0.2154
   33MOL   C207 7951   3.402   1.670   7.447 -0.8524 -0.1125 -0.8066
   33MOL   C208 7952   3.445   1.699   7.599 -0.1539 -0.3034 -0.3800
   33MOL   C209 7953   3.249   1.679   7.445 -0.2376  0.0328 -0.8570
   33MOL   O210 7954   3.187   1.577   7.457  0.8390 -0.0832  0.3262
   33MOL   O211 7955   3.197   1.804   7.450 -0.7723  0.1223  0.4673
   33MOL   H212 7956   3.384   1.850   7.310 -0.0775  0.6874  0.8022
   33MOL   H213 7957   3.474   1.729   7.254  0.1264  0.5765 -0.0950
   33MOL   H214 7958   3.422   1.801   7.627 -1.5818 -0.1028 -2.2278
   33MOL   H215 7959   3.544   1.673   7.638  0.2307 -2.8430 -2.8863
   33MOL   H216 7960   3.375   1.642   7.660 -0.2515  1.2876  1.0236
   33MOL   H217 7961   3.266   1.867   7.438 -1.3872  0.3825 -1.8350
   33MOL   C218 7962   3.458   1.521   7.411  0.3498  0.0690  0.2047
   33MOL   C219 7963   3.448   1.461   7.267 -0.0540  0.2723  0.2948
   33MOL   C220 7964   3.322   1.505   7.190  0.2512 -0.4782  0.7207
   33MOL   C221 7965   3.576   1.478   7.181 -0.3360 -0.6298  0.1863
   33MOL   O222 7966   3.571   1.507   7.063  0.2127 -0.4714 -0.0145
   33MOL   O223 7967   3.692   1.461   7.249 -0.5967  0.4125 -0.3192
   33MOL   H224 7968   3.559   1.508   7.448 -0.4990 -1.3224  2.1100
   33MOL   H225 7969   3.398   1.464   7.482 -0.8750  0.6082 -0.3786
   33MOL   H226 7970   3.234   1.450   7.225  1.6400 -1.9110  2.0712
   33MOL   H227 7971   3.328   1.481   7.084  1.1305  1.1756  0.3944
   33MOL   H228 7972   3.297   1.610   7.202 -0.6511 -0.4777 -1.0679
   33MOL   H229 7973   3.758   1.435   7.187 -0.6469  2.0013 -1.0553
   33MOL   C230 7974   3.436   1.302   7.270  0.3492  0.3606 -0.1689
   33MOL   C231 7975   3.537   1.232   7.367  0.2483  1.1217 -0.4708
   33MOL   C232 7976   3.464   1.164   7.482 -0.3090  0.2722  0.6342
   33MOL   C233 7977   3.617   1.132   7.281 -0.0386  0.9001  0.1524
   33MOL   O234 7978   3.713   1.161   7.206  0.5027  0.1464  0.0694
   33MOL   O235 7979   3.561   1.008   7.280  0.3478  0.2390 -0.0459
   33MOL   H236 7980   3.335   1.271   7.295  0.9219 -0.6908  0.8558
   33MOL   H237 7981   3.442   1.262   7.168  0.6909  0.6182 -0.2523
   33MOL   H238 7982   3.367   1.120   7.456 -1.0768  1.5440  1.2791
   33MOL   H239 7983   3.449   1.233   7.565 -2.9658  0.0067  0.4355
   33MOL   H240 7984   3.524   1.080   7.517  0.8949  0.9344  0.1683
   33MOL   H241 7985   3.603   0.942   7.227 -2.2513 -2.3102  0.9429
   33MOL   H242 7986   3.597   1.307   7.419 -0.1726  0.3458  1.1833
   34MOL     C1 7987   7.564   1.834   0.315 -0.2908  0.4210 -0.3073
   34MOL     C2 7988   7.719   1.816   0.298  0.5394  0.0755  0.6729
   34MOL     C3 7989   7.741   1.767   0.158 -0.4844  0.8377  0.1196
   34MOL     C4 7990   0.026   1.953   0.296 -0.0017 -0.2024 -0.1587
   34MOL     O5 7991   0.147   1.965   0.304 -0.7956 -0.3257 -0.3079
   34MOL     O6 7992   7.710   2.060   0.284 -0.1634 -0.1538 -0.3278
   34MOL     H7 7993   7.512   1.739   0.331  0.6181  0.0112  0.2429
   34MOL     H8 7994   7.517   1.898   0.240 -1.1138 -2.6871 -2.5624
   34MOL     H9 7995   7.697   1.669   0.142  0.8673  0.2967 -0.3491
   34MOL    H10 7996   0.080   1.748   0.143 -0.6125 -0.7396  1.1307
   34MOL    H11 7997   7.697   1.828   0.079 -0.5650 -0.3987 -0.7937
   34MOL    H12 7998   7.624   2.033   0.256 -0.1948  1.5314 -1.9984
   34MOL    H13 7999   7.531   1.884   0.406 -0.5824 -1.4063  0.6247
   34MOL    C14 8000   0.026   1.721   0.404 -0.1364  0.1924  0.3989
   34MOL    C15 8001   0.026   1.746   0.553 -0.5490  0.0128 -0.1228
   34MOL    C16 8002   0.079   1.886   0.591  0.6280 -0.0784  0.3209
   34MOL    C17 8003   7.650   1.716   0.593 -0.8283  0.1367  0.3090
   34MOL    O18 8004   7.589   1.790   0.663 -0.1536  0.2404  0.5763
   34MOL    O19 8005   7.601   1.597   0.544  0.0156 -0.2877  0.5373
   34MOL    H20 8006   7.763   1.619   0.380  1.9405 -0.3086 -0.1446
   34MOL    H21 8007   0.127   1.703   0.370 -0.4512 -1.4915  0.3475
   34MOL    H22 8008   0.183   1.900   0.559  0.9419 -3.0102 -0.0795
   34MOL    H23 8009   0.065   1.914   0.695  0.5415  0.9451  0.0372
   34MOL    H24 8010   0.029   1.965   0.536  1.5525 -0.1082 -0.5880
   34MOL    H25 8011   7.523   1.573   0.593  0.4095 -0.0998  1.2491
   34MOL    C26 8012   0.123   1.638   0.613 -0.0359 -0.1370 -0.1541
   34MOL    C27 8013   0.146   1.601   0.767 -0.1298 -0.9676  0.6449
   34MOL    C28 8014   0.011   1.545   0.821  0.3286  1.0024 -0.4193
   34MOL    C29 8015   0.246   1.482   0.772 -0.1506  0.6984  0.3310
   34MOL    O30 8016   0.233   1.377   0.839 -0.3351 -0.2480 -0.5018
   34MOL    O31 8017   0.363   1.502   0.709 -0.2632 -0.4408  0.7921
   34MOL    H32 8018   0.122   1.544   0.556 -4.4085 -0.2275 -0.1646
   34MOL    H33 8019   0.218   1.672   0.573  1.0438 -1.1191  1.5209
   34MOL    H34 8020   7.706   1.621   0.853 -0.2138  0.9715 -1.5223
   34MOL    H35 8021   0.022   1.478   0.906 -2.5058  0.9721 -0.0167
   34MOL    H36 8022   7.726   1.492   0.741  3.0685 -0.3839 -1.3429
   34MOL    H37 8023   0.414   1.424   0.721 -2.3626 -1.9019  0.5898
   34MOL    C38 8024   0.204   1.732   0.841  0.2520 -0.1920 -0.5148
   34MOL    C39 8025   0.264   1.722   0.990 -0.8042  0.4252 -0.5881
   34MOL    C40 8026   0.172   1.630   1.068 -0.1623  0.6643 -0.0006
   34MOL    C41 8027   0.412   1.672   0.971 -0.6931  0.2456  0.1201
   34MOL    O42 8028   0.490   1.715   0.891 -0.3267 -0.3912 -0.0374
   34MOL    O43 8029   0.451   1.586   1.069  0.1786  0.1381  0.6553
   34MOL    H44 8030   0.272   1.780   0.770  0.4577  1.5396  0.8194
   34MOL    H45 8031   0.120   1.801   0.852 -0.8765 -1.5636 -0.5255
   34MOL    H46 8032   0.197   1.617   1.173 -0.6309 -0.4794 -0.0222
   34MOL    H47 8033   0.189   1.530   1.028  0.8944  2.1041 -3.3491
   34MOL    H48 8034   0.066   1.656   1.065 -0.4165 -0.0737  1.9299
   34MOL    H49 8035   0.545   1.575   1.070  0.1537 -0.2945 -0.8417
   34MOL    C50 8036   0.258   1.866   1.048 -0.9455 -0.2331 -0.0833
   34MOL    C51 8037   0.336   1.927   1.170  0.6244 -0.5346  0.2318
   34MOL    C52 8038   0.318   1.825   1.287  0.7058 -1.4726 -0.7588
   34MOL    C53 8039   0.485   1.951   1.131 -0.1214  0.0908  0.5675
   34MOL    O54 8040   0.520   2.042   1.052 -0.0755 -0.0685 -0.3068
   34MOL    O55 8041   0.572   1.844   1.163  0.1830 -0.3845 -0.0607
   34MOL    H56 8042   0.277   1.933   0.964 -1.4663  1.9533  1.4885
   34MOL    H57 8043   0.154   1.898   1.054 -0.2262  2.1837  0.0742
   34MOL    H58 8044   0.214   1.818   1.317  0.8494  1.3196  0.5644
   34MOL    H59 8045   0.372   1.861   1.375 -2.1298 -1.2298  0.9439
   34MOL    H60 8046   0.354   1.724   1.270 -1.1313 -2.0834 -1.0674
   34MOL    H61 8047   0.662   1.848   1.135  0.8199  1.9714  2.2159
   34MOL    C62 8048   0.259   2.063   1.207  0.1645  0.8957 -0.8088
   34MOL    C63 8049   0.278   2.154   1.328 -0.2546 -0.1198  0.0186
   34MOL    C64 8050   0.252   2.079   1.461  0.5087  0.0945  0.1423
   34MOL    C65 8051   0.431   2.196   1.331 -0.2432 -0.4763 -0.2530
   34MOL    O66 8052   0.509   2.164   1.417 -0.6591 -0.2131 -0.4945
   34MOL    O67 8053   0.462   2.270   1.227 -0.2025 -0.9079  0.3573
   34MOL    H68 8054   0.264   2.110   1.108 -1.8350  0.1640 -1.2969
   34MOL    H69 8055   0.155   2.032   1.218  0.6318 -0.9534 -1.3546
   34MOL    H70 8056   0.237   2.156   1.536 -1.7428 -2.0165  1.9439
   34MOL    H71 8057   0.329   2.022   1.512 -0.7030 -1.5020  0.2502
   34MOL    H72 8058   0.168   2.009   1.467 -0.8735  1.7967  0.8822
   34MOL    H73 8059   0.551   2.300   1.227 -1.5219  3.4622 -1.4234
   34MOL    C74 8060   0.176   2.270   1.303  0.4510 -0.0197  0.8508
   34MOL    C75 8061   0.183   2.410   1.379 -0.5418 -0.2241 -0.7468
   34MOL    C76 8062   0.189   2.406   1.535 -0.1766  0.4171 -0.6994
   34MOL    C77 8063   0.300   2.504   1.324  0.1404 -0.1355 -0.4152
   34MOL    O78 8064   0.314   2.521   1.201  0.1509  0.4572 -0.2293
   34MOL    O79 8065   0.376   2.569   1.416  0.0624  0.2346 -0.2069
   34MOL    H80 8066   0.184   2.295   1.197 -1.3212  0.6611  0.8607
   34MOL    H81 8067   0.078   2.222   1.300  0.3904  0.1268  0.4146
   34MOL    H82 8068   0.188   2.505   1.581 -1.6723  1.7821 -3.5329
   34MOL    H83 8069   0.290   2.373   1.557 -0.3474 -0.3026 -0.9822
   34MOL    H84 8070   0.118   2.339   1.583  3.0490 -1.3072  1.8076
   34MOL    H85 8071   0.433   2.629   1.372  3.6397 -2.2128  0.8670
   34MOL    C86 8072   0.046   2.481   1.335 -0.1238  0.0515 -0.7247
   34MOL    C87 8073   7.677   2.482   1.402 -0.3838  0.5976  0.1638
   34MOL    C88 8074   7.682   2.559   1.539 -0.8791 -0.4800 -0.4039
   34MOL    C89 8075   7.576   2.563   1.309  0.1643  0.1040 -0.6402
   34MOL    O90 8076   7.489   2.642   1.350 -0.6736 -0.4463 -0.2393
   34MOL    O91 8077   7.588   2.522   1.179  0.6307  0.0034 -0.5501
   34MOL    H92 8078   0.068   2.588   1.331 -2.9046  0.6612 -0.4808
   34MOL    H93 8079   0.036   2.459   1.229 -0.4333 -1.0795 -0.4593
   34MOL    H94 8080   7.591   2.603   1.581 -0.2558 -1.4696  2.1183
   34MOL    H95 8081   7.740   2.650   1.523 -1.4139 -0.2544 -1.0749
   34MOL    H96 8082   7.719   2.492   1.616  1.5454  0.4760 -0.6712
   34MOL    H97 8083   7.520   2.575   1.139  3.9535  2.0215 -3.9200
   34MOL    C98 8084   7.630   2.328   1.406  0.5340 -0.4632 -0.2000
   34MOL    C99 8085   7.491   2.276   1.462  0.1109  0.5537 -0.2785
   34MOL   C100 8086   7.455   2.346   1.601  0.3286  0.4615  0.4174
   34MOL   C101 8087   7.372   2.293   1.366 -0.1311  0.2581  0.3658
   34MOL   O102 8088   7.379   2.298   1.243  0.5303  0.1200 -0.3638
   34MOL   O103 8089   7.255   2.293   1.434  0.2772  0.3459  0.2991
   34MOL   H104 8090   7.646   2.297   1.303 -0.8596 -0.4729 -0.4302
   34MOL   H105 8091   7.713   2.280   1.458  0.3978 -1.1153 -0.5838
   34MOL   H106 8092   7.425   2.449   1.578  1.3014  0.7864  0.5983
   34MOL   H107 8093   7.546   2.353   1.660 -0.8273 -0.2771  2.3467
   34MOL   H108 8094   7.377   2.304   1.665  0.4870 -0.4396  0.0291
   34MOL   H109 8095   7.188   2.315   1.371 -0.6585 -0.2834  1.0761
   34MOL   C110 8096   7.510   2.122   1.497  0.0754 -0.4504 -0.1539
   34MOL   C111 8097   7.514   1.998   1.394  0.1526 -0.0845  0.0599
   34MOL   C112 8098   7.608   2.019   1.273  0.0693 -0.0787 -0.0585
   34MOL   C113 8099   7.575   1.882   1.479  0.5242 -0.4453 -0.0740
   34MOL   O114 8100   7.682   1.829   1.463 -0.1157  0.4312 -0.2349
   34MOL   O115 8101   7.503   1.868   1.589 -0.0127 -0.0939 -0.3074
   34MOL   H116 8102   7.599   2.120   1.560  0.3680 -0.6139 -0.5771
   34MOL   H117 8103   7.422   2.110   1.560  0.9604 -1.8839  0.8466
   34MOL   H118 8104   7.694   2.079   1.303 -0.5059  0.6401  0.1494
   34MOL   H119 8105   7.555   2.082   1.202  0.9442 -0.5756 -1.1754
   34MOL   H120 8106   7.659   1.938   1.221 -0.1402  0.4655 -1.1424
   34MOL   H121 8107   7.558   1.809   1.639 -0.4708 -0.8485 -0.6850
   34MOL   C122 8108   7.368   1.961   1.342  0.6057  0.2049  0.1763
   34MOL   C123 8109   7.318   1.837   1.261  0.1757  0.1898 -0.0604
   34MOL   C124 8110   7.165   1.845   1.274 -0.0665  0.4661 -0.2060
   34MOL   C125 8111   7.357   1.848   1.109 -0.2149  0.7957  0.0582
   34MOL   O126 8112   7.461   1.806   1.067 -0.4067  0.3966  0.0024
   34MOL   O127 8113   7.269   1.917   1.034  0.3560  0.0692 -0.1735
   34MOL   H128 8114   7.310   1.964   1.434  1.0448  0.2218  0.4510
   34MOL   H129 8115   7.322   2.049   1.297 -0.4745 -0.2099  0.4587
   34MOL   H130 8116   7.134   1.822   1.376 -1.8135 -0.6304 -0.9648
   34MOL   H131 8117   7.107   1.777   1.211  0.6949  1.5027 -2.0398
   34MOL   H132 8118   7.105   1.934   1.254 -0.9903 -0.2111 -0.5108
   34MOL   H133 8119   7.293   1.902   0.944  0.7709  1.1218 -0.2558
   34MOL   C134 8120   7.363   1.700   1.334  0.1602 -0.1565  0.0815
   34MOL   C135 8121   7.292   1.560   1.298  0.5236  0.2080 -0.2868
   34MOL   C136 8122   7.384   1.450   1.368  0.3974 -0.7470 -0.3314
   34MOL   C137 8123   7.154   1.551   1.366 -0.2011  0.0672  0.3756
   34MOL   O138 8124   7.047   1.557   1.303  0.0411 -0.1578 -0.0576
   34MOL   O139 8125   7.159   1.529   1.499  0.3786  0.8521  0.1577
   34MOL   H140 8126   7.470   1.684   1.331  0.0089 -1.0443 -0.8206
   34MOL   H141 8127   7.344   1.707   1.442 -0.5623 -0.7076 -0.0009
   34MOL   H142 8128   7.480   1.427   1.321  1.7924  0.4280  1.8621
   34MOL   H143 8129   7.336   1.354   1.387 -1.0689 -0.0886 -0.6517
   34MOL   H144 8130   7.408   1.469   1.473  0.6451  0.3412 -0.5797
   34MOL   H145 8131   7.071   1.510   1.528  0.4637 -0.1867 -0.2746
   34MOL   C146 8132   7.289   1.528   1.149  0.3914  0.3117  0.2488
   34MOL   C147 8133   7.277   1.391   1.071 -1.4097 -0.2107  0.4025
   34MOL   C148 8134   7.419   1.330   1.057 -0.7586 -0.4095  0.5123
   34MOL   C149 8135   7.185   1.285   1.134  0.9476 -0.2398  0.0642
   34MOL   O150 8136   7.211   1.165   1.131  0.1933  0.1072 -0.0413
   34MOL   O151 8137   7.067   1.327   1.185  0.2442  0.0806  0.2019
   34MOL   H152 8138   7.202   1.589   1.125 -0.5165 -0.4921  1.4084
   34MOL   H153 8139   7.366   1.591   1.105  0.6404 -0.1974 -0.0464
   34MOL   H154 8140   7.501   1.401   1.052 -2.0119  0.9605 -1.3230
   34MOL   H155 8141   7.441   1.269   0.970 -1.7913 -0.2686  0.1367
   34MOL   H156 8142   7.448   1.273   1.145  0.8710  0.1440  0.3384
   34MOL   H157 8143   7.059   1.421   1.187  1.5728  0.2931 -2.4303
   34MOL   C158 8144   7.242   1.435   0.922 -0.1043 -0.7523 -0.5821
   34MOL   C159 8145   7.110   1.399   0.841  1.1922  0.4655  0.1649
   34MOL   C160 8146   7.104   1.249   0.837  0.4793 -0.4585 -0.4909
   34MOL   C161 8147   6.980   1.455   0.912  0.4334  1.0770  0.2566
   34MOL   O162 8148   6.983   1.537   0.999 -0.2401 -0.1902  0.2738
   34MOL   O163 8149   6.867   1.398   0.865 -0.7340 -0.1769 -0.0857
   34MOL   H164 8150   7.244   1.544   0.927  0.7788 -0.8378  1.3653
   34MOL   H165 8151   7.326   1.413   0.855  0.4244 -0.3699 -0.0432
   34MOL   H166 8152   7.050   1.224   0.746  1.2102 -3.4643 -0.1392
   34MOL   H167 8153   7.072   1.194   0.925  0.4865  1.1065  0.5021
   34MOL   H168 8154   7.205   1.214   0.816  0.2907 -1.0576 -0.3990
   34MOL   H169 8155   6.789   1.417   0.914 -0.3424 -1.1245  0.9435
   34MOL   C170 8156   7.108   1.454   0.695 -0.5643 -0.0648  0.3898
   34MOL   C171 8157   7.140   1.600   0.651 -0.4035  0.3275  0.2420
   34MOL   C172 8158   7.070   1.706   0.748 -0.0761  0.1491  0.0155
   34MOL   C173 8159   7.290   1.623   0.654 -0.7763 -0.4222 -1.1901
   34MOL   O174 8160   7.374   1.539   0.656 -0.0188  0.0771  0.6329
   34MOL   O175 8161   7.324   1.754   0.642  0.2390  0.3932 -0.6667
   34MOL   H176 8162   7.172   1.394   0.629 -0.9729 -0.5022  0.3900
   34MOL   H177 8163   7.014   1.426   0.646  0.0301 -1.9938  0.2779
   34MOL   H178 8164   7.050   1.804   0.704  2.6824  0.9004  0.3841
   34MOL   H179 8165   7.124   1.717   0.842  2.6148 -0.1176 -1.4593
   34MOL   H180 8166   6.966   1.677   0.766  0.3926 -1.6477 -0.1003
   34MOL   H181 8167   7.417   1.763   0.654  0.0869  1.3094 -0.1441
   34MOL   C182 8168   7.077   1.634   0.506 -0.1912  0.1649  1.1185
   34MOL   C183 8169   7.131   1.574   0.369 -0.1060  0.5073  0.0991
   34MOL   C184 8170   7.275   1.630   0.337  0.2553  0.1071  0.1959
   34MOL   C185 8171   7.136   1.421   0.359  0.0602  0.0869  0.6798
   34MOL   O186 8172   7.070   1.334   0.423  0.4189 -0.3155 -0.0822
   34MOL   O187 8173   7.235   1.379   0.275 -0.4197  0.2310  0.0368
   34MOL   H188 8174   6.970   1.626   0.521  0.0400  0.4389  3.0212
   34MOL   H189 8175   7.082   1.741   0.484  0.6523 -0.2846 -1.0057
   34MOL   H190 8176   7.310   1.640   0.234 -0.2511  0.6193  0.0720
   34MOL   H191 8177   7.355   1.572   0.382  0.4595 -0.5004 -0.9431
   34MOL   H192 8178   7.279   1.733   0.374 -2.3422 -0.1479  1.3200
   34MOL   H193 8179   7.234   1.285   0.270 -3.3812  0.1216  1.5622
   34MOL   C194 8180   7.042   1.632   0.248  0.0017  0.5329  0.5447
   34MOL   C195 8181   6.885   1.629   0.233  0.2347  0.3438  0.7269
   34MOL   C196 8182   6.825   1.498   0.290 -0.4626  0.2337  0.1765
   34MOL   C197 8183   6.819   1.750   0.307  0.5609 -0.3655 -0.7128
   34MOL   O198 8184   6.884   1.840   0.361 -0.2793 -0.1076  0.2189
   34MOL   O199 8185   6.682   1.749   0.304 -0.0235  0.3616  0.2097
   34MOL   H200 8186   7.073   1.733   0.220  0.6186 -0.2550 -1.7310
   34MOL   H201 8187   7.069   1.577   0.158 -0.1690  0.7148  0.3846
   34MOL   H202 8188   6.891   1.413   0.270 -0.0344  0.6767 -0.2933
   34MOL   H203 8189   6.728   1.475   0.246  1.0486 -2.2026 -2.0606
   34MOL   H204 8190   6.835   1.500   0.398 -1.3888 -1.6024  0.3241
   34MOL   H205 8191   6.662   1.825   0.356 -0.3036 -1.1897  2.4023
   34MOL   C206 8192   6.838   1.625   0.078 -0.9978 -0.5551 -0.0594
   34MOL   C207 8193   6.895   1.723   7.729 -0.6413 -0.0273  0.7716
   34MOL   C208 8194   6.795   1.694   7.614 -0.5275 -0.1995  0.5263
   34MOL   C209 8195   6.880   1.870   7.764 -0.5572  0.4166  0.1896
   34MOL   O210 8196   6.970   1.934   0.052  0.3230  0.2678  0.1096
   34MOL   O211 8197   6.755   1.929   7.742  0.4558  0.2164  0.1648
   34MOL   H212 8198   6.858   1.525   0.039  0.0884 -0.2009 -0.4093
   34MOL   H213 8199   6.730   1.641   0.086 -0.5675  2.9427 -0.6007
   34MOL   H214 8200   6.692   1.702   7.648 -0.8364 -0.6571 -0.2749
   34MOL   H215 8201   6.784   1.592   7.575 -0.9064 -0.2395  0.7371
   34MOL   H216 8202   6.807   1.757   7.526  2.9488 -1.1743  0.2105
   34MOL   H217 8203   6.749   2.021   7.762 -2.1520  0.2883 -0.7481
   34MOL   C218 8204   7.049   1.683   7.685 -0.6571  0.3490 -0.0989
   34MOL   C219 8205   7.119   1.720   7.549 -0.8647 -0.5229  0.8744
   34MOL   C220 8206   7.042   1.632   7.437 -0.1233 -0.3206  0.4767
   34MOL   C221 8207   7.105   1.870   7.509  0.4657 -0.5931 -0.8520
   34MOL   O222 8208   7.177   1.957   7.557  0.5562 -0.3415 -0.5160
   34MOL   O223 8209   6.994   1.904   7.440 -0.3497  0.3258 -0.6017
   34MOL   H224 8210   7.116   1.723   7.761 -0.3534  0.7178 -0.5592
   34MOL   H225 8211   7.060   1.575   7.696  0.0575  0.5115  0.8216
   34MOL   H226 8212   7.021   1.532   7.476 -1.6019 -0.5267 -0.8178
   34MOL   H227 8213   7.088   1.626   7.339  0.6957 -2.5223  0.9555
   34MOL   H228 8214   6.944   1.671   7.413 -0.1889 -0.8022 -0.0455
   34MOL   H229 8215   6.985   1.998   7.435  1.0613  0.5331  0.3887
   34MOL   C230 8216   7.272   1.679   7.549 -0.2814 -0.1513  0.3360
   34MOL   C231 8217   7.370   1.722   7.667  0.2386 -0.1013 -0.3113
   34MOL   C232 8218   7.410   1.590   7.733  0.2848 -0.0559 -0.5426
   34MOL   C233 8219   7.490   1.804   7.622  0.3355  0.6399  0.0721
   34MOL   O234 8220   7.506   1.919   7.661  0.6099 -0.8267 -0.5411
   34MOL   O235 8221   7.556   1.740   7.523  0.2027 -0.0906 -0.0914
   34MOL   H236 8222   7.275   1.571   7.536  0.6891  0.0075 -0.8524
   34MOL   H237 8223   7.315   1.717   7.456 -0.0914 -1.6982 -0.2108
   34MOL   H238 8224   7.479   1.593   0.050  0.0060 -2.1639 -0.1953
   34MOL   H239 8225   7.455   1.528   7.655  2.2767 -0.5482  0.9511
   34MOL   H240 8226   7.324   1.533   0.001  1.0918 -0.0151  1.5967
   34MOL   H241 8227   7.622   1.798   7.488 -1.4358  1.2869 -0.9758
   34MOL   H242 8228   7.324   1.783   7.744  0.9280  1.7973 -1.3655
   35MOL     C1 8229   7.571   4.597   1.766  0.3084 -0.2174  0.5333
   35MOL     C2 8230   7.692   4.620   1.674  0.2855  0.0976  0.1359
   35MOL     C3 8231   0.028   4.697   1.766 -0.2528  0.0343 -0.2309
   35MOL     C4 8232   0.005   4.491   1.635  0.0709  0.9627 -0.2316
   35MOL     O5 8233   0.118   4.493   1.587 -0.2570  0.1870  0.2693
   35MOL     O6 8234   7.708   4.377   1.663 -0.6369  0.0450 -0.4237
   35MOL     H7 8235   7.485   4.560   1.710 -0.4424  0.1803  1.4064
   35MOL     H8 8236   7.533   4.682   1.823 -2.1420  0.1489 -1.5603
   35MOL     H9 8237   7.747   4.775   1.824  0.1685 -0.5018  0.8680
   35MOL    H10 8238   0.117   4.734   1.714 -0.6294 -0.7142 -1.4202
   35MOL    H11 8239   0.056   4.634   1.850 -0.1098  0.2591 -0.1096
   35MOL    H12 8240   7.752   4.298   1.634 -0.6078 -1.6501  3.8338
   35MOL    H13 8241   7.590   4.517   1.837 -0.5891  0.1517  1.1957
   35MOL    C14 8242   7.667   4.715   1.546  0.3861  0.1372  0.7154
   35MOL    C15 8243   7.551   4.697   1.437  0.0586  0.4404 -0.6008
   35MOL    C16 8244   7.559   4.556   1.362  0.4326 -0.1600 -0.1345
   35MOL    C17 8245   7.410   4.725   1.502  0.1927  0.0379  0.2141
   35MOL    O18 8246   7.384   4.840   1.545 -0.0563 -0.2354  0.0991
   35MOL    O19 8247   7.319   4.625   1.479  0.1122  0.3950  0.4420
   35MOL    H20 8248   7.664   4.816   1.588 -2.7003 -0.3422  1.8159
   35MOL    H21 8249   7.757   4.710   1.485  1.5597  2.9295  2.1099
   35MOL    H22 8250   7.479   4.530   1.293  0.6639  0.7360 -0.7496
   35MOL    H23 8251   7.569   4.484   1.444  3.0070  1.3748  0.9779
   35MOL    H24 8252   7.656   4.554   1.312  0.1867 -1.9795 -0.5917
   35MOL    H25 8253   7.358   4.540   1.464  0.1764  0.4865  0.0644
   35MOL    C26 8254   7.587   4.810   1.333 -0.3653  0.2470 -1.4601
   35MOL    C27 8255   7.510   4.840   1.190  1.0093 -0.0807 -1.1656
   35MOL    C28 8256   7.547   4.718   1.102 -0.4807 -0.0493  0.2053
   35MOL    C29 8257   7.355   4.850   1.195  0.1612  0.2004  0.3306
   35MOL    O30 8258   7.279   4.810   1.106 -0.1256 -0.6771 -0.3657
   35MOL    O31 8259   7.314   4.929   1.299  0.2619 -0.0166 -0.4633
   35MOL    H32 8260   7.582   4.906   1.384  0.6944  0.2428 -1.3313
   35MOL    H33 8261   7.691   4.799   1.302 -0.5040 -0.4939 -1.6833
   35MOL    H34 8262   7.649   4.684   1.121 -0.9290 -2.6569 -1.7217
   35MOL    H35 8263   7.536   4.746   0.998 -1.4278 -0.2559  0.2449
   35MOL    H36 8264   7.476   4.636   1.119 -0.0974 -0.1318  1.4657
   35MOL    H37 8265   7.223   4.951   1.283  0.2654 -1.2860 -2.3728
   35MOL    C38 8266   7.569   4.960   1.103  0.1066  0.0508 -0.2090
   35MOL    C39 8267   7.568   5.110   1.139 -0.5106  0.0470 -0.1683
   35MOL    C40 8268   7.602   5.132   1.288  0.1938 -0.1546 -0.1606
   35MOL    C41 8269   7.676   5.174   1.051 -0.4543 -0.7872 -0.0255
   35MOL    O42 8270   0.019   5.200   1.092 -0.5336  0.2222 -0.4912
   35MOL    O43 8271   7.651   5.176   0.917  0.2461 -0.3275 -0.1895
   35MOL    H44 8272   7.672   4.937   1.074  0.0050 -1.4160  0.5383
   35MOL    H45 8273   7.525   4.946   1.004 -0.9581  0.8938  0.1462
   35MOL    H46 8274   7.616   5.239   1.308  1.8391 -0.5951  1.1211
   35MOL    H47 8275   7.694   5.081   1.315  0.8032  1.1267  0.2585
   35MOL    H48 8276   7.513   5.109   1.347 -0.4917  0.8130 -0.7869
   35MOL    H49 8277   7.735   5.206   0.884  0.7180 -2.7499 -1.2996
   35MOL    C50 8278   7.425   5.164   1.100  0.3621 -0.6780 -1.5976
   35MOL    C51 8279   7.341   5.281   1.172 -0.1926 -0.0276 -0.6873
   35MOL    C52 8280   7.285   5.252   1.320  0.1105 -0.3980  0.3613
   35MOL    C53 8281   7.434   5.406   1.174 -0.2651 -0.2742  0.1508
   35MOL    O54 8282   7.533   5.422   1.101 -0.1122  0.0619  0.1339
   35MOL    O55 8283   7.392   5.502   1.261  0.2799  0.2036 -0.3823
   35MOL    H56 8284   7.421   5.197   0.996 -2.2609 -1.1861 -1.6983
   35MOL    H57 8285   7.363   5.074   1.102  1.5747 -1.5072  0.4640
   35MOL    H58 8286   7.242   5.154   1.343  0.2233 -0.7367 -0.8513
   35MOL    H59 8287   7.205   5.320   1.348  0.7645 -0.0983  1.5618
   35MOL    H60 8288   7.373   5.267   1.384 -0.9377 -1.8897  2.2241
   35MOL    H61 8289   7.303   5.474   1.278  1.0763 -1.7430  0.6316
   35MOL    C62 8290   7.232   5.325   1.074  0.1917  0.3862  0.7133
   35MOL    C63 8291   7.105   5.238   1.035  0.7154 -0.5125 -0.4283
   35MOL    C64 8292   7.148   5.115   0.949  0.2492 -0.2290 -0.0336
   35MOL    C65 8293   7.037   5.178   1.163  0.1447 -0.2816 -0.6033
   35MOL    O66 8294   7.062   5.065   1.202 -0.4342  0.0707 -0.4568
   35MOL    O67 8295   6.959   5.266   1.234  0.0802 -0.1163  0.3313
   35MOL    H68 8296   7.182   5.408   1.124  0.5106  0.9740  0.0698
   35MOL    H69 8297   7.276   5.363   0.982  0.0595  0.4641  0.6812
   35MOL    H70 8298   7.065   5.064   0.901  2.8307 -3.8926 -0.8605
   35MOL    H71 8299   7.190   5.031   1.004  0.4113  0.2247  0.5384
   35MOL    H72 8300   7.230   5.127   0.877  1.2036 -0.3287  1.0254
   35MOL    H73 8301   6.939   5.223   1.315 -2.9537  1.5396  0.5279
   35MOL    C74 8302   6.989   5.310   0.958 -0.0329  0.2614 -0.2439
   35MOL    C75 8303   7.018   5.404   0.839 -0.4836 -0.3182 -0.9287
   35MOL    C76 8304   6.889   5.411   0.753 -0.0296  0.6859  0.6207
   35MOL    C77 8305   7.041   5.541   0.903 -0.2854 -0.0072  0.6760
   35MOL    O78 8306   6.944   5.606   0.952  0.6579  0.4385  0.1461
   35MOL    O79 8307   7.169   5.578   0.913 -0.7548 -0.1032  0.2806
   35MOL    H80 8308   6.927   5.232   0.917  2.2834 -1.0715 -1.3285
   35MOL    H81 8309   6.915   5.361   1.020 -0.3752 -0.3699 -0.1291
   35MOL    H82 8310   6.873   5.323   0.690  0.3502 -1.0602  2.9061
   35MOL    H83 8311   6.879   5.503   0.696 -0.8407 -0.9925 -2.0511
   35MOL    H84 8312   6.812   5.425   0.829 -0.6430 -0.0229  0.1318
   35MOL    H85 8313   7.169   5.670   0.934  0.2292  0.5077 -2.2369
   35MOL    C86 8314   7.132   5.343   0.748  0.6797 -0.3780  0.6817
   35MOL    C87 8315   7.180   5.407   0.606 -0.5965 -0.1477 -0.2577
   35MOL    C88 8316   7.301   5.317   0.567 -0.7736  0.1062  0.4532
   35MOL    C89 8317   7.072   5.381   0.499  0.3198  0.3273  0.3968
   35MOL    O90 8318   7.015   5.470   0.438 -0.2307  0.0788  0.0451
   35MOL    O91 8319   7.050   5.247   0.481  0.0067  0.2841  0.3477
   35MOL    H92 8320   7.229   5.332   0.798  0.5467  1.8950  1.4922
   35MOL    H93 8321   7.102   5.239   0.735  0.4087 -0.2678  0.4193
   35MOL    H94 8322   7.280   5.210   0.572  0.8533 -0.2803 -0.5228
   35MOL    H95 8323   7.391   5.338   0.625 -0.8898 -0.9981  1.0594
   35MOL    H96 8324   7.344   5.325   0.467 -1.3051 -1.7373  0.0457
   35MOL    H97 8325   6.998   5.221   0.406 -0.0555  1.4673 -0.0283
   35MOL    C98 8326   7.224   5.558   0.624  0.1261 -0.3097  0.4847
   35MOL    C99 8327   7.303   5.647   0.521 -0.0908 -0.0217 -0.1880
   35MOL   C100 8328   7.277   5.604   0.377  0.1067 -0.0095  0.7343
   35MOL   C101 8329   7.244   5.791   0.519 -0.6795 -0.2942 -0.2378
   35MOL   O102 8330   7.140   5.820   0.578  0.2465 -0.0769 -0.1483
   35MOL   O103 8331   7.318   5.884   0.452  0.0576 -0.1808 -0.4080
   35MOL   H104 8332   7.126   5.594   0.654 -1.2534 -3.1551 -0.4205
   35MOL   H105 8333   7.287   5.565   0.712  0.5235  0.8628  0.1214
   35MOL   H106 8334   7.270   5.497   0.360 -1.2120  0.3334 -0.9766
   35MOL   H107 8335   7.350   5.648   0.309 -1.1855 -0.7353 -1.1508
   35MOL   H108 8336   7.183   5.645   0.342  0.5121  0.0527 -0.2869
   35MOL   H109 8337   7.266   5.962   0.458 -1.5752 -1.4098  2.7327
   35MOL   C110 8338   7.459   5.659   0.546  0.4037  0.5785 -0.3362
   35MOL   C111 8339   7.537   5.704   0.674 -0.8841 -0.2031  0.6898
   35MOL   C112 8340   7.477   5.836   0.726  0.3929  0.3083  0.6698
   35MOL   C113 8341   7.541   5.596   0.786  1.0163 -0.1338 -0.4132
   35MOL   O114 8342   7.574   5.477   0.774 -0.0331 -0.4646 -0.1655
   35MOL   O115 8343   7.509   5.645   0.909  0.0700 -0.0847 -0.2091
   35MOL   H116 8344   7.483   5.553   0.536 -0.2971  0.3059  0.7286
   35MOL   H117 8345   7.512   5.711   0.467  2.6819  3.1018  2.7304
   35MOL   H118 8346   7.494   5.918   0.656 -0.7066 -0.3921 -0.4307
   35MOL   H119 8347   7.510   5.872   0.824 -0.8499  0.0557  1.1839
   35MOL   H120 8348   7.369   5.824   0.733  0.5217 -3.1545 -1.7784
   35MOL   H121 8349   7.545   5.581   0.969 -2.2581  0.3511  1.7654
   35MOL   C122 8350   7.689   5.745   0.637 -0.1094 -0.4281 -0.5282
   35MOL   C123 8351   0.042   5.663   0.561  0.7099  0.2636 -0.0273
   35MOL   C124 8352   0.009   5.647   0.418  0.3014  0.1240  0.4684
   35MOL   C125 8353   0.166   5.759   0.568  0.1695  0.2197 -0.1473
   35MOL   O126 8354   0.227   5.810   0.474  0.4478  0.4714 -0.4195
   35MOL   O127 8355   0.210   5.765   0.700 -0.1297  0.3604 -0.8022
   35MOL   H128 8356   7.693   5.840   0.584 -0.2471  1.2678  2.3884
   35MOL   H129 8357   7.733   5.778   0.731 -0.0053  0.6087 -0.9362
   35MOL   H130 8358   0.088   5.592   0.367  0.0987  0.7328 -0.5210
   35MOL   H131 8359   0.000   5.746   0.373 -1.2800 -1.3784 -2.6716
   35MOL   H132 8360   7.689   5.582   0.411  0.3529 -0.4690  4.2258
   35MOL   H133 8361   0.282   5.826   0.710  1.0392 -1.1900  0.5079
   35MOL   C134 8362   0.066   5.515   0.615 -0.6237 -0.1387 -0.3813
   35MOL   C135 8363   0.180   5.409   0.584  0.5006 -0.0317 -0.6349
   35MOL   C136 8364   0.310   5.487   0.555 -0.0127 -0.1582  0.8203
   35MOL   C137 8365   0.204   5.327   0.712  0.1757 -0.2718  0.8451
   35MOL   O138 8366   0.118   5.304   0.798 -0.1104 -0.0297 -0.6098
   35MOL   O139 8367   0.321   5.264   0.700 -0.1244 -0.0287  0.4301
   35MOL   H140 8368   0.069   5.548   0.719 -2.1289 -0.0054 -0.3692
   35MOL   H141 8369   7.735   5.468   0.624 -0.2946 -0.8341 -0.4384
   35MOL   H142 8370   0.393   5.417   0.553 -1.2698 -1.6610 -0.8687
   35MOL   H143 8371   0.332   5.558   0.634  0.1241 -0.3606  0.9644
   35MOL   H144 8372   0.298   5.550   0.466  1.6072  0.6133  1.1392
   35MOL   H145 8373   0.334   5.208   0.776 -1.0147  1.6212  1.8225
   35MOL   C146 8374   0.145   5.316   0.462 -0.3017  0.1664 -0.1849
   35MOL   C147 8375   0.048   5.195   0.460  0.1430  0.2637 -0.0739
   35MOL   C148 8376   0.108   5.079   0.548  0.3327 -0.3932 -0.2559
   35MOL   C149 8377   7.674   5.233   0.511 -0.0678  0.1131 -0.4560
   35MOL   O150 8378   7.613   5.324   0.459  0.0284 -0.7255 -0.2232
   35MOL   O151 8379   7.634   5.159   0.616  0.5243  0.3676 -0.0030
   35MOL   H152 8380   0.107   5.382   0.384 -0.9755 -0.4827 -0.4128
   35MOL   H153 8381   0.237   5.269   0.429  1.1420  2.4899  0.4003
   35MOL   H154 8382   0.074   4.985   0.505 -1.3796 -0.2949  0.8290
   35MOL   H155 8383   0.091   5.077   0.656 -1.6875  0.9661 -0.5197
   35MOL   H156 8384   0.214   5.058   0.531  0.2097 -0.3899 -1.0678
   35MOL   H157 8385   7.550   5.185   0.650 -0.0006  0.2279 -1.1682
   35MOL   C158 8386   0.055   5.135   0.307 -0.0186  0.2813 -0.5233
   35MOL   C159 8387   7.694   5.073   0.230 -0.5906  0.9640 -0.1228
   35MOL   C160 8388   7.637   4.959   0.312  0.5009 -0.3628  0.3998
   35MOL   C161 8389   7.585   5.179   0.216 -1.6002 -0.3579  0.3751
   35MOL   O162 8390   7.475   5.172   0.267 -0.0172  0.2002  0.2399
   35MOL   O163 8391   7.632   5.279   0.138  0.0529  0.0545 -0.1203
   35MOL   H164 8392   0.082   5.222   0.247  0.1327 -0.1252 -1.0574
   35MOL   H165 8393   0.143   5.070   0.310 -1.2534 -1.3855 -0.0655
   35MOL   H166 8394   7.551   4.909   0.268  1.7255 -0.1132 -2.3731
   35MOL   H167 8395   7.601   4.979   0.413 -1.0693  1.7971 -0.5592
   35MOL   H168 8396   7.711   4.880   0.329  0.4311  0.0626  2.9501
   35MOL   H169 8397   7.573   5.351   0.121 -1.3746 -0.9189  0.5555
   35MOL   C170 8398   7.746   5.019   0.091 -0.3231  0.4584  0.4817
   35MOL   C171 8399   7.670   4.937   7.745 -0.0562  0.0892  0.0442
   35MOL   C172 8400   7.531   4.971   7.724 -0.3331 -0.3330  0.5336
   35MOL   C173 8401   7.752   4.974   7.616  0.2615 -0.4740 -0.4983
   35MOL   O174 8402   7.703   5.012   7.508  0.4337 -0.0793  0.1112
   35MOL   O175 8403   0.119   4.961   7.632  0.8275 -0.1323  0.2281
   35MOL   H176 8404   0.024   5.111   0.054 -0.3940  0.0482 -0.6526
   35MOL   H177 8405   0.074   4.969   0.108  0.1954  1.6136  1.0211
   35MOL   H178 8406   7.492   4.926   7.633 -1.0078  0.9098  0.1957
   35MOL   H179 8407   7.518   5.075   7.693  1.7900 -0.0295  0.5803
   35MOL   H180 8408   7.467   4.949   0.042 -0.2696 -0.5719  0.5207
   35MOL   H181 8409   0.171   5.006   7.567  0.4277  0.4141  0.2866
   35MOL   C182 8410   7.693   4.787   0.017  0.0448  0.0248 -0.3052
   35MOL   C183 8411   7.609   4.663   7.728  0.7123  0.1027 -0.2705
   35MOL   C184 8412   7.473   4.654   0.037 -0.0904  0.6825  0.4818
   35MOL   C185 8413   7.591   4.675   7.574 -0.0166 -0.5975 -0.1468
   35MOL   O186 8414   7.476   4.665   7.520  0.2006 -0.1792  0.7302
   35MOL   O187 8415   7.713   4.686   7.507 -0.1637  0.0853 -0.5000
   35MOL   H188 8416   0.025   4.761   7.748  1.1604  1.4734  1.5843
   35MOL   H189 8417   7.700   4.785   0.126 -0.7732  1.0104 -0.2288
   35MOL   H190 8418   7.416   4.561   0.040 -0.5783  1.0025  4.0259
   35MOL   H191 8419   7.404   4.730   0.000 -0.7667  0.2982  0.9349
   35MOL   H192 8420   7.478   4.684   0.142 -2.0908  3.5629 -0.2019
   35MOL   H193 8421   7.714   4.695   7.413  1.7773 -0.0529 -0.5055
   35MOL   C194 8422   7.678   4.528   0.005 -0.7717  1.1619 -0.2102
   35MOL   C195 8423   7.665   4.389   7.699  0.0403  0.4150  0.3109
   35MOL   C196 8424   7.731   4.386   7.555  0.2484 -0.9003  0.1146
   35MOL   C197 8425   7.753   4.291   0.027  0.6079  0.0804  0.2023
   35MOL   O198 8426   0.088   4.239   7.764 -0.1309  0.4063 -0.5575
   35MOL   O199 8427   7.706   4.283   0.153 -0.4477  0.2399  0.5158
   35MOL   H200 8428   0.018   4.541   0.012 -0.6820  0.4491 -0.2164
   35MOL   H201 8429   7.651   4.515   0.110  1.2972 -1.7788  0.0356
   35MOL   H202 8430   7.673   4.422   7.470 -0.0409 -2.9346 -0.5573
   35MOL   H203 8431   0.002   4.289   7.524  1.7679  0.3683 -2.1173
   35MOL   H204 8432   0.057   4.442   7.543 -0.4789  0.0004 -1.5637
   35MOL   H205 8433   7.767   4.232   0.204  0.8304 -2.7712 -3.7028
   35MOL   C206 8434   7.511   4.351   7.682 -0.5040 -0.7560 -0.2820
   35MOL   C207 8435   7.455   4.223   7.615 -0.3311 -0.0599 -0.0373
   35MOL   C208 8436   7.493   4.220   7.457  0.1423  0.5897  0.0133
   35MOL   C209 8437   7.502   4.097   7.701 -0.0176 -0.7585  0.1711
   35MOL   O210 8438   7.561   4.003   7.656  0.1528  0.1699  0.8871
   35MOL   O211 8439   7.454   4.097   0.057  0.1573  0.8438  0.2692
   35MOL   H212 8440   7.469   4.351   0.015 -0.2407 -1.7654 -0.1636
   35MOL   H213 8441   7.478   4.436   7.622  2.1509 -0.3415 -1.2330
   35MOL   H214 8442   7.450   4.311   7.416  0.1773  1.1286  1.1489
   35MOL   H215 8443   7.456   4.126   7.414 -2.2345  0.0985  2.9501
   35MOL   H216 8444   7.600   4.222   7.437  0.1676  1.4798  0.2333
   35MOL   H217 8445   7.462   4.013   0.099  1.1981 -0.3209 -2.1912
   35MOL   C218 8446   7.295   4.243   7.630 -0.1181 -0.1430 -0.7182
   35MOL   C219 8447   7.187   4.146   7.578  0.4400 -0.3601  0.1775
   35MOL   C220 8448   7.229   3.999   7.590  0.4167  0.0613  0.7145
   35MOL   C221 8449   7.059   4.173   7.664  0.2671  0.3289  0.2201
   35MOL   O222 8450   7.049   4.241   0.000 -0.1730  0.1441  0.2977
   35MOL   O223 8451   6.952   4.125   7.599  0.1412  0.7544 -0.4935
   35MOL   H224 8452   7.285   4.236   7.738  1.9746  0.7092 -0.4359
   35MOL   H225 8453   7.269   4.344   7.599 -0.4606  0.3498  1.1403
   35MOL   H226 8454   7.243   3.974   7.695 -2.2046 -1.4296  0.7559
   35MOL   H227 8455   7.320   3.975   7.535 -0.1887 -2.2428  0.6736
   35MOL   H228 8456   7.147   3.934   7.558  0.7422 -0.1433  0.2848
   35MOL   H229 8457   6.878   4.145   7.655 -0.3601 -2.4211  0.0534
   35MOL   C230 8458   7.162   4.178   7.428  0.0704 -0.2599 -0.3912
   35MOL   C231 8459   7.091   4.317   7.376 -0.5774  0.1473  0.1556
   35MOL   C232 8460   7.187   4.426   7.323  0.0357  0.4109  0.4432
   35MOL   C233 8461   6.973   4.301   7.271 -0.0734 -0.9705 -0.6859
   35MOL   O234 8462   6.957   4.197   7.206 -0.1801  0.5561  0.0994
   35MOL   O235 8463   6.894   4.412   7.270  0.1496  0.4776  0.0940
   35MOL   H236 8464   7.243   4.141   7.366 -1.1129 -3.1215 -0.3177
   35MOL   H237 8465   7.086   4.105   7.399 -1.0337  0.7317 -0.0370
   35MOL   H238 8466   7.145   4.526   7.336  0.7667  0.9807 -1.4464
   35MOL   H239 8467   7.222   4.402   7.222 -0.0705  0.0491  0.4899
   35MOL   H240 8468   7.271   4.417   7.392 -1.6911 -0.4588  2.4699
   35MOL   H241 8469   6.815   4.404   7.218 -0.1799 -0.3963  0.7095
   35MOL   H242 8470   7.038   4.346   7.466 -0.9365 -1.2954  0.4117
   36MOL     C1 8471   4.174   7.253   7.349 -0.4968  0.2188 -0.2129
   36MOL     C2 8472   4.241   7.118   7.363 -0.3861  0.2062 -0.9287
   36MOL     C3 8473   4.210   7.063   7.503  0.6524  0.8761 -0.1940
   36MOL     C4 8474   4.183   7.015   7.269 -0.4090 -0.4000 -0.1142
   36MOL     O5 8475   4.084   7.040   7.198 -0.5090  0.6018 -0.5697
   36MOL     O6 8476   4.234   6.889   7.285 -0.0949 -0.2363 -0.2370
   36MOL     H7 8477   4.177   7.287   7.245 -0.2886  0.7634 -0.0273
   36MOL     H8 8478   4.229   7.336   7.393 -2.4429  1.2060  0.3879
   36MOL     H9 8479   4.105   7.036   7.518  0.9280  0.7199  1.6073
   36MOL    H10 8480   4.218   7.138   7.581  1.5840  0.3186  0.2527
   36MOL    H11 8481   4.262   6.970   7.525  0.5607  1.2364  1.5791
   36MOL    H12 8482   4.208   6.826   7.220  0.8963 -0.0708 -0.8033
   36MOL    H13 8483   4.073   7.261   7.387 -1.2096 -0.1242 -1.9545
   36MOL    C14 8484   4.396   7.129   7.354  0.6859  0.6149  0.1223
   36MOL    C15 8485   4.484   7.128   7.222 -0.4488  0.1119  0.2399
   36MOL    C16 8486   4.626   7.181   7.280  0.2211 -0.4835 -0.3194
   36MOL    C17 8487   4.499   6.980   7.174  0.2528 -0.2544 -0.4453
   36MOL    O18 8488   4.430   6.925   7.084 -0.1329 -0.4512  0.8291
   36MOL    O19 8489   4.576   6.910   7.259  0.2358 -0.3555  0.1304
   36MOL    H20 8490   4.426   7.210   7.420 -1.0969  0.1002  1.6101
   36MOL    H21 8491   4.433   7.041   7.406  1.0122  0.6788 -0.0033
   36MOL    H22 8492   4.648   7.158   7.384 -0.2047  2.3396  0.4593
   36MOL    H23 8493   4.629   7.290   7.283  1.3288 -0.3707 -3.0762
   36MOL    H24 8494   4.719   7.143   7.237 -0.0881 -2.0305  0.3821
   36MOL    H25 8495   4.602   6.822   7.234 -1.5675 -1.1856  1.0985
   36MOL    C26 8496   4.418   7.224   7.115 -0.3588 -0.4556  0.3655
   36MOL    C27 8497   4.482   7.255   6.978  0.7893  0.4681  0.1583
   36MOL    C28 8498   4.404   7.372   6.917  0.3134  1.2502 -0.5843
   36MOL    C29 8499   4.626   7.298   6.999  0.1271  0.3307  0.7489
   36MOL    O30 8500   4.723   7.221   6.997 -0.0839 -0.5095  0.3018
   36MOL    O31 8501   4.640   7.428   7.026 -0.2946 -0.6624 -0.0888
   36MOL    H32 8502   4.316   7.194   7.093 -1.0654  2.0182  0.2169
   36MOL    H33 8503   4.401   7.317   7.169  0.9864 -1.2248  2.1931
   36MOL    H34 8504   4.309   7.339   6.874 -0.7539  4.2614 -0.6738
   36MOL    H35 8505   4.465   7.428   6.846  0.5365 -0.2746 -1.6028
   36MOL    H36 8506   4.373   7.439   6.997  0.7760 -0.1975  0.8307
   36MOL    H37 8507   4.731   7.455   7.020 -0.6077  0.6061  0.6879
   36MOL    C38 8508   4.471   7.134   6.879 -0.4326  0.3806 -0.6119
   36MOL    C39 8509   4.494   7.142   6.721 -0.7023  0.4355  0.8970
   36MOL    C40 8510   4.645   7.190   6.697 -0.9093 -0.4110  0.4818
   36MOL    C41 8511   4.485   6.990   6.695  0.1935  0.4531 -0.2743
   36MOL    O42 8512   4.582   6.926   6.661  0.8716  0.0164  0.5420
   36MOL    O43 8513   4.361   6.941   6.711  0.1973 -0.7771 -0.1227
   36MOL    H44 8514   4.541   7.063   6.922 -1.5366 -0.5837 -0.3836
   36MOL    H45 8515   4.370   7.097   6.892  0.0747 -0.1936  1.9099
   36MOL    H46 8516   4.676   7.174   6.594 -0.7508 -2.5378  0.8526
   36MOL    H47 8517   4.719   7.139   6.759 -1.1867  0.1461  1.2758
   36MOL    H48 8518   4.662   7.293   6.728 -2.4394 -0.2437  0.7950
   36MOL    H49 8519   4.361   6.846   6.709  1.3631 -0.8639  2.1316
   36MOL    C50 8520   4.388   7.218   6.647  0.3041 -0.1262  0.6906
   36MOL    C51 8521   4.389   7.242   6.484 -0.3820  0.8242 -0.3096
   36MOL    C52 8522   4.428   7.115   6.410 -0.7652  0.4328  0.0019
   36MOL    C53 8523   4.243   7.276   6.442 -0.1374  0.0864 -0.0388
   36MOL    O54 8524   4.162   7.330   6.515 -0.1640 -0.1238 -0.6096
   36MOL    O55 8525   4.202   7.224   6.325  0.5063  0.0895 -0.3837
   36MOL    H56 8526   4.291   7.183   6.681 -0.3678  1.3124  0.2999
   36MOL    H57 8527   4.392   7.323   6.677 -0.0071  1.1437 -3.3132
   36MOL    H58 8528   4.366   7.029   6.432 -1.5543  0.7627 -0.8848
   36MOL    H59 8529   4.531   7.088   6.434 -0.7576 -0.4841 -1.0039
   36MOL    H60 8530   4.436   7.122   6.301  1.4166  0.4931  0.1502
   36MOL    H61 8531   4.117   7.261   6.308  0.8617  0.2919 -1.8601
   36MOL    C62 8532   4.479   7.367   6.455  0.6070  0.4532 -0.0896
   36MOL    C63 8533   4.545   7.394   6.309 -0.1738  0.4756 -0.2043
   36MOL    C64 8534   4.439   7.378   6.205 -0.0467 -0.2536  0.6429
   36MOL    C65 8535   4.583   7.541   6.309 -0.2545 -0.0552  0.4048
   36MOL    O66 8536   4.548   7.625   6.222 -0.1525  0.3312 -0.2868
   36MOL    O67 8537   4.665   7.577   6.412 -0.1679 -0.0604 -0.7804
   36MOL    H68 8538   4.416   7.450   6.486  1.1134  0.2799  1.4259
   36MOL    H69 8539   4.551   7.382   6.535 -1.5090 -1.0953  2.1788
   36MOL    H70 8540   4.402   7.279   6.179 -0.3561 -0.7008  2.7213
   36MOL    H71 8541   4.465   7.400   6.101 -2.6912 -2.3378 -0.5391
   36MOL    H72 8542   4.355   7.443   6.231  0.5310  1.0079 -0.6166
   36MOL    H73 8543   4.710   7.502   6.446  0.0100  0.5411  0.3240
   36MOL    C74 8544   4.667   7.294   6.282 -0.3846  0.2258 -0.0991
   36MOL    C75 8545   4.804   7.325   6.208  0.3284  0.3837  0.0421
   36MOL    C76 8546   4.781   7.407   6.080 -0.1304 -0.1668  0.1412
   36MOL    C77 8547   4.909   7.401   6.293  0.1104 -1.0127  0.3379
   36MOL    O78 8548   4.893   7.418   6.414  0.2529  0.1894  0.6953
   36MOL    O79 8549   5.014   7.459   6.228 -0.3479  0.0269 -0.5122
   36MOL    H80 8550   4.698   7.259   6.380  1.2969 -2.0504 -1.4108
   36MOL    H81 8551   4.619   7.213   6.227 -1.9945  0.6172  0.6941
   36MOL    H82 8552   4.700   7.376   6.014  1.4387 -2.3437 -0.8483
   36MOL    H83 8553   4.867   7.433   6.018  0.3896 -1.3414  0.3518
   36MOL    H84 8554   4.760   7.509   6.112  0.2195 -0.1527  0.3293
   36MOL    H85 8555   5.073   7.497   6.292 -1.8022  0.3669  0.6602
   36MOL    C86 8556   4.873   7.197   6.153  0.2743  0.2993  0.3065
   36MOL    C87 8557   4.909   7.075   6.244  0.1953  0.2427 -1.1176
   36MOL    C88 8558   4.988   7.116   6.373  0.1916 -0.2709  0.5108
   36MOL    C89 8559   4.778   7.000   6.290  0.2905  0.5182  0.1750
   36MOL    O90 8560   4.678   6.993   6.225  0.5990 -0.5069  0.3510
   36MOL    O91 8561   4.802   6.927   6.400  0.2313  0.3666  0.3760
   36MOL    H92 8562   4.813   7.152   6.074 -0.8971  1.5837  0.4360
   36MOL    H93 8563   4.967   7.233   6.112 -0.3173  1.4409 -0.0742
   36MOL    H94 8564   4.921   7.165   6.443  0.5031  0.4743  0.2974
   36MOL    H95 8565   5.065   7.194   6.366  0.5902 -0.6492  0.6488
   36MOL    H96 8566   5.026   7.033   6.433 -0.4895 -0.7512  0.2848
   36MOL    H97 8567   4.730   6.866   6.408 -1.0155  1.9142  1.1278
   36MOL    C98 8568   5.005   6.971   6.170  0.1688  0.4840 -0.5658
   36MOL    C99 8569   5.116   7.008   6.059  0.1099  0.3476 -0.0177
   36MOL   C100 8570   5.061   7.047   5.915  0.5116  0.3362  0.5473
   36MOL   C101 8571   5.210   7.119   6.120  0.2164 -0.2583 -0.1879
   36MOL   O102 8572   5.262   7.100   6.229  0.9626 -0.2072 -0.3131
   36MOL   O103 8573   5.234   7.219   6.037 -0.1884 -0.7125 -0.4040
   36MOL   H104 8574   5.039   6.891   6.235  0.5937  1.3719  0.3112
   36MOL   H105 8575   4.935   6.909   6.114  0.7018 -0.6915  0.0652
   36MOL   H106 8576   4.976   7.115   5.904  2.5292  2.8002 -0.1215
   36MOL   H107 8577   5.023   6.953   5.876 -1.0738  1.8339 -1.6973
   36MOL   H108 8578   5.144   7.087   5.856 -0.5414  0.8681 -0.6049
   36MOL   H109 8579   5.309   7.264   6.072 -1.9775  1.7125  0.4714
   36MOL   C110 8580   5.192   6.873   6.047  0.0624 -0.1857 -0.4958
   36MOL   C111 8581   5.302   6.838   5.936 -0.8480  0.1302  0.2015
   36MOL   C112 8582   5.230   6.792   5.805 -0.0531  0.6176  0.0080
   36MOL   C113 8583   5.403   6.950   5.910  0.0675 -0.2429  0.5958
   36MOL   O114 8584   5.419   7.002   5.798 -0.1069  0.0448 -0.3687
   36MOL   O115 8585   5.476   6.992   6.022 -0.7653 -0.2096 -0.8427
   36MOL   H116 8586   5.228   6.839   6.144  2.9940 -1.3180 -1.9243
   36MOL   H117 8587   5.111   6.800   6.034  0.5737 -0.4428 -2.3654
   36MOL   H118 8588   5.303   6.750   5.736  0.1444 -0.8704  1.1151
   36MOL   H119 8589   5.193   6.881   5.753  0.1218  1.2110  0.8758
   36MOL   H120 8590   5.154   6.716   5.820  0.7014 -0.2915 -0.7506
   36MOL   H121 8591   5.438   6.961   6.102  1.4800  1.2605  0.8713
   36MOL   C122 8592   5.376   6.711   5.997 -0.2117  0.2327  0.0643
   36MOL   C123 8593   5.476   6.617   5.915  0.7307  0.3664  1.2701
   36MOL   C124 8594   5.569   6.696   5.822 -0.6468 -0.4429 -0.2817
   36MOL   C125 8595   5.565   6.558   6.028 -0.3320  0.5713  0.2249
   36MOL   O126 8596   5.684   6.545   6.029  0.3669 -0.4314  0.5181
   36MOL   O127 8597   5.496   6.508   6.128 -0.6221 -0.3720  0.3332
   36MOL   H128 8598   5.435   6.742   6.083 -0.1766  1.1236 -0.2713
   36MOL   H129 8599   5.300   6.649   6.043 -1.5827  1.9293  0.1553
   36MOL   H130 8600   5.658   6.640   5.794 -0.6493  0.0883 -1.3923
   36MOL   H131 8601   5.617   6.771   5.885  1.2272  0.7737 -3.0477
   36MOL   H132 8602   5.532   6.751   5.735 -0.1503  1.7783  0.8820
   36MOL   H133 8603   5.558   6.471   6.189  2.3391  1.9142 -1.1802
   36MOL   C134 8604   5.387   6.490   5.859 -0.2895 -0.1688 -0.6032
   36MOL   C135 8605   5.437   6.389   5.744  0.5714  0.0329 -0.5891
   36MOL   C136 8606   5.314   6.288   5.732 -0.3695 -0.5173 -0.5050
   36MOL   C137 8607   5.444   6.466   5.612 -0.1643  0.1271  0.3171
   36MOL   O138 8608   5.550   6.500   5.559  0.2983 -0.2056  0.3782
   36MOL   O139 8609   5.318   6.503   5.570  0.3244  0.0836 -0.0904
   36MOL   H140 8610   5.377   6.425   5.946 -1.6376 -0.4383 -0.9344
   36MOL   H141 8611   5.285   6.520   5.834  0.1509  2.3048  0.4505
   36MOL   H142 8612   5.219   6.338   5.712  0.9893  1.6130 -1.8267
   36MOL   H143 8613   5.292   6.248   5.831 -2.2378  1.5256 -0.0411
   36MOL   H144 8614   5.317   6.217   5.650  2.7790 -2.6041  1.3325
   36MOL   H145 8615   5.316   6.548   5.487 -0.7586  0.4712  0.1414
   36MOL   C146 8616   5.570   6.329   5.793  0.1029  1.0799 -0.0247
   36MOL   C147 8617   5.632   6.201   5.732 -0.4666  0.8268  0.0473
   36MOL   C148 8618   5.770   6.205   5.800  0.4431  0.6216 -0.3499
   36MOL   C149 8619   5.556   6.072   5.776 -0.3742 -0.0291  0.3056
   36MOL   O150 8620   5.477   6.014   5.698 -0.0246  0.4661 -0.0769
   36MOL   O151 8621   5.566   6.038   5.913 -0.5767  0.0485 -0.5758
   36MOL   H152 8622   5.641   6.411   5.798  1.3669 -0.1467  3.9598
   36MOL   H153 8623   5.570   6.307   5.900 -0.0166 -1.2479 -0.4787
   36MOL   H154 8624   5.847   6.129   5.786 -0.5431 -0.2234 -1.2478
   36MOL   H155 8625   5.773   6.207   5.909  0.7859 -1.9171 -0.2821
   36MOL   H156 8626   5.822   6.298   5.779  1.1949 -0.1822 -2.1489
   36MOL   H157 8627   5.506   5.966   5.920 -1.0359  0.0449 -3.7553
   36MOL   C158 8628   5.667   6.206   5.579  0.0784  0.3984 -0.1979
   36MOL   C159 8629   5.764   6.108   5.504 -0.0956 -0.6976  0.3867
   36MOL   C160 8630   5.781   5.971   5.567  0.2714  0.3367  0.1446
   36MOL   C161 8631   5.709   6.084   5.359  0.8452  0.4464  0.2709
   36MOL   O162 8632   5.642   6.165   5.302  0.7772 -0.6072 -0.1179
   36MOL   O163 8633   5.745   5.959   5.304 -0.2606  0.1296 -0.5388
   36MOL   H164 8634   5.572   6.206   5.526  0.2951  1.6166 -0.6015
   36MOL   H165 8635   5.709   6.306   5.569 -1.1566  1.0387  0.9427
   36MOL   H166 8636   5.843   5.901   5.510  0.1901  1.0467 -0.8205
   36MOL   H167 8637   5.678   5.938   5.569  0.5856 -0.6646  0.2200
   36MOL   H168 8638   5.810   5.961   5.672  1.0936 -0.2920 -0.1286
   36MOL   H169 8639   5.708   5.948   5.218 -2.0745  1.2217  0.0792
   36MOL   C170 8640   5.918   6.158   5.491 -0.6938  0.5956  0.5496
   36MOL   C171 8641   5.960   6.306   5.467 -0.2286 -0.6707 -0.2773
   36MOL   C172 8642   5.862   6.368   5.361 -0.0562  0.6785 -0.1528
   36MOL   C173 8643   5.965   6.385   5.602 -0.0218 -0.5315  0.8328
   36MOL   O174 8644   6.036   6.350   5.698 -0.3342  0.6698 -0.0971
   36MOL   O175 8645   5.901   6.506   5.606  0.0023 -0.0560 -0.9687
   36MOL   H176 8646   5.980   6.119   5.572  0.3912  2.9677  0.9133
   36MOL   H177 8647   5.957   6.097   5.410 -0.5015 -0.3171  1.3147
   36MOL   H178 8648   5.867   6.311   5.269 -1.6998  0.4664 -0.1249
   36MOL   H179 8649   5.873   6.474   5.336 -2.0118  1.0014  0.2783
   36MOL   H180 8650   5.756   6.369   5.387 -0.0665  1.0685 -0.1964
   36MOL   H181 8651   5.907   6.542   5.693 -0.6174  0.6333 -1.2048
   36MOL   C182 8652   6.109   6.304   5.415  0.1111  0.3805 -0.4334
   36MOL   C183 8653   6.187   6.429   5.357  0.1095 -0.0591  0.1380
   36MOL   C184 8654   6.104   6.549   5.301  0.1328 -0.3481  0.4826
   36MOL   C185 8655   6.273   6.490   5.473 -0.2398 -0.4842 -0.7422
   36MOL   O186 8656   6.267   6.608   5.502  0.1870  0.3249 -0.4015
   36MOL   O187 8657   6.359   6.407   5.536  0.6251  0.4844 -0.0118
   36MOL   H188 8658   6.169   6.261   5.495 -1.3981 -0.8760  0.0416
   36MOL   H189 8659   6.120   6.217   5.351  0.8417  0.2524 -0.1417
   36MOL   H190 8660   6.161   6.638   5.274  1.2437 -0.9685  0.7318
   36MOL   H191 8661   6.030   6.586   5.372 -0.5690 -1.2392  0.2239
   36MOL   H192 8662   6.055   6.516   5.210 -0.1341  0.6566  0.2603
   36MOL   H193 8663   6.403   6.455   5.605  0.2720  1.8590 -0.7264
   36MOL   C194 8664   6.291   6.380   5.255  0.1149  0.5185  0.3494
   36MOL   C195 8665   6.259   6.362   5.097  0.1308  0.7207  0.2921
   36MOL   C196 8666   6.134   6.274   5.085  0.1788  0.0394  0.8887
   36MOL   C197 8667   6.237   6.497   5.029  0.2597 -0.6454 -0.6394
   36MOL   O198 8668   6.141   6.527   4.956 -0.2883 -0.5147 -0.1866
   36MOL   O199 8669   6.329   6.595   5.064 -0.2254 -0.4378 -0.1176
   36MOL   H200 8670   6.378   6.446   5.258 -1.4457  2.6484 -0.8402
   36MOL   H201 8671   6.338   6.289   5.294  2.0705 -0.6382 -4.3286
   36MOL   H202 8672   6.156   6.180   5.136  0.7476 -1.2227 -1.6139
   36MOL   H203 8673   6.105   6.251   4.982 -0.9166  5.1942 -0.1007
   36MOL   H204 8674   6.041   6.316   5.124  0.1973 -0.9566  2.0340
   36MOL   H205 8675   6.298   6.678   5.032  1.1793  0.0212 -0.3304
   36MOL   C206 8676   6.380   6.277   5.040 -0.4382  0.5180  0.0819
   36MOL   C207 8677   6.423   6.256   4.888  0.1109 -0.5622  0.5874
   36MOL   C208 8678   6.532   6.150   4.900 -0.7379 -0.6330  0.4050
   36MOL   C209 8679   6.310   6.204   4.795 -0.2695  0.0727 -0.8059
   36MOL   O210 8680   6.232   6.276   4.740 -0.3883  0.6263 -0.3213
   36MOL   O211 8681   6.308   6.072   4.798  0.5522 -0.5717 -0.1876
   36MOL   H212 8682   6.471   6.318   5.083 -0.8845  0.6703  0.9012
   36MOL   H213 8683   6.375   6.182   5.093  0.9408  1.0848  1.2682
   36MOL   H214 8684   6.556   6.111   4.801 -1.3694 -0.4296  0.1616
   36MOL   H215 8685   6.509   6.065   4.963 -2.2330 -1.0251 -0.6438
   36MOL   H216 8686   6.623   6.203   4.927 -0.4632 -0.3695 -0.9918
   36MOL   H217 8687   6.241   6.039   4.740 -0.5683 -1.0539  1.3500
   36MOL   C218 8688   6.470   6.394   4.831 -0.2649  0.2688  0.3711
   36MOL   C219 8689   6.568   6.408   4.711  0.2751 -0.0778 -0.3221
   36MOL   C220 8690   6.708   6.347   4.728  0.9444  0.0639  0.2118
   36MOL   C221 8691   6.505   6.342   4.584  0.4336  0.7454  0.3739
   36MOL   O222 8692   6.539   6.229   4.545 -0.4579  0.9710  0.0001
   36MOL   O223 8693   6.396   6.418   4.541  0.5342  0.0962 -0.1251
   36MOL   H224 8694   6.386   6.461   4.813  2.9940  4.0586 -1.4426
   36MOL   H225 8695   6.517   6.446   4.915 -2.2867  1.2051  0.9551
   36MOL   H226 8696   6.717   6.239   4.715 -2.9587 -0.1901 -0.7441
   36MOL   H227 8697   6.732   6.364   4.833  0.4751 -0.2564  0.3724
   36MOL   H228 8698   6.781   6.403   4.669  0.1191  0.5760 -0.3236
   36MOL   H229 8699   6.339   6.381   4.476 -0.3684  0.3913  0.4769
   36MOL   C230 8700   6.582   6.563   4.668  0.2205  0.1393  0.5675
   36MOL   C231 8701   6.699   6.651   4.718  0.2137 -0.0593  0.2468
   36MOL   C232 8702   6.701   6.794   4.657  0.8378 -0.0005 -0.2256
   36MOL   C233 8703   6.705   6.665   4.871 -0.2620  0.2771  0.0319
   36MOL   O234 8704   6.805   6.645   4.939 -0.0998 -0.8519  0.1243
   36MOL   O235 8705   6.589   6.704   4.926  0.1557 -0.4905  0.0108
   36MOL   H236 8706   6.592   6.565   4.560 -0.6779 -1.0393  0.4423
   36MOL   H237 8707   6.487   6.614   4.686 -1.4394 -2.6966  0.1524
   36MOL   H238 8708   6.606   6.845   4.669  0.7677 -0.0337 -0.6308
   36MOL   H239 8709   6.710   6.777   4.549  1.6788  1.1331 -0.3385
   36MOL   H240 8710   6.789   6.848   4.692  0.5722  0.0548  0.3547
   36MOL   H241 8711   6.524   6.712   4.858  0.3923 -0.3363 -0.1949
   36MOL   H242 8712   6.792   6.607   4.682 -0.1113 -1.8603  1.5502
   37MOL     C1 8713   1.058   2.634   5.662  0.6169 -0.1183  0.1938
   37MOL     C2 8714   1.136   2.769   5.670  0.4701 -0.2646  0.3481
   37MOL     C3 8715   1.214   2.753   5.799  0.7657  0.1439 -0.0384
   37MOL     C4 8716   1.253   2.768   5.562 -0.8539 -0.1832  0.0180
   37MOL     O5 8717   1.368   2.805   5.578 -0.3736 -0.2455  0.1010
   37MOL     O6 8718   1.213   2.708   5.446  0.0430 -0.1360 -0.1270
   37MOL     H7 8719   0.990   2.638   5.747 -1.4569  3.9204 -1.5082
   37MOL     H8 8720   1.119   2.544   5.659  0.4880 -0.1530 -2.1641
   37MOL     H9 8721   1.279   2.837   5.822 -0.3241  0.6326  1.3177
   37MOL    H10 8722   1.281   2.667   5.798  0.0475 -0.4309  0.6527
   37MOL    H11 8723   1.149   2.742   5.885 -0.5548 -2.2560 -1.2798
   37MOL    H12 8724   1.280   2.721   5.381  2.1925 -0.4664  1.9439
   37MOL    H13 8725   0.996   2.633   5.573 -0.0668 -1.5267  0.6756
   37MOL    C14 8726   1.042   2.891   5.659 -0.6387 -0.6402 -0.7028
   37MOL    C15 8727   1.059   3.036   5.722  0.8120 -0.0979  0.4798
   37MOL    C16 8728   1.008   3.019   5.875  0.3445  0.7601 -0.2889
   37MOL    C17 8729   1.203   3.086   5.726  0.2111 -0.0909  0.1255
   37MOL    O18 8730   1.264   3.116   5.829  0.3273 -0.0958 -0.7762
   37MOL    O19 8731   1.264   3.096   5.604 -0.0985  0.3671 -0.6001
   37MOL    H20 8732   1.021   2.904   5.552  1.7139  1.8098 -0.8958
   37MOL    H21 8733   0.946   2.852   5.695  0.0849 -1.5887  0.2379
   37MOL    H22 8734   1.031   3.114   5.922  0.5029  1.4918 -1.7927
   37MOL    H23 8735   1.076   2.947   5.921 -1.0934 -0.5959 -0.2153
   37MOL    H24 8736   0.903   2.989   5.882  0.5739 -0.7127 -2.3289
   37MOL    H25 8737   1.357   3.110   5.605 -0.2937  1.7374  0.1368
   37MOL    C26 8738   0.962   3.140   5.647 -0.1637 -0.3007 -0.4625
   37MOL    C27 8739   0.958   3.300   5.652  0.5343 -0.0646  0.5087
   37MOL    C28 8740   0.981   3.361   5.796 -0.3159 -0.0473  0.4581
   37MOL    C29 8741   1.067   3.363   5.559 -0.0315 -0.3309  0.0170
   37MOL    O30 8742   1.143   3.456   5.598  0.4272  0.5289  0.4494
   37MOL    O31 8743   1.071   3.307   5.438 -0.0250  0.2680 -0.0862
   37MOL    H32 8744   0.974   3.109   5.544  0.0224 -1.1354 -0.1921
   37MOL    H33 8745   0.862   3.105   5.675 -0.0040 -1.3160 -1.1460
   37MOL    H34 8746   0.984   3.469   5.809 -1.6940  0.1227 -0.5129
   37MOL    H35 8747   1.085   3.343   5.821 -0.1997  0.8626  0.6624
   37MOL    H36 8748   0.914   3.322   5.873 -2.3720 -0.0717 -1.2967
   37MOL    H37 8749   1.125   3.359   5.380  0.9118 -2.4623 -1.7630
   37MOL    C38 8750   0.826   3.355   5.590 -0.1579  0.1056 -0.2983
   37MOL    C39 8751   0.782   3.500   5.551 -0.4293  0.8146 -0.0164
   37MOL    C40 8752   0.863   3.547   5.426  0.5027 -0.5051 -0.2581
   37MOL    C41 8753   0.631   3.496   5.522 -0.1033 -0.1409 -0.6395
   37MOL    O42 8754   0.552   3.445   5.604 -0.1652 -0.2030  0.0955
   37MOL    O43 8755   0.598   3.554   5.403 -0.2709 -0.7413  0.0971
   37MOL    H44 8756   0.814   3.295   5.500  2.2807  0.2182 -0.7354
   37MOL    H45 8757   0.751   3.320   5.662  0.4971 -0.0842  0.2989
   37MOL    H46 8758   0.811   3.633   5.384  1.0316  0.4083  0.9161
   37MOL    H47 8759   0.852   3.470   5.349 -0.7898 -1.7857  1.1715
   37MOL    H48 8760   0.968   3.572   5.443  0.0658  0.2408  1.4078
   37MOL    H49 8761   0.507   3.579   5.405 -0.1622 -0.3029 -0.3332
   37MOL    C50 8762   0.804   3.597   5.672  0.0080  0.5159  0.8816
   37MOL    C51 8763   0.754   3.753   5.696 -0.2838  0.6054  0.4060
   37MOL    C52 8764   0.818   3.792   5.836  0.0524  0.2476 -0.4329
   37MOL    C53 8765   0.799   3.839   5.574  0.1953  0.2580 -0.4708
   37MOL    O54 8766   0.731   3.882   5.481 -0.3427 -0.3104 -0.3320
   37MOL    O55 8767   0.935   3.859   5.584  0.4339 -0.6452  1.0533
   37MOL    H56 8768   0.785   3.545   5.766 -1.1141  2.6679  1.8702
   37MOL    H57 8769   0.913   3.604   5.666  0.2539 -2.7665  0.2816
   37MOL    H58 8770   0.923   3.763   5.836  0.0233  0.0626 -2.5544
   37MOL    H59 8771   0.773   3.734   5.916 -0.8561 -0.8686 -1.7181
   37MOL    H60 8772   0.819   3.900   5.854 -1.2714 -0.0414  1.5093
   37MOL    H61 8773   0.971   3.909   5.513  0.5190  0.6872  2.0219
   37MOL    C62 8774   0.596   3.752   5.707 -0.2939 -0.0554  0.4330
   37MOL    C63 8775   0.504   3.873   5.759 -0.1707 -0.2704  0.3188
   37MOL    C64 8776   0.515   3.887   5.916 -0.9957  0.1458 -1.1250
   37MOL    C65 8777   0.547   4.009   5.700  0.0931  0.5192 -0.3666
   37MOL    O66 8778   0.629   4.085   5.757  0.0158  0.6180  0.0106
   37MOL    O67 8779   0.499   4.037   5.576  0.5147  0.3580 -0.1379
   37MOL    H68 8780   0.562   3.746   5.604 -1.6595 -0.3955  0.8876
   37MOL    H69 8781   0.574   3.656   5.753 -2.0453  0.4192  0.6229
   37MOL    H70 8782   0.441   3.960   5.949  0.7112  0.6355  1.8392
   37MOL    H71 8783   0.609   3.933   5.945 -1.0891 -0.0285 -0.5407
   37MOL    H72 8784   0.507   3.795   5.973 -1.5652 -0.4719 -2.1776
   37MOL    H73 8785   0.556   4.099   5.532  1.0537 -0.2254 -0.2614
   37MOL    C74 8786   0.351   3.859   5.714  0.2470 -0.1134 -0.1320
   37MOL    C75 8787   0.251   3.763   5.784  0.6942 -0.0857 -0.2251
   37MOL    C76 8788   0.120   3.760   5.698 -0.2042 -0.0360 -0.4050
   37MOL    C77 8789   0.304   3.619   5.791  0.1134 -0.0104  0.5088
   37MOL    O78 8790   0.372   3.571   5.880 -0.1335 -0.1621  0.1506
   37MOL    O79 8791   0.281   3.553   5.673  0.4351  0.0610  0.5238
   37MOL    H80 8792   0.311   3.959   5.724  1.9369  0.4672  1.0636
   37MOL    H81 8793   0.355   3.842   5.606  1.3519 -3.8581  0.3967
   37MOL    H82 8794   0.053   3.689   5.744 -1.5867  1.6116  0.1745
   37MOL    H83 8795   0.142   3.729   5.596  1.2202 -0.7643  0.1140
   37MOL    H84 8796   0.079   3.860   5.683 -1.5567 -0.1286  2.3550
   37MOL    H85 8797   0.337   3.478   5.687  1.1930  0.7089  0.9813
   37MOL    C86 8798   0.220   3.818   5.926  0.6330 -0.1988  0.4166
   37MOL    C87 8799   0.082   3.789   5.995  0.9233 -0.3180 -0.5549
   37MOL    C88 8800   0.096   3.862   6.130 -0.3099  0.6382 -0.4679
   37MOL    C89 8801   7.730   3.861   5.927 -0.2049  0.3267  0.3248
   37MOL    O90 8802   7.633   3.808   5.872  0.0952  0.6911  0.4446
   37MOL    O91 8803   7.747   3.996   5.924  0.1093  0.4070 -0.0089
   37MOL    H92 8804   0.294   3.773   5.991 -0.2665 -0.8226  1.0207
   37MOL    H93 8805   0.234   3.926   5.916 -1.2391 -0.0453 -0.9993
   37MOL    H94 8806   0.139   3.793   6.203 -0.8728  0.6528 -0.1223
   37MOL    H95 8807   0.004   3.908   6.165 -1.2287  1.4371 -3.7903
   37MOL    H96 8808   0.171   3.940   6.121  0.3242 -0.0069 -0.8596
   37MOL    H97 8809   7.672   4.045   5.896 -1.0190 -1.5309 -0.4927
   37MOL    C98 8810   0.069   3.639   6.019 -0.3911  0.6291 -0.5604
   37MOL    C99 8811   7.710   3.573   6.093  0.6372  0.0018  0.2575
   37MOL   C100 8812   7.623   3.671   6.194 -0.8465  0.3885 -0.0908
   37MOL   C101 8813   7.612   3.516   5.985  0.6001  0.1272 -0.3277
   37MOL   O102 8814   7.658   3.461   5.880 -0.1308 -0.1415 -0.4509
   37MOL   O103 8815   7.479   3.526   6.015  0.3846  0.1896 -0.1326
   37MOL   H104 8816   0.082   3.593   5.921  1.3319 -2.2700  0.9482
   37MOL   H105 8817   0.163   3.611   6.067 -0.8049 -1.4753 -0.9177
   37MOL   H106 8818   7.678   3.703   6.282 -3.5451 -0.1779  1.8906
   37MOL   H107 8819   7.532   3.624   6.233  0.3422  0.3887  2.7386
   37MOL   H108 8820   7.591   3.767   6.154  1.5735  0.6440 -1.5162
   37MOL   H109 8821   7.433   3.504   5.936 -0.7476  2.0867 -0.0239
   37MOL   C110 8822   0.009   3.456   6.173  0.5553  1.1171 -0.1994
   37MOL   C111 8823   7.714   3.354   6.267 -0.5214 -0.4505  0.4331
   37MOL   C112 8824   7.665   3.426   6.399 -0.0674  0.1066  0.0077
   37MOL   C113 8825   7.592   3.278   6.209  0.5774 -0.2945 -1.0383
   37MOL   O114 8826   7.483   3.282   6.270  0.0730  0.2432 -0.0924
   37MOL   O115 8827   7.611   3.216   6.090 -0.3497  0.1317 -0.5954
   37MOL   H116 8828   0.045   3.388   6.095  1.4181  2.6111 -1.1220
   37MOL   H117 8829   0.094   3.498   6.226  0.5355 -0.2920  0.9749
   37MOL   H118 8830   7.620   3.368   6.480 -1.3689  1.1786  0.0549
   37MOL   H119 8831   7.587   3.495   6.367 -1.8483 -3.3711 -3.6026
   37MOL   H120 8832   7.748   3.488   6.433  0.9740 -1.1371 -0.2263
   37MOL   H121 8833   7.528   3.179   6.064  0.6120 -0.8650 -2.3001
   37MOL   C122 8834   0.068   3.260   6.301 -0.6531 -0.4120 -0.3946
   37MOL   C123 8835   0.065   3.150   6.413  0.4876 -0.0867  0.1458
   37MOL   C124 8836   7.702   3.072   6.417 -0.4218  0.2138  0.1979
   37MOL   C125 8837   0.183   3.051   6.380  0.5270 -0.1463 -0.2679
   37MOL   O126 8838   0.175   2.928   6.364  0.5320 -0.5343  0.0881
   37MOL   O127 8839   0.299   3.118   6.372  0.2960 -0.2859  0.1983
   37MOL   H128 8840   0.111   3.216   6.211 -1.9882 -1.0995 -0.7070
   37MOL   H129 8841   0.143   3.333   6.334  1.1936 -1.8920 -1.2690
   37MOL   H130 8842   7.667   3.042   6.318 -1.8624 -0.4260  0.8929
   37MOL   H131 8843   7.619   3.131   6.455 -0.6592  0.7473 -1.1244
   37MOL   H132 8844   7.712   2.985   6.481 -0.8685  0.3888  0.5108
   37MOL   H133 8845   0.373   3.062   6.355 -0.0017 -0.8665  0.7435
   37MOL   C134 8846   0.093   3.215   6.556 -0.1838 -0.9006 -0.3931
   37MOL   C135 8847   0.066   3.161   6.706 -0.5280 -0.1135  0.5636
   37MOL   C136 8848   7.688   3.203   6.748 -0.2838 -0.1157 -0.9257
   37MOL   C137 8849   0.055   3.006   6.720 -0.8135  0.0720  0.5307
   37MOL   O138 8850   7.716   2.944   6.759 -0.3178 -0.5183  0.1702
   37MOL   O139 8851   0.167   2.942   6.698 -0.5025 -0.4243 -0.5457
   37MOL   H140 8852   0.201   3.234   6.558 -0.4527  0.9033 -1.5777
   37MOL   H141 8853   0.059   3.318   6.559 -0.5951 -1.0617  0.3433
   37MOL   H142 8854   7.667   3.310   6.750 -0.7685 -0.2365  0.7961
   37MOL   H143 8855   7.649   3.169   6.844  0.1614  1.8337 -0.0450
   37MOL   H144 8856   7.619   3.160   6.675  0.7259 -0.5118 -1.6565
   37MOL   H145 8857   0.146   2.850   6.708 -1.7597 -0.1990 -1.0511
   37MOL   C146 8858   0.150   3.226   6.817 -1.0946 -1.2615 -0.0895
   37MOL   C147 8859   0.311   3.261   6.808 -0.3295 -0.1454  0.1057
   37MOL   C148 8860   0.386   3.137   6.760  0.0412  0.4934 -0.2678
   37MOL   C149 8861   0.337   3.381   6.716  0.8939 -0.1457 -0.0506
   37MOL   O150 8862   0.265   3.478   6.717  0.5531  0.3507  0.0538
   37MOL   O151 8863   0.454   3.380   6.650 -0.1637  0.2835  0.1690
   37MOL   H152 8864   0.096   3.314   6.850  3.5161  1.0042  1.9917
   37MOL   H153 8865   0.148   3.162   6.905 -0.8314 -1.6280 -0.3480
   37MOL   H154 8866   0.351   3.054   6.821  2.0582 -1.0122 -1.1089
   37MOL   H155 8867   0.493   3.158   6.767 -0.7365  4.6288  0.5840
   37MOL   H156 8868   0.376   3.126   6.652 -1.4670  2.1856 -0.3172
   37MOL   H157 8869   0.483   3.455   6.600 -1.1123 -0.0497 -0.8829
   37MOL   C158 8870   0.355   3.293   6.951 -0.2838 -0.0349 -0.2306
   37MOL   C159 8871   0.487   3.364   7.003  0.6368  0.2934  0.2769
   37MOL   C160 8872   0.611   3.301   6.929  0.0150  0.1677  0.4200
   37MOL   C161 8873   0.497   3.520   6.986 -0.3444 -0.2081  0.2001
   37MOL   O162 8874   0.402   3.592   6.958  0.4327 -0.1005  0.0438
   37MOL   O163 8875   0.623   3.564   7.025  0.1346 -0.2575 -0.1446
   37MOL   H164 8876   0.273   3.359   6.981 -0.2214 -0.5702  1.1605
   37MOL   H165 8877   0.355   3.193   6.995  0.8664 -0.0714 -0.3028
   37MOL   H166 8878   0.619   3.325   6.823  0.5985  0.7571  0.5972
   37MOL   H167 8879   0.607   3.193   6.940  1.7273  0.1702  1.1969
   37MOL   H168 8880   0.704   3.342   6.968 -0.4835  0.6234  1.1482
   37MOL   H169 8881   0.626   3.658   7.027  0.5832 -0.2953  2.6248
   37MOL   C170 8882   0.513   3.327   7.149 -0.0578  0.2384 -0.7054
   37MOL   C171 8883   0.405   3.348   7.267 -0.4307 -0.8964 -0.3732
   37MOL   C172 8884   0.340   3.487   7.267  0.7885  0.9118 -0.5126
   37MOL   C173 8885   0.298   3.234   7.254 -0.1176 -0.4180  0.1513
   37MOL   O174 8886   0.322   3.117   7.266  0.1289 -0.3257 -0.9625
   37MOL   O175 8887   0.169   3.281   7.223  0.2038  0.4549 -0.5208
   37MOL   H176 8888   0.539   3.222   7.138 -2.6113 -0.6677  1.2619
   37MOL   H177 8889   0.609   3.371   7.176  0.3605 -1.3876  0.5259
   37MOL   H178 8890   0.299   3.510   7.169  0.6059 -0.3824 -0.7419
   37MOL   H179 8891   0.408   3.571   7.285  1.0526  0.4448  0.7194
   37MOL   H180 8892   0.254   3.489   7.333  1.8879  1.0097  0.9526
   37MOL   H181 8893   0.117   3.205   7.206  0.3580  0.1418  0.4113
   37MOL   C182 8894   0.486   3.328   7.399 -0.5925  0.6549  0.4991
   37MOL   C183 8895   0.434   3.351   7.544 -0.6176  0.0990  0.3726
   37MOL   C184 8896   0.431   3.502   7.566  0.0063 -0.0118 -0.1501
   37MOL   C185 8897   0.297   3.287   7.569  0.5512  0.5653 -0.2350
   37MOL   O186 8898   0.201   3.357   7.590  0.9331  0.4101 -0.0974
   37MOL   O187 8899   0.304   3.151   7.560 -0.0361 -0.1641 -0.4047
   37MOL   H188 8900   0.514   3.223   7.397  0.4869  0.9502 -1.7123
   37MOL   H189 8901   0.576   3.390   7.391 -0.1289  0.1521  1.7280
   37MOL   H190 8902   0.345   3.542   7.512  0.9811 -0.8114 -2.3481
   37MOL   H191 8903   0.522   3.550   7.531  0.8150 -1.1667  0.3368
   37MOL   H192 8904   0.413   3.534   7.669  1.7363 -1.0609  0.4948
   37MOL   H193 8905   0.212   3.129   7.550 -0.0680 -0.1679 -0.0996
   37MOL   C194 8906   0.532   3.281   7.645 -0.8595 -0.4315  0.5280
   37MOL   C195 8907   0.675   3.332   7.695 -1.0204  0.5969  0.6004
   37MOL   C196 8908   0.758   3.369   7.573 -0.0650 -0.0407 -0.2869
   37MOL   C197 8909   0.667   3.453   0.026 -0.7301  0.3114 -0.0385
   37MOL   O198 8910   0.569   3.483   0.089  0.2466 -0.0723  0.2583
   37MOL   O199 8911   0.786   3.517   0.040 -0.6216 -0.1474 -0.0084
   37MOL   H200 8912   0.479   3.276   7.740  1.1355  2.7618  1.9324
   37MOL   H201 8913   0.556   3.185   7.600 -0.0962  0.2535 -0.5783
   37MOL   H202 8914   0.722   3.456   7.517 -1.1355  1.0257  1.9737
   37MOL   H203 8915   0.761   3.291   7.497  1.1022 -0.4049  0.1307
   37MOL   H204 8916   0.865   3.380   7.592 -0.1574 -2.2639  1.7416
   37MOL   H205 8917   0.755   3.594   0.083  0.5940 -0.1439  0.8877
   37MOL   C206 8918   0.767   3.220   0.006 -0.8907 -0.3118  0.2946
   37MOL   C207 8919   0.721   3.142   0.139 -0.2852 -0.3753  0.4666
   37MOL   C208 8920   0.676   3.241   0.247  0.3467 -0.4972  0.3944
   37MOL   C209 8921   0.594   3.053   0.115 -0.1048 -0.1431 -0.1474
   37MOL   O210 8922   0.567   3.002   0.005 -0.2374 -0.5121  0.2173
   37MOL   O211 8923   0.520   3.026   0.227 -0.1898 -0.6761  0.7499
   37MOL   H212 8924   0.798   3.150   7.695  0.7224  0.3550  0.3050
   37MOL   H213 8925   0.857   3.274   0.037 -1.7315  0.8067  0.8321
   37MOL   H214 8926   0.668   3.177   0.335 -1.5275  0.1786  0.7431
   37MOL   H215 8927   0.576   3.281   0.231  0.6775  0.5552  0.9162
   37MOL   H216 8928   0.745   3.324   0.262 -0.7399  0.8801 -1.9455
   37MOL   H217 8929   0.433   2.993   0.206  0.8330 -2.0969 -1.4996
   37MOL   C218 8930   0.832   3.061   0.207  0.1083 -0.2465 -0.5030
   37MOL   C219 8931   0.936   2.977   0.129 -0.4478  0.2113 -0.5080
   37MOL   C220 8932   0.864   2.874   0.033 -0.2845 -0.2216  0.2094
   37MOL   C221 8933   1.023   3.071   0.041 -0.8049 -0.0414  0.2271
   37MOL   O222 8934   1.035   3.062   7.684  0.1779 -0.3992  0.1158
   37MOL   O223 8935   1.079   3.165   0.115 -0.6722 -0.2584 -0.4317
   37MOL   H224 8936   0.891   3.132   0.265 -0.3874 -1.0559  1.0181
   37MOL   H225 8937   0.780   2.992   0.274 -1.2817  0.4910 -0.8100
   37MOL   H226 8938   0.939   2.815   7.747  0.4096  1.2225 -0.4680
   37MOL   H227 8939   0.802   2.915   7.721  0.8252 -0.3955 -0.7628
   37MOL   H228 8940   0.797   2.805   0.084 -2.3923  1.2140 -0.5331
   37MOL   H229 8941   1.140   3.209   0.059 -1.2174 -1.3944 -1.9582
   37MOL   C230 8942   1.016   2.882   0.221  0.3889  0.1215 -0.7359
   37MOL   C231 8943   1.110   2.952   0.325  0.4451  0.3400 -0.2400
   37MOL   C232 8944   1.041   2.980   0.464 -0.8942 -0.7631 -0.4340
   37MOL   C233 8945   1.232   2.864   0.339 -0.4665  0.1186 -0.1396
   37MOL   O234 8946   1.340   2.898   0.297 -0.3518 -0.4456  0.0642
   37MOL   O235 8947   1.210   2.745   0.396  0.4707 -0.0281  0.4754
   37MOL   H236 8948   0.943   2.817   0.270  0.7524  1.7534  2.1145
   37MOL   H237 8949   1.062   2.799   0.167 -1.2711 -0.1103 -1.8083
   37MOL   H238 8950   0.991   2.904   0.523  0.3601 -1.3841 -0.1456
   37MOL   H239 8951   0.962   3.054   0.455 -2.0633 -2.0888 -1.4299
   37MOL   H240 8952   1.115   3.027   0.529  0.9949 -1.6074 -1.8960
   37MOL   H241 8953   1.117   2.745   0.410  0.4760  2.5920  0.8806
   37MOL   H242 8954   1.152   3.043   0.284  0.7625 -0.2150 -1.1870
   38MOL     C1 8955   1.631   3.937   4.908 -0.1037 -0.7662 -0.4138
   38MOL     C2 8956   1.694   3.983   5.043 -1.0999 -0.3410 -0.1889
   38MOL     C3 8957   1.606   4.091   5.113  0.0109  0.1611 -0.9551
   38MOL     C4 8958   1.695   3.869   5.137 -0.3041 -0.1689 -0.0419
   38MOL     O5 8959   1.732   3.878   5.254  0.4663 -0.0066 -0.3655
   38MOL     O6 8960   1.644   3.753   5.092  0.3122  0.3756 -0.2475
   38MOL     H7 8961   1.682   3.853   4.860 -3.7132 -2.8029 -0.8902
   38MOL     H8 8962   1.631   4.007   4.824  3.9450  1.7079  1.4683
   38MOL     H9 8963   1.661   4.159   5.178  0.4220 -1.6174  0.6042
   38MOL    H10 8964   1.526   4.054   5.177  0.4120  0.4164 -0.2976
   38MOL    H11 8965   1.560   4.146   5.031 -3.1682 -2.2853 -0.9252
   38MOL    H12 8966   1.603   3.765   5.008  1.5622 -2.0064 -1.2490
   38MOL    H13 8967   1.530   3.900   4.927 -0.7678  0.9104 -0.5982
   38MOL    C14 8968   1.844   4.044   5.026  0.3255 -0.1929  0.2373
   38MOL    C15 8969   1.957   3.974   4.951  0.3394  0.0635 -0.3165
   38MOL    C16 8970   1.966   3.825   4.997  0.2833  0.3236 -0.2391
   38MOL    C17 8971   1.926   3.968   4.798 -0.2096 -0.1671 -0.5011
   38MOL    O18 8972   1.851   4.056   4.746  0.1613 -0.0110  0.5596
   38MOL    O19 8973   1.976   3.870   4.727  0.6060 -0.0104 -0.1285
   38MOL    H20 8974   1.828   4.142   4.981 -2.6712  0.2777  2.1342
   38MOL    H21 8975   1.892   4.068   5.121  2.0066 -1.7986 -0.1913
   38MOL    H22 8976   1.951   3.817   5.105 -1.0623  0.0205 -0.4381
   38MOL    H23 8977   2.063   3.780   4.976  0.6428  0.6866  0.6134
   38MOL    H24 8978   1.884   3.771   4.950  0.3018 -1.1173  1.3343
   38MOL    H25 8979   1.942   3.880   4.639 -1.4907  0.2812  0.6765
   38MOL    C26 8980   2.099   4.043   4.979  0.4667  0.1444 -0.5139
   38MOL    C27 8981   2.138   4.197   4.941 -0.6807 -0.2604  0.1278
   38MOL    C28 8982   2.050   4.301   5.004 -0.8093  0.4543  0.1799
   38MOL    C29 8983   2.276   4.210   4.999 -1.0104  0.0596 -0.1393
   38MOL    O30 8984   2.298   4.285   5.095 -0.3383  0.1913  0.1576
   38MOL    O31 8985   2.364   4.110   4.962  0.6436 -0.0822  0.1763
   38MOL    H32 8986   2.121   4.015   5.082  0.3915  1.4355 -0.1393
   38MOL    H33 8987   2.171   3.982   4.924  0.8984 -1.0373  1.3034
   38MOL    H34 8988   2.020   4.276   5.105  0.8685  1.4638  0.9630
   38MOL    H35 8989   1.959   4.321   4.947 -1.3806 -1.0436  0.5552
   38MOL    H36 8990   2.109   4.393   5.014 -0.1151 -0.0161  0.4452
   38MOL    H37 8991   2.443   4.108   5.013 -0.4747 -1.0274  1.9128
   38MOL    C38 8992   2.151   4.213   4.788  0.0916 -0.0112 -0.1242
   38MOL    C39 8993   2.198   4.340   4.703  0.0510  0.0525  0.3402
   38MOL    C40 8994   2.071   4.419   4.657 -0.0887 -0.5021  0.4832
   38MOL    C41 8995   2.284   4.451   4.774 -0.2922  0.3259 -0.7928
   38MOL    O42 8996   2.407   4.463   4.766  0.0324  0.1731 -0.2561
   38MOL    O43 8997   2.202   4.532   4.854  0.1592  0.1562 -0.7564
   38MOL    H44 8998   2.209   4.126   4.756  1.8587  1.1484 -0.1891
   38MOL    H45 8999   2.051   4.197   4.748 -1.2811  2.2499  2.3026
   38MOL    H46 9000   2.004   4.434   4.741  0.2448  1.8071  0.3759
   38MOL    H47 9001   2.015   4.368   4.579 -1.1704  1.0918  0.1984
   38MOL    H48 9002   2.113   4.504   4.604 -1.7451 -2.0378 -3.5016
   38MOL    H49 9003   2.257   4.596   4.896 -0.7119  0.3946  0.0584
   38MOL    C50 9004   2.276   4.290   4.577  0.0859 -0.1645  0.0131
   38MOL    C51 9005   2.210   4.206   4.454  0.4506  0.8989 -0.5587
   38MOL    C52 9006   2.103   4.090   4.489 -0.2820 -0.3257 -0.8907
   38MOL    C53 9007   2.146   4.307   4.353 -0.5206 -0.0800  0.9306
   38MOL    O54 9008   2.159   4.427   4.363  0.5465  0.6769  0.2742
   38MOL    O55 9009   2.073   4.241   4.255  0.2722 -0.1453  0.1878
   38MOL    H56 9010   2.315   4.378   4.526 -1.0886 -0.4723 -1.4345
   38MOL    H57 9011   2.360   4.229   4.611 -0.2799 -0.8406 -0.3035
   38MOL    H58 9012   2.018   4.130   4.545 -0.8043 -0.8270 -1.3205
   38MOL    H59 9013   2.156   4.020   4.554 -0.4883  0.1307 -0.2137
   38MOL    H60 9014   2.072   4.039   4.398  0.3645 -1.3850 -0.5275
   38MOL    H61 9015   2.042   4.309   4.196 -2.1101 -0.8845  0.5507
   38MOL    C62 9016   2.324   4.138   4.375  0.3336 -0.3452  0.9578
   38MOL    C63 9017   2.448   4.196   4.301 -0.5435  0.7432 -0.2868
   38MOL    C64 9018   2.409   4.304   4.206 -0.3433 -0.3731 -0.4278
   38MOL    C65 9019   2.547   4.245   4.407 -0.1306  0.1235  0.2497
   38MOL    O66 9020   2.598   4.352   4.394 -0.2468  0.5493  0.0485
   38MOL    O67 9021   2.579   4.156   4.499  0.2057  0.0641 -0.3266
   38MOL    H68 9022   2.365   4.065   4.445 -0.5443 -2.6171 -0.8375
   38MOL    H69 9023   2.265   4.072   4.311 -0.7547  3.4367 -2.0849
   38MOL    H70 9024   2.372   4.391   4.260  1.2832  0.4692 -0.6354
   38MOL    H71 9025   2.344   4.268   4.127 -1.0748 -0.4525  0.2068
   38MOL    H72 9026   2.503   4.351   4.175 -0.6961  1.1733  0.8012
   38MOL    H73 9027   2.649   4.192   4.552  0.5869 -0.5872 -0.3792
   38MOL    C74 9028   2.501   4.080   4.213 -0.6103 -0.6833 -0.6387
   38MOL    C75 9029   2.639   4.094   4.135  0.2043  0.4557  1.0095
   38MOL    C76 9030   2.672   4.215   4.047 -0.8373  0.0613  1.0253
   38MOL    C77 9031   2.755   4.080   4.238 -0.2479  0.1024 -0.0409
   38MOL    O78 9032   2.843   4.167   4.254  0.6525 -0.5429 -0.5540
   38MOL    O79 9033   2.744   3.959   4.306 -0.1641 -0.1711 -0.1846
   38MOL    H80 9034   2.511   3.985   4.267 -0.6097  0.0461  0.6753
   38MOL    H81 9035   2.428   4.049   4.139  1.6260  1.3701 -3.8475
   38MOL    H82 9036   2.693   4.303   4.107  4.1002  1.1118 -1.9818
   38MOL    H83 9037   2.591   4.239   3.978  0.6839 -2.3945 -1.7256
   38MOL    H84 9038   2.765   4.199   3.992 -0.4237  1.9398  1.1360
   38MOL    H85 9039   2.805   3.964   4.378  0.4224 -1.6454 -0.5574
   38MOL    C86 9040   2.640   3.971   4.037 -0.0411 -0.3651  0.1216
   38MOL    C87 9041   2.588   3.960   3.888 -0.0626 -0.2468 -0.1909
   38MOL    C88 9042   2.451   4.025   3.875 -0.2371  0.1403  0.7056
   38MOL    C89 9043   2.695   4.023   3.790 -0.1013 -0.0503 -0.2084
   38MOL    O90 9044   2.810   3.977   3.778 -0.0288  0.1518  0.6905
   38MOL    O91 9045   2.652   4.126   3.719  0.0597 -0.6472 -0.1546
   38MOL    H92 9046   2.746   3.943   4.039  0.5885  1.8664  2.3734
   38MOL    H93 9047   2.591   3.892   4.093 -2.5772  0.7750 -0.4534
   38MOL    H94 9048   2.373   3.972   3.929 -1.2910 -0.2969 -1.2002
   38MOL    H95 9049   2.418   4.032   3.771 -1.6534 -1.1364  1.0445
   38MOL    H96 9050   2.461   4.128   3.907  2.5979  0.6357 -1.5578
   38MOL    H97 9051   2.713   4.144   3.649 -1.6382 -0.2316 -1.5662
   38MOL    C98 9052   2.589   3.804   3.853 -0.7240 -0.1560  0.0226
   38MOL    C99 9053   2.501   3.751   3.725  0.3707  0.5690  0.3348
   38MOL   C100 9054   2.534   3.829   3.590 -0.7025  0.0983 -0.1772
   38MOL   C101 9055   2.534   3.605   3.698  0.1063  0.2788 -0.3287
   38MOL   O102 9056   2.484   3.540   3.604 -0.3095 -0.8930 -0.1647
   38MOL   O103 9057   2.614   3.553   3.794  0.1497  0.3239  0.2227
   38MOL   H104 9058   2.695   3.785   3.837 -0.7400  0.6469 -1.0676
   38MOL   H105 9059   2.581   3.736   3.938  1.4701 -0.3871  0.0716
   38MOL   H106 9060   2.473   3.790   3.509  0.2088  1.2506 -1.4629
   38MOL   H107 9061   2.637   3.832   3.555 -0.8615 -0.9547 -0.7548
   38MOL   H108 9062   2.517   3.936   3.601  3.6426  0.6722  2.3529
   38MOL   H109 9063   2.621   3.459   3.785 -0.4355  0.3564 -0.6458
   38MOL   C110 9064   2.342   3.752   3.747 -0.3690 -0.5473  0.3502
   38MOL   C111 9065   2.251   3.675   3.855 -0.0594 -0.7941 -0.3706
   38MOL   C112 9066   2.214   3.533   3.806 -0.0999  0.0629 -0.1018
   38MOL   C113 9067   2.330   3.649   3.986  0.2703 -0.1323 -0.3858
   38MOL   O114 9068   2.368   3.536   4.030  0.6684 -0.7599 -0.0056
   38MOL   O115 9069   2.349   3.764   4.052 -0.0197 -0.2493 -0.1762
   38MOL   H116 9070   2.315   3.857   3.744  0.8617 -0.1984  0.9492
   38MOL   H117 9071   2.301   3.726   3.649  1.5289  0.0460 -0.6377
   38MOL   H118 9072   2.304   3.474   3.792  0.0484  0.6849 -1.8858
   38MOL   H119 9073   2.168   3.537   3.707  2.6788 -0.5797 -1.4542
   38MOL   H120 9074   2.155   3.469   3.872  0.4335 -0.0545  0.2648
   38MOL   H121 9075   2.390   3.738   4.133  0.7166 -2.8864 -1.3515
   38MOL   C122 9076   2.130   3.757   3.901 -0.1390 -0.6591  0.7787
   38MOL   C123 9077   1.986   3.746   3.833 -0.4445 -0.0480 -0.2954
   38MOL   C124 9078   1.999   3.792   3.684 -0.5965  0.4398 -0.6918
   38MOL   C125 9079   1.938   3.605   3.847  0.0849  0.8756  0.2738
   38MOL   O126 9080   1.893   3.544   3.750  0.5364  0.5879  0.0969
   38MOL   O127 9081   1.930   3.557   3.973  0.5943  0.0579  0.2865
   38MOL   H128 9082   2.109   3.735   4.006  2.2688  0.2243  1.4823
   38MOL   H129 9083   2.149   3.864   3.894 -3.8060  0.0764  0.8325
   38MOL   H130 9084   2.030   3.897   3.680 -1.7156  0.8830  1.4463
   38MOL   H131 9085   1.912   3.783   3.619 -1.2719  1.1196  0.1161
   38MOL   H132 9086   2.072   3.732   3.630 -1.9222 -2.4907  0.6699
   38MOL   H133 9087   1.880   3.479   3.959  0.3871  0.3494 -0.6940
   38MOL   C134 9088   1.890   3.834   3.917  0.2176 -0.8968 -0.8138
   38MOL   C135 9089   1.742   3.887   3.867 -0.2701  0.0454  0.7656
   38MOL   C136 9090   1.768   4.001   3.762  0.6800  0.7067  0.7706
   38MOL   C137 9091   1.655   3.778   3.798  0.2358  0.5294  0.1304
   38MOL   O138 9092   1.654   3.663   3.840  0.0957 -0.1718 -0.0732
   38MOL   O139 9093   1.568   3.826   3.708 -0.4031 -0.4056  0.2626
   38MOL   H140 9094   1.861   3.774   4.003  3.2657 -0.1988  0.7625
   38MOL   H141 9095   1.946   3.912   3.968 -0.0920 -0.2982 -1.3834
   38MOL   H142 9096   1.680   4.064   3.761  0.7435  0.7944  0.8133
   38MOL   H143 9097   1.784   3.958   3.663 -0.9205 -0.3394  0.9389
   38MOL   H144 9098   1.843   4.070   3.800  1.5250 -0.1247  0.6359
   38MOL   H145 9099   1.506   3.759   3.686  0.3870 -1.6027  1.6461
   38MOL   C146 9100   1.680   3.967   3.992  0.9823  0.3098 -0.0125
   38MOL   C147 9101   1.543   3.945   4.061 -0.4726  0.4192 -0.5935
   38MOL   C148 9102   1.437   3.964   3.959 -0.8220  0.2577 -0.9623
   38MOL   C149 9103   1.514   3.811   4.130  0.1004  0.4426  0.4839
   38MOL   O150 9104   1.609   3.732   4.148  0.0645 -0.1152  0.1504
   38MOL   O151 9105   1.383   3.775   4.158 -0.2838  0.3412 -0.5375
   38MOL   H152 9106   1.751   3.952   4.073 -0.5693 -1.6416  1.0262
   38MOL   H153 9107   1.682   4.071   3.959 -0.7844  0.7643  1.2403
   38MOL   H154 9108   1.424   3.883   3.888  0.4885 -0.9044  0.0870
   38MOL   H155 9109   1.441   4.063   3.912  1.0211  0.3710 -0.6236
   38MOL   H156 9110   1.340   3.965   4.007 -0.3893  0.1614 -0.0671
   38MOL   H157 9111   1.380   3.685   4.189 -1.0314  0.7435  0.5557
   38MOL   C158 9112   1.517   4.064   4.175 -0.2761  0.2563 -0.8043
   38MOL   C159 9113   1.609   4.099   4.304 -0.1955  0.0629  0.2863
   38MOL   C160 9114   1.635   3.974   4.386 -0.1863  0.2985 -0.3251
   38MOL   C161 9115   1.746   4.156   4.254  0.1406  0.2078 -0.6442
   38MOL   O162 9116   1.761   4.231   4.161 -0.3239  0.1816 -0.3123
   38MOL   O163 9117   1.843   4.119   4.341 -0.0002  0.3648 -0.0619
   38MOL   H164 9118   1.506   4.157   4.119 -0.7385  0.2442 -0.7350
   38MOL   H165 9119   1.419   4.046   4.219 -0.1663  0.2016 -0.5836
   38MOL   H166 9120   1.704   3.987   4.469  0.9063  0.4839 -1.2416
   38MOL   H167 9121   1.692   3.893   4.339 -0.2958  0.8197 -1.3688
   38MOL   H168 9122   1.540   3.927   4.409 -0.9311  0.4893 -2.8253
   38MOL   H169 9123   1.930   4.129   4.306  1.0296  0.0410  2.2724
   38MOL   C170 9124   1.521   4.206   4.383 -0.1036 -0.4707 -0.8581
   38MOL   C171 9125   1.544   4.274   4.528  0.2971  0.1053  0.0215
   38MOL   C172 9126   1.585   4.156   4.621 -0.0671 -0.5362 -0.1719
   38MOL   C173 9127   1.663   4.371   4.515  0.5153  0.5871  0.1888
   38MOL   O174 9128   1.703   4.420   4.410  0.3120 -0.6122  0.2345
   38MOL   O175 9129   1.690   4.419   4.640 -1.1366  0.4824 -0.8139
   38MOL   H176 9130   1.518   4.297   4.323  0.9672 -0.5381 -1.0275
   38MOL   H177 9131   1.421   4.163   4.386  0.1178 -1.1118 -2.3629
   38MOL   H178 9132   1.567   4.186   4.725 -2.0661 -2.7798  0.1796
   38MOL   H179 9133   1.692   4.146   4.610  0.2827  0.7549  1.7260
   38MOL   H180 9134   1.535   4.060   4.606 -0.9625 -0.1894  0.4928
   38MOL   H181 9135   1.742   4.497   4.634 -1.4521  0.6438 -1.6044
   38MOL   C182 9136   1.412   4.337   4.585  0.1235 -0.2567  0.3723
   38MOL   C183 9137   1.341   4.468   4.521  0.4368  0.0912  0.1328
   38MOL   C184 9138   1.431   4.589   4.533 -0.2280 -0.1817  0.4122
   38MOL   C185 9139   1.301   4.438   4.373  1.1662 -0.0732 -0.2096
   38MOL   O186 9140   1.269   4.330   4.331  0.0152  0.4519  0.1894
   38MOL   O187 9141   1.314   4.545   4.295 -0.6983 -0.4442  0.0416
   38MOL   H188 9142   1.341   4.259   4.610  1.0158 -1.0937  0.3197
   38MOL   H189 9143   1.435   4.365   4.687 -3.0439  0.3299  0.9783
   38MOL   H190 9144   1.446   4.602   4.640 -0.7399 -1.6825  0.6819
   38MOL   H191 9145   1.373   4.678   4.507  0.1244 -0.6883 -2.3146
   38MOL   H192 9146   1.517   4.595   4.466 -1.0797  1.7170 -0.5686
   38MOL   H193 9147   1.339   4.618   4.349  1.9169 -1.1537 -0.1719
   38MOL   C194 9148   1.216   4.494   4.608 -0.0644 -0.6335  0.7456
   38MOL   C195 9149   1.059   4.486   4.559 -0.3977 -0.1527 -0.5742
   38MOL   C196 9150   1.027   4.591   4.454  0.2583 -0.1555 -0.0887
   38MOL   C197 9151   1.025   4.350   4.507 -0.8581  0.5874  0.2221
   38MOL   O198 9152   1.078   4.249   4.539  0.1858 -0.3209 -0.3057
   38MOL   O199 9153   0.909   4.347   4.432 -0.1421  0.2360 -0.2154
   38MOL   H200 9154   1.206   4.420   4.687 -2.4514  0.4344  1.5067
   38MOL   H201 9155   1.229   4.588   4.661  4.2984 -0.2271 -0.8387
   38MOL   H202 9156   1.095   4.587   4.370  2.0227  1.2141  1.2312
   38MOL   H203 9157   1.035   4.687   4.505 -0.2388 -0.3187  0.3126
   38MOL   H204 9158   0.926   4.585   4.414 -0.1974  2.3536  0.5973
   38MOL   H205 9159   0.919   4.275   4.372 -2.5584 -0.9272  0.7029
   38MOL   C206 9160   0.976   4.520   4.686  0.7851  0.4650  0.0858
   38MOL   C207 9161   0.823   4.510   4.707 -0.0360  0.0874 -0.6824
   38MOL   C208 9162   0.735   4.555   4.586 -0.6951 -0.2278 -0.3147
   38MOL   C209 9163   0.787   4.361   4.739 -0.1091 -0.1629 -0.6377
   38MOL   O210 9164   0.873   4.278   4.773  0.0168  0.7746 -0.4080
   38MOL   O211 9165   0.653   4.335   4.752 -0.6055 -0.4165  0.3173
   38MOL   H212 9166   1.025   4.458   4.761 -1.0049 -2.5455 -1.1071
   38MOL   H213 9167   1.008   4.620   4.715  2.5499  0.1009 -0.5449
   38MOL   H214 9168   0.737   4.488   4.500 -1.1526  2.4386 -2.4840
   38MOL   H215 9169   0.749   4.659   4.558 -0.1512 -0.4047 -0.6949
   38MOL   H216 9170   0.631   4.557   4.619  0.0693  1.2146  2.1238
   38MOL   H217 9171   0.647   4.242   4.764 -0.5279 -0.1504  2.7460
   38MOL   C218 9172   0.782   4.591   4.836 -0.3387 -0.0243 -0.3868
   38MOL   C219 9173   0.749   4.744   4.841  0.6769 -0.2349  0.1776
   38MOL   C220 9174   0.854   4.835   4.766 -0.2230 -0.1885  0.2583
   38MOL   C221 9175   0.612   4.776   4.777  0.5217  0.4022 -0.4985
   38MOL   O222 9176   0.573   4.868   4.712 -0.1716 -0.3627  0.0887
   38MOL   O223 9177   0.518   4.684   4.816  0.8494  0.1630  0.1171
   38MOL   H224 9178   0.701   4.548   4.895  0.5007 -0.2369  0.6358
   38MOL   H225 9179   0.870   4.571   4.898 -0.5825 -1.9206 -0.5962
   38MOL   H226 9180   0.943   4.815   4.827 -1.0184 -0.0030  1.5054
   38MOL   H227 9181   0.836   4.942   4.774  2.0945  0.1854  1.1068
   38MOL   H228 9182   0.847   4.802   4.663  0.0412  1.4625 -0.3079
   38MOL   H229 9183   0.427   4.703   4.796  0.2163 -1.8370  0.9355
   38MOL   C230 9184   0.731   4.800   4.997  0.0581  0.0083  0.6361
   38MOL   C231 9185   0.696   4.952   5.023  0.4001 -0.3571 -0.1256
   38MOL   C232 9186   0.580   4.967   5.129  0.0668  0.4033 -1.0312
   38MOL   C233 9187   0.820   5.034   5.060 -0.1797  0.3005  0.4328
   38MOL   O234 9188   0.934   5.020   5.017 -0.3796  0.7042  0.4545
   38MOL   O235 9189   0.784   5.132   5.154  0.6541 -0.1490 -0.5182
   38MOL   H236 9190   0.654   4.741   5.047  0.1158  0.9558  1.8650
   38MOL   H237 9191   0.822   4.785   5.055 -0.9247 -1.0579  1.9585
   38MOL   H238 9192   0.599   4.936   5.231 -1.6633 -1.7850 -1.3291
   38MOL   H239 9193   0.491   4.916   5.090 -1.0306  0.7870  0.9387
   38MOL   H240 9194   0.559   5.073   5.137  1.9428  0.5460  3.2296
   38MOL   H241 9195   0.863   5.177   5.182  1.0016 -2.4762  2.5081
   38MOL   H242 9196   0.645   5.002   4.941 -1.0563  1.3767  1.7906
   39MOL     C1 9197   4.163   0.740   3.638 -0.8339 -0.6809 -0.5187
   39MOL     C2 9198   4.268   0.626   3.646  0.6989 -0.0169 -0.0454
   39MOL     C3 9199   4.413   0.697   3.642  0.1441 -0.7641  0.5993
   39MOL     C4 9200   4.271   0.571   3.795  0.3573  0.0015 -0.0423
   39MOL     O5 9201   4.183   0.593   3.881  0.8822  0.2740 -0.2935
   39MOL     O6 9202   4.381   0.498   3.821 -0.6456  0.3508  0.1775
   39MOL     H7 9203   4.150   0.774   3.535  0.9835 -0.5312 -0.7132
   39MOL     H8 9204   4.166   0.822   3.709  1.1972 -0.7342 -0.5229
   39MOL     H9 9205   4.438   0.769   3.720  2.1878  0.2489 -0.9056
   39MOL    H10 9206   4.432   0.749   3.548  1.2286 -1.3235  0.4909
   39MOL    H11 9207   4.493   0.624   3.652 -1.1970 -1.9747  2.7097
   39MOL    H12 9208   4.438   0.493   3.745 -0.8703  1.2223 -0.0504
   39MOL    H13 9209   4.066   0.697   3.665  0.1856 -3.5838 -1.2885
   39MOL    C14 9210   4.240   0.520   3.531  0.0851 -0.4726 -0.7953
   39MOL    C15 9211   4.243   0.364   3.534 -0.3056  0.3963  0.8400
   39MOL    C16 9212   4.211   0.323   3.391  0.4574  0.4756  0.8877
   39MOL    C17 9213   4.389   0.312   3.561 -0.0512 -0.2250 -1.0236
   39MOL    O18 9214   4.484   0.380   3.605 -0.0208  0.6218 -0.8835
   39MOL    O19 9215   4.388   0.179   3.550  0.2294 -0.2963 -0.2663
   39MOL    H20 9216   4.135   0.538   3.508  0.7545  2.3534 -1.8308
   39MOL    H21 9217   4.304   0.554   3.450  1.0641 -0.7605 -0.1517
   39MOL    H22 9218   4.106   0.346   3.370  0.1708 -0.6296  1.0610
   39MOL    H23 9219   4.218   0.214   3.384 -2.4311  0.2967  0.0501
   39MOL    H24 9220   4.280   0.365   3.319  0.7175 -0.6332  0.4810
   39MOL    H25 9221   4.466   0.141   3.587  0.5269  0.4534 -0.1093
   39MOL    C26 9222   4.146   0.300   3.644  0.7667 -0.1305 -0.4770
   39MOL    C27 9223   3.988   0.279   3.631 -0.5310 -0.3697 -0.2572
   39MOL    C28 9224   3.921   0.418   3.600  0.1314  0.5919 -0.0330
   39MOL    C29 9225   3.946   0.174   3.526  0.0404 -0.2452  0.2636
   39MOL    O30 9226   3.841   0.178   3.472 -0.3969 -0.0429 -0.7385
   39MOL    O31 9227   4.046   0.080   3.499 -0.6694 -0.0646 -0.3940
   39MOL    H32 9228   4.192   0.207   3.678 -0.9607 -0.8932 -0.1433
   39MOL    H33 9229   4.147   0.355   3.738 -0.0673  0.3105 -0.7202
   39MOL    H34 9230   3.962   0.505   3.651  2.9311 -1.1150  0.7396
   39MOL    H35 9231   3.813   0.411   3.612 -0.1695 -1.5842 -3.3477
   39MOL    H36 9232   3.935   0.448   3.497 -0.1771 -0.1518 -0.2947
   39MOL    H37 9233   4.008   0.022   3.435  1.8071 -2.3384  0.1290
   39MOL    C38 9234   3.930   0.235   3.775  0.2838  0.1766  0.2985
   39MOL    C39 9235   3.943   0.089   3.847 -0.0179 -1.0514 -0.8238
   39MOL    C40 9236   3.871   7.740   3.775  0.0353  0.5240 -0.1816
   39MOL    C41 9237   4.091   0.057   3.869 -0.4257  0.1520 -0.0759
   39MOL    O42 9238   4.148   7.720   3.834 -0.4468 -0.4660  0.1164
   39MOL    O43 9239   4.164   0.152   3.936  0.0243 -0.0734 -0.1091
   39MOL    H44 9240   3.956   0.318   3.840 -0.1095  1.8269 -1.6242
   39MOL    H45 9241   3.824   0.248   3.751  0.6889  2.2248 -0.4112
   39MOL    H46 9242   3.871   7.649   3.834 -0.3675  1.0959  0.7239
   39MOL    H47 9243   3.931   7.712   3.689  2.4398  0.9985  1.2861
   39MOL    H48 9244   3.771   0.000   3.743 -0.0559  0.0198 -0.3199
   39MOL    H49 9245   4.254   0.127   3.943  0.5643  1.4960 -1.1574
   39MOL    C50 9246   3.876   0.099   3.983  0.0917  0.4678 -0.2790
   39MOL    C51 9247   3.858   7.762   4.096 -0.9302 -0.9262  0.2129
   39MOL    C52 9248   3.713   7.707   4.070 -0.0148  0.0127  0.0366
   39MOL    C53 9249   3.960   7.648   4.104 -1.2232  0.4639  0.1470
   39MOL    O54 9250   4.077   7.666   4.140  0.3321 -0.0529 -0.0616
   39MOL    O55 9251   3.918   7.530   4.046 -0.1808  0.1827 -0.1686
   39MOL    H56 9252   3.926   0.184   4.030 -1.3630  0.9539  0.4364
   39MOL    H57 9253   3.779   0.146   3.966  0.1828 -0.4688 -3.9382
   39MOL    H58 9254   3.696   7.629   4.144  1.3130  0.6134  0.9895
   39MOL    H59 9255   3.708   7.653   3.975  1.4410 -0.8340  0.4346
   39MOL    H60 9256   3.636   0.017   4.074 -0.7151 -0.6602 -0.2049
   39MOL    H61 9257   3.975   7.454   4.038  0.6094  0.9505 -1.9363
   39MOL    C62 9258   3.862   0.074   4.238 -0.1267  0.1431  0.3391
   39MOL    C63 9259   3.801   0.041   4.374  0.0213  0.2568 -0.6345
   39MOL    C64 9260   3.653   7.766   4.363  0.0224 -0.1711 -0.2721
   39MOL    C65 9261   3.894   7.691   4.435  0.0318  0.0663  0.2948
   39MOL    O66 9262   3.853   7.575   4.460  0.3779 -0.1722 -0.0196
   39MOL    O67 9263   4.017   7.735   4.457 -0.5761  0.9147  0.0800
   39MOL    H68 9264   3.966   0.105   4.248 -0.2469 -0.4446  3.9124
   39MOL    H69 9265   3.815   0.167   4.210 -0.1270 -0.7448 -2.7911
   39MOL    H70 9266   3.631   7.664   4.331  1.4851 -1.0685  1.4990
   39MOL    H71 9267   3.606   0.068   4.293  0.6556  0.6009  0.0591
   39MOL    H72 9268   3.606   0.005   4.461  0.7431  1.2580 -0.0050
   39MOL    H73 9269   4.067   7.669   4.503 -0.8190  1.1358  0.6641
   39MOL    C74 9270   3.815   0.178   4.459 -1.0994  0.7338 -0.8351
   39MOL    C75 9271   3.768   0.200   4.605  0.3193 -0.0574 -0.0015
   39MOL    C76 9272   3.622   0.262   4.601  0.0809 -0.0499  0.2736
   39MOL    C77 9273   3.775   0.074   4.692 -0.0024  0.4957 -0.3758
   39MOL    O78 9274   3.877   0.006   4.709 -0.0124  0.1505 -0.8864
   39MOL    O79 9275   3.658   0.054   4.758  0.2150 -0.4712 -0.5779
   39MOL    H80 9276   3.919   0.209   4.448 -0.6547 -0.2249  0.5950
   39MOL    H81 9277   3.756   0.243   4.394  0.9170  2.2352 -1.2136
   39MOL    H82 9278   3.588   0.297   4.698  1.2926  0.5382  0.5035
   39MOL    H83 9279   3.553   0.186   4.565  1.4740 -0.4938 -1.5499
   39MOL    H84 9280   3.614   0.336   4.521  1.6847  1.1159  1.1426
   39MOL    H85 9281   3.589   0.118   4.753  0.6333  0.0564  0.1898
   39MOL    C86 9282   3.878   0.295   4.664 -0.0031  0.3490  0.6139
   39MOL    C87 9283   3.869   0.454   4.650 -0.0750  0.1485  0.0762
   39MOL    C88 9284   3.863   0.491   4.496  0.3536  0.2003  0.4709
   39MOL    C89 9285   3.747   0.516   4.728  0.5434  0.6782  0.2554
   39MOL    O90 9286   3.676   0.601   4.676 -0.1050  0.5836  0.5632
   39MOL    O91 9287   3.723   0.461   4.849  0.6155 -0.2923 -0.3872
   39MOL    H92 9288   3.864   0.281   4.771 -1.0670 -2.0564  0.1862
   39MOL    H93 9289   3.974   0.249   4.641 -1.2944 -3.5528  2.5737
   39MOL    H94 9290   3.941   0.443   4.437  1.0978  0.1569  1.4728
   39MOL    H95 9291   3.874   0.596   4.470  0.9306 -0.2141 -0.9898
   39MOL    H96 9292   3.769   0.458   4.452  1.8703 -1.8492 -1.3386
   39MOL    H97 9293   3.636   0.475   4.884  1.8922 -0.4926  3.1273
   39MOL    C98 9294   4.006   0.500   4.718 -0.2987 -0.4298  0.9455
   39MOL    C99 9295   4.035   0.647   4.783  0.8474 -0.1092 -0.2829
   39MOL   C100 9296   4.191   0.646   4.808  0.1367 -0.3119  0.1824
   39MOL   C101 9297   4.005   0.763   4.676 -0.0838 -0.2634  0.7324
   39MOL   O102 9298   4.084   0.801   4.593 -0.0790  0.3419  0.7601
   39MOL   O103 9299   3.867   0.804   4.681 -0.2567 -0.2713  0.2285
   39MOL   H104 9300   4.038   0.424   4.789 -0.5646  0.0675  1.5974
   39MOL   H105 9301   4.081   0.492   4.639 -0.7906  0.0258  0.4295
   39MOL   H106 9302   4.252   0.603   4.729  2.3603  1.6819  0.7246
   39MOL   H107 9303   4.222   0.598   4.901  3.2651  1.2754  0.0473
   39MOL   H108 9304   4.226   0.746   4.833 -1.5700  0.0222  1.3365
   39MOL   H109 9305   3.854   0.866   4.611 -0.4436 -2.1561 -1.4526
   39MOL   C110 9306   3.954   0.655   4.920 -0.1527 -0.3383  0.0199
   39MOL   C111 9307   3.984   0.760   5.038 -0.2408  0.1560  0.6974
   39MOL   C112 9308   4.113   0.722   5.103 -0.1229 -0.1350  0.5373
   39MOL   C113 9309   3.983   0.901   4.964 -0.2918 -0.1396 -0.0946
   39MOL   O114 9310   3.889   0.959   4.912  0.3780 -0.8851 -0.9212
   39MOL   O115 9311   4.102   0.963   4.967  0.1852 -0.1640 -0.6683
   39MOL   H116 9312   3.847   0.666   4.898 -0.2881 -1.2160  0.2246
   39MOL   H117 9313   3.955   0.555   4.964  0.7260 -0.5976 -0.6051
   39MOL   H118 9314   4.125   0.614   5.096  0.4118 -0.0658  0.3228
   39MOL   H119 9315   4.111   0.744   5.210  1.4530  0.6999  0.4183
   39MOL   H120 9316   4.204   0.763   5.058 -0.5665 -1.1953 -1.3515
   39MOL   H121 9317   4.103   1.038   4.910  0.7691 -1.0326 -1.8267
   39MOL   C122 9318   3.869   0.737   5.144 -0.1427 -0.6481  0.6512
   39MOL   C123 9319   3.833   0.843   5.255  0.1787 -0.3348 -0.0810
   39MOL   C124 9320   3.710   0.919   5.204 -0.3486  0.5456 -0.3119
   39MOL   C125 9321   3.781   0.761   5.377 -0.1392 -0.1817 -0.1616
   39MOL   O126 9322   3.835   0.766   5.486 -0.1231 -0.4865  0.5241
   39MOL   O127 9323   3.678   0.673   5.342 -0.1596 -0.1602 -0.3998
   39MOL   H128 9324   3.779   0.711   5.089  2.0024 -2.4998 -2.1549
   39MOL   H129 9325   3.882   0.638   5.187 -0.7393 -0.7013  0.7135
   39MOL   H130 9326   3.659   0.976   5.281  0.7342 -0.1327  0.9262
   39MOL   H131 9327   3.625   0.869   5.157  0.6101 -0.3765 -1.0921
   39MOL   H132 9328   3.736   0.996   5.131 -1.5169  0.3386 -0.9476
   39MOL   H133 9329   3.664   0.630   5.425 -1.6664  3.3002  1.2049
   39MOL   C134 9330   3.956   0.931   5.296 -0.5202 -0.1126 -0.0998
   39MOL   C135 9331   3.946   1.083   5.359  0.7767 -0.3668 -0.5589
   39MOL   C136 9332   3.853   1.087   5.481  0.2524  0.4170  1.1859
   39MOL   C137 9333   4.095   1.104   5.411  0.3077  0.1060  0.6765
   39MOL   O138 9334   4.122   1.100   5.527  0.3322 -0.2541 -0.1831
   39MOL   O139 9335   4.188   1.119   5.310  0.0297 -0.3392 -0.2511
   39MOL   H140 9336   4.008   0.876   5.374 -0.1384  2.8618  1.8652
   39MOL   H141 9337   4.026   0.950   5.215 -0.5845  0.8164  0.0494
   39MOL   H142 9338   3.874   1.179   5.535  0.1073  0.6679  0.8233
   39MOL   H143 9339   3.889   1.003   5.541  1.6665  0.4938  0.4721
   39MOL   H144 9340   3.746   1.075   5.462  0.5474 -0.6625  0.1377
   39MOL   H145 9341   4.275   1.125   5.346  0.9983  1.1490 -2.7346
   39MOL   C146 9342   3.900   1.183   5.254 -0.2733 -0.8791 -0.1205
   39MOL   C147 9343   3.921   1.339   5.260 -0.3503 -0.0263  0.7452
   39MOL   C148 9344   3.910   1.392   5.408  0.4610 -0.1327 -0.1288
   39MOL   C149 9345   4.061   1.394   5.204 -0.2837  0.1670 -0.2127
   39MOL   O150 9346   4.134   1.330   5.134  0.6863  0.3736  0.3931
   39MOL   O151 9347   4.086   1.519   5.241  0.0553  0.2721 -0.3439
   39MOL   H152 9348   3.939   1.160   5.154 -0.0930 -0.1749 -0.2165
   39MOL   H153 9349   3.793   1.170   5.263 -0.0921 -0.5806  2.7639
   39MOL   H154 9350   3.916   1.500   5.421  1.3373 -0.2889  0.8812
   39MOL   H155 9351   3.991   1.340   5.459  1.8208  1.4124 -0.6743
   39MOL   H156 9352   3.818   1.359   5.456 -0.5443  0.3511 -1.6950
   39MOL   H157 9353   4.174   1.509   5.207  0.7426  0.7018  1.2410
   39MOL   C158 9354   3.795   1.415   5.197  0.3633  0.4668  0.0929
   39MOL   C159 9355   3.774   1.425   5.039  0.1985  0.5811 -0.3057
   39MOL   C160 9356   3.838   1.554   4.990  0.2847 -0.0007  0.6635
   39MOL   C161 9357   3.837   1.302   4.966 -0.1683 -0.1968  0.3697
   39MOL   O162 9358   3.942   1.315   4.903 -0.2048 -0.1507 -0.2494
   39MOL   O163 9359   3.759   1.198   4.965  0.0343 -0.1814 -0.5777
   39MOL   H164 9360   3.709   1.364   5.240  1.7091  0.9096  3.4835
   39MOL   H165 9361   3.797   1.520   5.229  0.6223  0.7897 -0.9616
   39MOL   H166 9362   3.946   1.548   4.997  0.2135 -1.1934  0.8505
   39MOL   H167 9363   3.801   1.634   5.054  2.9060 -0.3079  2.6162
   39MOL   H168 9364   3.814   1.552   4.884 -0.8338 -2.3077  0.9351
   39MOL   H169 9365   3.801   1.135   4.909 -0.5202 -0.5676 -0.5689
   39MOL   C170 9366   3.617   1.449   5.009 -0.0475 -0.4817 -0.0911
   39MOL   C171 9367   3.497   1.366   5.072 -0.1981  0.4566 -0.3063
   39MOL   C172 9368   3.524   1.215   5.099  0.1920 -0.2921 -0.3967
   39MOL   C173 9369   3.449   1.426   5.205 -0.4216  0.1817  0.0633
   39MOL   O174 9370   3.471   1.370   5.314 -0.1438 -0.1078  0.1593
   39MOL   O175 9371   3.387   1.547   5.190 -0.4669 -0.5621  0.2082
   39MOL   H176 9372   3.583   1.552   5.020  1.0859  0.1816 -2.3574
   39MOL   H177 9373   3.614   1.450   4.900 -2.1503 -1.4905 -0.0626
   39MOL   H178 9374   3.613   1.212   5.161  0.4725  1.2585 -0.7047
   39MOL   H179 9375   3.531   1.150   5.011 -1.2844 -2.1170  0.7827
   39MOL   H180 9376   3.452   1.164   5.164  0.4506  0.7522  0.7195
   39MOL   H181 9377   3.366   1.569   5.280 -0.3820 -0.6451  0.2485
   39MOL   C182 9378   3.386   1.358   4.963  0.0108 -1.0190 -0.3005
   39MOL   C183 9379   3.249   1.283   4.963 -0.0458 -0.4107 -0.3482
   39MOL   C184 9380   3.164   1.332   4.841  0.0529  0.1705 -0.0003
   39MOL   C185 9381   3.273   1.130   4.941  0.1112  0.0306  0.4919
   39MOL   O186 9382   3.271   1.042   5.028  0.1246 -0.1231 -0.1133
   39MOL   O187 9383   3.296   1.098   4.811 -0.3010  0.5484  0.0585
   39MOL   H188 9384   3.360   1.462   4.942 -1.8159 -1.2653  0.6690
   39MOL   H189 9385   3.435   1.318   4.874 -0.2512 -3.4853  0.6313
   39MOL   H190 9386   3.117   1.430   4.858  0.2381  0.1490  0.6305
   39MOL   H191 9387   3.088   1.260   4.809  0.9084 -1.4798  1.6411
   39MOL   H192 9388   3.230   1.345   4.755 -2.3773  2.5917 -1.6244
   39MOL   H193 9389   3.301   1.006   4.792 -2.2334  0.7359 -1.4664
   39MOL   C194 9390   3.175   1.304   5.102 -0.4828  0.1211  0.1689
   39MOL   C195 9391   3.031   1.253   5.142 -0.3583 -0.0891 -0.0149
   39MOL   C196 9392   2.957   1.175   5.030  0.2837  0.0827  0.2859
   39MOL   C197 9393   3.055   1.156   5.265 -0.3664 -0.7905 -0.0133
   39MOL   O198 9394   3.049   1.032   5.261 -1.0780 -0.1555  0.3034
   39MOL   O199 9395   3.090   1.224   5.380  0.1799 -0.4784 -0.0604
   39MOL   H200 9396   3.247   1.268   5.176  0.1861  0.4754 -0.3082
   39MOL   H201 9397   3.182   1.412   5.114 -0.1572  0.0716  0.4272
   39MOL   H202 9398   2.923   1.256   4.967 -1.4699  0.1142  1.2443
   39MOL   H203 9399   2.872   1.125   5.076 -0.7767  1.4356 -0.1947
   39MOL   H204 9400   3.016   1.102   4.973  0.2140 -0.6867  1.1852
   39MOL   H205 9401   3.091   1.165   5.454  1.9377 -0.2088  0.1631
   39MOL   C206 9402   2.951   1.386   5.178  0.2614 -0.5515 -0.7330
   39MOL   C207 9403   2.798   1.388   5.212 -0.5228 -0.3043  0.4210
   39MOL   C208 9404   2.719   1.368   5.086 -0.7314  0.2361 -0.5375
   39MOL   C209 9405   2.763   1.280   5.314 -0.3086 -0.1895  0.2949
   39MOL   O210 9406   2.739   1.162   5.279  0.0403 -0.2983 -0.8242
   39MOL   O211 9407   2.750   1.320   5.446  0.1193  0.1389 -0.3389
   39MOL   H212 9408   3.007   1.429   5.261 -2.4914 -1.9463  1.9473
   39MOL   H213 9409   2.967   1.444   5.087 -0.9100  0.4729 -0.2962
   39MOL   H214 9410   2.611   1.376   5.101 -0.8207 -1.6811 -0.0466
   39MOL   H215 9411   2.728   1.268   5.046 -1.2876 -0.4604  1.0262
   39MOL   H216 9412   2.755   1.432   5.005  2.3765 -1.7194 -0.7843
   39MOL   H217 9413   2.732   1.241   5.495 -2.2275 -0.4132 -1.9892
   39MOL   C218 9414   2.770   1.536   5.271  0.3926  1.2751 -0.1489
   39MOL   C219 9415   2.777   1.671   5.192 -0.1752 -0.9816 -0.4201
   39MOL   C220 9416   2.718   1.669   5.051  0.6330  0.8236  0.0001
   39MOL   C221 9417   2.687   1.765   5.280  0.7995  0.1011 -0.6908
   39MOL   O222 9418   2.726   1.860   5.341 -0.0673  0.3619 -0.1562
   39MOL   O223 9419   2.555   1.736   5.268  0.1207  0.5570 -0.7953
   39MOL   H224 9420   2.692   1.537   5.347 -1.0294  2.7926 -1.5964
   39MOL   H225 9421   2.851   1.542   5.344  0.4365 -1.4042  0.0887
   39MOL   H226 9422   2.782   1.628   4.973 -0.6812 -0.5586 -0.3774
   39MOL   H227 9423   2.692   1.764   5.005 -0.8923 -0.0674 -1.0231
   39MOL   H228 9424   2.622   1.617   5.062  0.6778  1.0728  1.6767
   39MOL   H229 9425   2.514   1.812   5.306  3.6468  1.3536  1.5867
   39MOL   C230 9426   2.927   1.719   5.192  0.0799  0.1330  0.2367
   39MOL   C231 9427   2.972   1.857   5.138 -0.9938  0.9738  0.7266
   39MOL   C232 9428   3.123   1.885   5.167 -0.1427  0.2535 -0.2824
   39MOL   C233 9429   2.954   1.883   4.991 -0.7212 -0.0850  0.6147
   39MOL   O234 9430   2.956   1.795   4.907  0.4708 -0.2824  0.2899
   39MOL   O235 9431   2.913   2.011   4.963  0.1982 -0.4634 -0.8084
   39MOL   H236 9432   2.955   1.716   5.297 -0.0380  3.5619  0.4288
   39MOL   H237 9433   2.992   1.639   5.157  0.4782  0.1610  0.9110
   39MOL   H238 9434   3.148   1.877   5.273  0.1769 -0.7981 -0.4307
   39MOL   H239 9435   3.145   1.985   5.128 -1.8630  1.0632  0.7524
   39MOL   H240 9436   3.179   1.805   5.119 -0.0689 -0.5153  1.0464
   39MOL   H241 9437   2.873   2.004   4.878 -0.3219  1.7782 -0.7834
   39MOL   H242 9438   2.921   1.936   5.193  1.1205  1.6150  1.8274
   40MOL     C1 9439   2.145   6.999   7.560 -0.0403  0.2360  0.4137
   40MOL     C2 9440   2.203   7.119   7.648  0.3423 -0.3917 -0.2065
   40MOL     C3 9441   2.238   7.041   0.007 -0.5698  0.5541 -0.1288
   40MOL     C4 9442   2.341   7.171   7.586  0.3591  0.4799  0.0101
   40MOL     O5 9443   2.398   7.275   7.620  0.5579 -0.1414  0.4505
   40MOL     O6 9444   2.390   7.090   7.488  0.4218  0.0306 -0.3292
   40MOL     H7 9445   2.039   6.984   7.581  0.3874 -1.1071  1.7035
   40MOL     H8 9446   2.201   6.906   7.566 -0.3888 -0.0921 -1.0735
   40MOL     H9 9447   2.323   6.974   7.763 -0.0790  1.2016 -0.2932
   40MOL    H10 9448   2.152   6.978   0.029 -0.1693  0.5779  1.5991
   40MOL    H11 9449   2.248   7.110   0.091  0.1887 -1.7778  1.7600
   40MOL    H12 9450   2.477   7.112   7.459  0.1528 -0.5947 -1.6131
   40MOL    H13 9451   2.140   7.032   7.456  0.0337  1.1182  0.6896
   40MOL    C14 9452   2.101   7.229   7.679  0.5563 -0.6679  0.7971
   40MOL    C15 9453   2.013   7.308   7.574  0.8717  0.0979  0.3005
   40MOL    C16 9454   2.103   7.388   7.478  0.0624 -0.0171 -0.3554
   40MOL    C17 9455   1.920   7.209   7.496  0.2471  0.4640 -0.2071
   40MOL    O18 9456   1.908   7.199   7.374 -0.1268 -0.5714 -0.0011
   40MOL    O19 9457   1.849   7.135   7.589 -0.6258 -0.2741  0.0018
   40MOL    H20 9458   2.035   7.172   7.744  1.9903 -1.2242  1.8034
   40MOL    H21 9459   2.153   7.296   7.748  2.3748 -0.6826 -0.5240
   40MOL    H22 9460   2.043   7.440   7.403  1.1987 -0.1867 -1.3978
   40MOL    H23 9461   2.169   7.319   7.426 -1.6544 -0.7730 -1.6069
   40MOL    H24 9462   2.176   7.452   7.527  0.1197 -0.6083  0.3444
   40MOL    H25 9463   1.794   7.084   7.531 -1.2333 -0.2846  0.5765
   40MOL    C26 9464   1.923   7.396   7.657 -0.5529  0.0907  0.6299
   40MOL    C27 9465   1.812   7.505   7.612 -0.2405 -0.0706 -0.1591
   40MOL    C28 9466   1.874   7.614   7.516 -0.4257  0.3145  0.9851
   40MOL    C29 9467   1.700   7.443   7.532  0.8710 -0.5373 -0.4899
   40MOL    O30 9468   1.653   7.487   7.427 -0.7374 -0.3911 -0.2779
   40MOL    O31 9469   1.647   7.338   7.589 -0.0970 -0.3011  0.0465
   40MOL    H32 9470   1.888   7.335   7.740  0.5307 -0.2525  0.8400
   40MOL    H33 9471   1.998   7.460   7.705 -1.6871  1.9361 -0.0161
   40MOL    H34 9472   1.897   7.567   7.420  2.4164 -0.1983  1.8741
   40MOL    H35 9473   1.965   7.661   7.553  1.1681 -2.1565  0.3348
   40MOL    H36 9474   1.804   7.693   7.488  0.3180  0.7279  0.2508
   40MOL    H37 9475   1.568   7.330   7.538 -0.2787  1.2234  0.0714
   40MOL    C38 9476   1.765   7.574   7.754 -0.4839  0.0882  0.5154
   40MOL    C39 9477   1.682   7.708   7.765  0.5800  0.5550  0.3120
   40MOL    C40 9478   1.636   7.708   0.143  0.3446  1.0785 -0.3001
   40MOL    C41 9479   1.781   0.060   7.751 -0.1289  0.3276 -0.3993
   40MOL    O42 9480   1.849   0.100   0.077  0.0080 -0.2870 -0.1385
   40MOL    O43 9481   1.773   0.115   7.633  0.3732 -0.5397  0.7810
   40MOL    H44 9482   1.712   7.490   0.034 -0.6150  0.0831  0.3581
   40MOL    H45 9483   1.857   7.589   0.043  1.0444 -4.7016 -0.5001
   40MOL    H46 9484   1.719   7.720   0.213 -0.6417  0.0757  1.0755
   40MOL    H47 9485   1.582   7.618   0.174 -0.3368  1.3574 -0.6786
   40MOL    H48 9486   1.570   0.024   0.167 -0.5692 -0.0816  1.3954
   40MOL    H49 9487   1.834   0.186   7.618  0.7664 -0.8711  0.8010
   40MOL    C50 9488   1.557   7.707   7.669 -0.2564  0.0524  0.4071
   40MOL    C51 9489   1.442   0.055   7.674 -0.5634  0.7938 -0.1722
   40MOL    C52 9490   1.498   0.188   7.727 -0.4967 -0.8868 -0.1787
   40MOL    C53 9491   1.419   0.066   7.518 -0.6809  0.2359  0.0404
   40MOL    O54 9492   1.320   0.024   7.461  0.2094  0.3286  0.1391
   40MOL    O55 9493   1.520   0.139   7.455 -0.3690  0.4390 -0.0740
   40MOL    H56 9494   1.603   7.695   7.571  0.8837 -3.2951  1.2801
   40MOL    H57 9495   1.512   7.608   7.678 -0.2401 -0.0383 -0.4697
   40MOL    H58 9496   1.433   0.273   7.706 -1.4232 -2.1923 -2.8727
   40MOL    H59 9497   1.586   0.212   7.667 -0.2804 -2.1216 -0.3594
   40MOL    H60 9498   1.524   0.193   0.065 -0.2285 -1.1597 -0.2333
   40MOL    H61 9499   1.591   0.160   7.512  0.4390  1.7022 -1.5058
   40MOL    C62 9500   1.321   7.764   7.750  0.3777  0.3003  0.2089
   40MOL    C63 9501   1.181   0.077   0.016 -0.1774  0.2843 -0.1790
   40MOL    C64 9502   1.217   0.186   0.126 -0.5614  0.4413  0.3414
   40MOL    C65 9503   1.116   0.147   7.668 -0.8538 -1.1058 -0.7368
   40MOL    O66 9504   1.028   0.097   7.602  0.9659 -0.3662  0.0110
   40MOL    O67 9505   1.178   0.262   7.636  0.1211  0.6012 -0.2322
   40MOL    H68 9506   1.295   7.664   7.716  0.9528  0.5402 -0.9644
   40MOL    H69 9507   1.368   7.721   0.071  2.5092 -1.1860 -1.6124
   40MOL    H70 9508   1.275   0.269   0.084 -0.4706 -0.2098 -0.8488
   40MOL    H71 9509   1.282   0.151   0.206  0.9591  0.8619 -0.6780
   40MOL    H72 9510   1.129   0.222   0.178  0.2913  0.0742  2.0762
   40MOL    H73 9511   1.148   0.306   7.558 -0.7366 -2.0051 -1.4189
   40MOL    C74 9512   1.080   7.752   0.094 -0.1195  1.3060  0.3439
   40MOL    C75 9513   1.050   7.595   0.060 -0.0438  0.2195 -0.5047
   40MOL    C76 9514   1.034   7.578   7.673 -1.0117  0.2104 -0.5138
   40MOL    C77 9515   1.154   7.494   0.116 -0.1415 -0.0444  0.5421
   40MOL    O78 9516   1.234   7.522   0.200 -0.0522 -0.9259  0.2461
   40MOL    O79 9517   1.138   7.370   0.066  0.4136  0.0728  0.2441
   40MOL    H80 9518   1.121   7.738   0.194  0.0196  0.1706  0.1367
   40MOL    H81 9519   0.984   0.037   0.098 -0.9841 -0.2101 -0.2774
   40MOL    H82 9520   0.951   7.643   7.645 -1.3479 -0.7786 -1.8756
   40MOL    H83 9521   1.003   7.480   7.635 -0.3744 -0.1713 -0.0550
   40MOL    H84 9522   1.112   7.629   7.616  0.2055  1.4720  2.2052
   40MOL    H85 9523   1.177   7.300   0.117  0.8209  0.6977  0.8046
   40MOL    C86 9524   0.910   7.553   0.121  0.6341 -0.2089 -0.0267
   40MOL    C87 9525   0.884   7.532   0.280 -0.3328 -0.2397  0.8430
   40MOL    C88 9526   0.940   7.393   0.317  0.6478 -0.1967 -0.0621
   40MOL    C89 9527   0.944   7.646   0.368 -0.0759 -0.1864 -0.7939
   40MOL    O90 9528   0.908   7.762   0.356  1.0985 -0.1662 -0.3973
   40MOL    O91 9529   1.019   7.604   0.467  0.1325 -0.3067  0.2645
   40MOL    H92 9530   0.843   7.636   0.096  1.1883 -0.2600 -1.7062
   40MOL    H93 9531   0.878   7.468   0.062  0.6442  0.5459 -1.1348
   40MOL    H94 9532   1.048   7.401   0.332  0.3282  1.2743  1.5527
   40MOL    H95 9533   0.924   7.316   0.241 -1.1000  1.8443 -1.8090
   40MOL    H96 9534   0.899   7.369   0.415 -0.6651  0.5517 -0.4174
   40MOL    H97 9535   1.040   7.676   0.525  3.1628  1.0468 -2.3918
   40MOL    C98 9536   0.731   7.542   0.290 -0.3437  0.5083 -0.1218
   40MOL    C99 9537   0.636   7.469   0.392  0.6577  0.2297  0.4358
   40MOL   C100 9538   0.653   7.308   0.380  0.1762 -0.2312 -1.0996
   40MOL   C101 9539   0.673   7.508   0.535  0.2412  0.4401  0.0809
   40MOL   O102 9540   0.737   7.605   0.570  0.3021 -0.0170  0.0252
   40MOL   O103 9541   0.607   7.429   0.623  1.2980  0.5034  0.0199
   40MOL   H104 9542   0.692   7.644   0.285 -1.3705 -0.0169 -3.7376
   40MOL   H105 9543   0.693   7.507   0.194  0.9401 -1.3096  0.0091
   40MOL   H106 9544   0.666   7.283   0.275  0.5556 -0.3871 -1.0141
   40MOL   H107 9545   0.556   7.266   0.409 -0.4521  0.8518 -1.5898
   40MOL   H108 9546   0.731   7.256   0.435 -0.6084  2.4073  2.7405
   40MOL   H109 9547   0.606   7.451   0.715  0.4587  1.0028 -0.1029
   40MOL   C110 9548   0.483   7.495   0.369  0.6939 -0.6127  0.7213
   40MOL   C111 9549   0.405   7.487   0.225  0.1823 -0.0617 -0.0983
   40MOL   C112 9550   0.254   7.524   0.247  0.0278  0.2530  0.2135
   40MOL   C113 9551   0.453   7.601   0.132  0.1646  0.2427  0.1684
   40MOL   O114 9552   0.514   7.588   0.030 -0.6658  0.7966 -0.1788
   40MOL   O115 9553   0.413   7.720   0.179  0.3387 -1.1765  0.1246
   40MOL   H116 9554   0.427   7.441   0.446 -1.4024  0.5727  0.0829
   40MOL   H117 9555   0.478   7.599   0.400 -1.7871 -1.4365  3.3736
   40MOL   H118 9556   0.201   7.538   0.153  0.2720 -1.1541 -0.1565
   40MOL   H119 9557   0.236   7.617   0.299  2.1645  1.1258 -0.5508
   40MOL   H120 9558   0.219   7.450   0.319  2.7527 -0.1649  1.1870
   40MOL   H121 9559   0.443   0.018   0.117 -0.3876 -2.0487 -1.1723
   40MOL   C122 9560   0.426   7.345   0.162  0.6965 -0.2711  0.7100
   40MOL   C123 9561   0.333   7.274   0.052  0.6501 -0.7394 -0.2100
   40MOL   C124 9562   0.202   7.236   0.105  0.5345  0.2037 -0.2539
   40MOL   C125 9563   0.315   7.356   7.689  0.2366 -0.2026  0.5737
   40MOL   O126 9564   0.207   7.406   7.651 -0.6781 -0.2435  0.3743
   40MOL   O127 9565   0.440   7.380   7.634 -0.1615  0.0198 -0.2687
   40MOL   H128 9566   0.529   7.348   0.127  1.0742  0.1598  1.8375
   40MOL   H129 9567   0.426   7.274   0.245  0.0281 -0.7335  0.3132
   40MOL   H130 9568   0.136   7.198   0.027  1.1314 -0.8751 -0.2499
   40MOL   H131 9569   0.147   7.323   0.141  0.8660 -0.6023  2.3137
   40MOL   H132 9570   0.209   7.169   0.190 -1.7198 -1.4062 -1.2814
   40MOL   H133 9571   0.447   7.424   7.551  1.6354 -0.3104 -0.2972
   40MOL   C134 9572   0.412   7.135   0.024  0.1088  0.5171 -0.7039
   40MOL   C135 9573   0.373   7.020   7.694 -0.3620  0.2195 -0.5953
   40MOL   C136 9574   0.470   6.906   7.732 -0.1152 -0.6333 -0.2163
   40MOL   C137 9575   0.227   6.961   7.699  0.0560  0.7638 -0.6990
   40MOL   O138 9576   0.157   6.935   7.600 -0.1704  0.7935  0.2565
   40MOL   O139 9577   0.200   6.933   0.062 -0.0280  0.2169 -0.1926
   40MOL   H140 9578   0.518   7.158   0.008  0.6010 -1.9662 -1.2676
   40MOL   H141 9579   0.405   7.100   0.127  0.2302 -1.4122 -1.3276
   40MOL   H142 9580   0.471   6.904   0.074  0.0096  1.4642 -0.1573
   40MOL   H143 9581   0.573   6.917   7.700 -0.3763 -2.6482 -1.8623
   40MOL   H144 9582   0.435   6.807   7.701 -0.2087 -1.2078  1.6528
   40MOL   H145 9583   0.127   6.874   0.072  0.1901  0.1658  1.1976
   40MOL   C146 9584   0.397   7.074   7.553  0.8805  0.0437  0.2138
   40MOL   C147 9585   0.427   6.984   7.425 -0.1914 -0.4894  0.5746
   40MOL   C148 9586   0.569   7.023   7.370  0.2240  0.0109 -0.0858
   40MOL   C149 9587   0.418   6.828   7.434 -1.0200 -0.4545  0.4730
   40MOL   O150 9588   0.320   6.759   7.407  0.2773 -0.3631  0.0357
   40MOL   O151 9589   0.529   6.773   7.489  0.2015  0.8776  0.4878
   40MOL   H152 9590   0.312   7.135   7.522 -0.3480 -0.9976  1.4774
   40MOL   H153 9591   0.481   7.144   7.552  0.3411  0.7193 -2.8363
   40MOL   H154 9592   0.629   7.011   7.460  2.0094  1.2508 -1.0974
   40MOL   H155 9593   0.577   7.129   7.349 -2.7290  0.3100  0.0166
   40MOL   H156 9594   0.606   6.949   7.299 -0.6404 -1.1116  0.6111
   40MOL   H157 9595   0.513   6.680   7.498  0.2178  0.7687 -0.5130
   40MOL   C158 9596   0.320   7.020   7.313  0.2292 -0.3007  0.0377
   40MOL   C159 9597   0.299   7.167   7.239 -0.8765 -0.7828 -0.0153
   40MOL   C160 9598   0.161   7.147   7.166 -0.2421 -1.0405  0.5078
   40MOL   C161 9599   0.273   7.282   7.337 -0.6251  0.6757 -0.6343
   40MOL   O162 9600   0.367   7.361   7.370  0.1169 -0.2346 -0.3243
   40MOL   O163 9601   0.146   7.274   7.402 -0.6551 -0.2445 -0.0641
   40MOL   H164 9602   0.321   6.946   7.233  0.4771 -2.4000  1.9278
   40MOL   H165 9603   0.220   7.005   7.355  0.6447  1.4328  1.6900
   40MOL   H166 9604   0.174   7.057   7.106  0.7769 -0.4439 -0.1784
   40MOL   H167 9605   0.114   7.222   7.104  0.1525 -1.6491 -0.5544
   40MOL   H168 9606   0.084   7.120   7.238  0.4293 -2.1691  0.8333
   40MOL   H169 9607   0.134   7.348   7.460 -0.7336  1.1789 -1.8388
   40MOL   C170 9608   0.416   7.201   7.136 -0.1987  0.0794  0.5421
   40MOL   C171 9609   0.412   7.303   7.008 -0.0482  0.2772  0.0068
   40MOL   C172 9610   0.336   7.232   6.898 -0.9852 -0.2077  0.0868
   40MOL   C173 9611   0.328   7.431   7.047  0.2603 -0.3411  0.0531
   40MOL   O174 9612   0.370   7.513   7.127 -0.3540  0.4191  0.6583
   40MOL   O175 9613   0.217   7.454   6.974  0.0197 -0.4518 -0.1839
   40MOL   H176 9614   0.498   7.248   7.191 -0.6521  0.2623  1.0607
   40MOL   H177 9615   0.459   7.108   7.096 -1.3133 -0.7777  1.3263
   40MOL   H178 9616   0.332   7.276   6.798 -1.8201 -0.5543 -0.0432
   40MOL   H179 9617   0.233   7.203   6.921 -0.3273 -0.1779  3.1540
   40MOL   H180 9618   0.398   7.147   6.869  1.4658  1.3440  0.6439
   40MOL   H181 9619   0.170   7.530   7.005 -1.1862 -1.0937 -0.3895
   40MOL   C182 9620   0.563   7.345   6.973 -0.1307  0.5982 -0.7311
   40MOL   C183 9621   0.617   7.423   6.841 -0.5044 -0.6730  0.3665
   40MOL   C184 9622   0.771   7.431   6.867 -0.6809  0.4340  0.9962
   40MOL   C185 9623   0.590   7.338   6.715  0.3778  0.0015  0.4354
   40MOL   O186 9624   0.533   7.383   6.613 -0.0901  0.2064 -0.2979
   40MOL   O187 9625   0.641   7.218   6.720  0.5262 -0.0983 -0.3467
   40MOL   H188 9626   0.600   7.402   7.058 -0.6514 -1.9330  1.2412
   40MOL   H189 9627   0.620   7.252   6.974  1.1315  1.3560 -0.3051
   40MOL   H190 9628   0.793   7.471   6.965  0.2324 -3.2622  2.3691
   40MOL   H191 9629   0.821   7.478   6.782  0.3734 -1.5140  0.5217
   40MOL   H192 9630   0.814   7.331   6.869  0.8893  1.0870  0.3591
   40MOL   H193 9631   0.702   7.192   6.788 -1.3855 -3.1365  0.2941
   40MOL   C194 9632   0.557   7.569   6.833  0.7640 -0.1802 -0.0786
   40MOL   C195 9633   0.608   7.708   6.770 -0.7302 -0.2198  0.7357
   40MOL   C196 9634   0.726   7.762   6.856  0.4111 -0.3832  0.8509
   40MOL   C197 9635   0.660   7.687   6.625 -0.2380  0.2613 -0.1081
   40MOL   O198 9636   0.774   7.661   6.597 -0.1505  0.2300 -0.0502
   40MOL   O199 9637   0.562   7.695   6.531 -0.0605  0.1562  0.0192
   40MOL   H200 9638   0.458   7.550   6.792 -0.4950 -0.2157  2.8525
   40MOL   H201 9639   0.534   7.604   6.933  1.5955 -2.7543  1.0453
   40MOL   H202 9640   0.816   7.704   6.837 -0.7558 -1.9931  0.1340
   40MOL   H203 9641   0.702   0.002   6.962  0.2291 -0.8421  0.8451
   40MOL   H204 9642   0.745   0.101   6.840 -2.2365 -0.0613 -0.3102
   40MOL   H205 9643   0.596   7.668   6.447 -1.2780 -0.9272 -0.1352
   40MOL   C206 9644   0.484   0.046   6.775  0.0077  0.2956  0.2374
   40MOL   C207 9645   0.491   0.207   6.773  0.5976  0.3182  0.3703
   40MOL   C208 9646   0.343   0.255   6.775 -0.0801 -0.0602  0.5663
   40MOL   C209 9647   0.553   0.266   6.907 -0.1294 -0.8897 -0.5965
   40MOL   O210 9648   0.667   0.314   6.913 -0.5411 -0.7020  0.4024
   40MOL   O211 9649   0.468   0.265   7.014 -0.1464 -0.8714 -0.9773
   40MOL   H212 9650   0.414   0.018   6.696 -0.4410 -0.5507  0.9308
   40MOL   H213 9651   0.430   0.025   6.867 -0.9682  0.4416 -0.3021
   40MOL   H214 9652   0.342   0.364   6.781 -1.3548 -0.1502  2.8676
   40MOL   H215 9653   0.278   0.230   6.859  0.2456 -0.0224  0.8290
   40MOL   H216 9654   0.282   0.223   6.691  0.1469  2.3899 -0.5662
   40MOL   H217 9655   0.506   0.318   7.083  0.2450 -1.0044 -1.0942
   40MOL   C218 9656   0.561   0.253   6.642 -0.6099 -0.1591  0.4459
   40MOL   C219 9657   0.565   0.398   6.578  0.1996  0.2919  0.5645
   40MOL   C220 9658   0.617   0.512   6.670  0.0389 -0.6110  0.4191
   40MOL   C221 9659   0.673   0.383   6.464 -0.6607  0.6097 -0.2304
   40MOL   O222 9660   0.650   0.338   6.357  0.0235  0.0798 -0.2195
   40MOL   O223 9661   0.798   0.396   6.514 -0.2909  0.8359 -0.0069
   40MOL   H224 9662   0.664   0.225   6.663  0.9276  4.0774 -0.9624
   40MOL   H225 9663   0.519   0.190   6.563 -0.0821  0.1003 -0.0443
   40MOL   H226 9664   0.706   0.488   6.728  1.9943  0.8016 -1.8951
   40MOL   H227 9665   0.538   0.540   6.739  1.4165  0.4536  1.5763
   40MOL   H228 9666   0.632   0.607   6.619 -0.4064  0.8753  3.0179
   40MOL   H229 9667   0.803   0.429   6.602  3.5625 -2.6954  1.2544
   40MOL   C230 9668   0.430   0.439   6.520 -0.2022 -0.2049 -0.0057
   40MOL   C231 9669   0.411   0.571   6.429  0.4233 -0.1421  0.1015
   40MOL   C232 9670   0.281   0.552   6.351  0.0773 -0.5182 -0.1063
   40MOL   C233 9671   0.406   0.703   6.504 -0.1357 -0.9181 -0.4480
   40MOL   O234 9672   0.486   0.793   6.481 -0.3856 -0.2146  0.1169
   40MOL   O235 9673   0.317   0.699   6.603 -0.3964  0.9887 -0.2861
   40MOL   H236 9674   0.402   0.354   6.457  0.0767 -0.3316  0.0441
   40MOL   H237 9675   0.350   0.450   6.593 -0.2554  1.4617 -0.2934
   40MOL   H238 9676   0.263   0.458   6.298  0.2485 -0.3334 -0.4893
   40MOL   H239 9677   0.271   0.621   6.268 -0.1130 -1.2329 -0.6818
   40MOL   H240 9678   0.198   0.565   6.421  0.1989 -0.6108  0.0562
   40MOL   H241 9679   0.340   0.777   6.651 -0.4969  0.6245  0.3628
   40MOL   H242 9680   0.495   0.580   6.362  1.3527  3.3137  1.6353
   41MOL     C1 9681   2.699   4.499   0.739 -0.1466  0.2396 -0.4824
   41MOL     C2 9682   2.823   4.506   0.839  0.6230  0.3185  0.2806
   41MOL     C3 9683   2.865   4.370   0.895 -0.0962 -0.2751 -0.5417
   41MOL     C4 9684   2.947   4.554   0.753 -0.5057 -0.1439  0.2396
   41MOL     O5 9685   2.945   4.632   0.662 -0.3973 -0.1305  0.4008
   41MOL     O6 9686   3.068   4.511   0.804 -0.1986  0.4181  0.2876
   41MOL     H7 9687   2.665   4.600   0.718 -0.6133  0.3109  0.5750
   41MOL     H8 9688   2.622   4.438   0.786  0.6005  0.4133  1.0186
   41MOL     H9 9689   2.900   4.309   0.812  0.2233 -2.1410  0.9362
   41MOL    H10 9690   2.771   4.332   0.936  1.2226 -0.4601  2.4501
   41MOL    H11 9691   2.943   4.365   0.971  0.3251 -1.3166 -1.0302
   41MOL    H12 9692   3.124   4.549   0.739  0.6944 -1.1274  0.1235
   41MOL    H13 9693   2.720   4.440   0.649  2.8754 -0.1031  0.3856
   41MOL    C14 9694   2.804   4.627   0.941  0.0834 -0.2094 -0.0928
   41MOL    C15 9695   2.710   4.608   1.066  0.6036 -0.2919 -0.4931
   41MOL    C16 9696   2.580   4.536   1.037  0.6595 -0.1893 -0.2525
   41MOL    C17 9697   2.783   4.539   1.188 -0.0610 -0.1057  0.0711
   41MOL    O18 9698   2.729   4.466   1.270 -0.1650 -0.1097  0.2013
   41MOL    O19 9699   2.910   4.580   1.198 -0.2265 -0.3546 -0.1204
   41MOL    H20 9700   2.908   4.643   0.970  0.6397 -1.9284 -1.0691
   41MOL    H21 9701   2.779   4.714   0.880  3.5518  0.0657 -1.2617
   41MOL    H22 9702   2.544   4.585   0.946 -1.9581  1.8685  1.8114
   41MOL    H23 9703   2.496   4.537   1.107  0.3130  0.9655 -0.6734
   41MOL    H24 9704   2.604   4.431   1.020 -0.1292 -0.3501 -0.4182
   41MOL    H25 9705   2.969   4.547   1.264  3.3857  3.5268 -1.1711
   41MOL    C26 9706   2.669   4.749   1.128  0.2548 -0.3128 -0.2977
   41MOL    C27 9707   2.556   4.853   1.084  0.1950  0.9609 -0.6304
   41MOL    C28 9708   2.412   4.788   1.093 -1.0819  0.0120 -0.2660
   41MOL    C29 9709   2.569   4.979   1.187  1.1912  0.1433 -0.2952
   41MOL    O30 9710   2.502   4.998   1.287 -0.3793 -0.7139 -0.0072
   41MOL    O31 9711   2.665   5.064   1.148  0.1586  0.4924 -0.2479
   41MOL    H32 9712   2.639   4.732   1.231 -0.6532 -1.2611 -0.7139
   41MOL    H33 9713   2.761   4.807   1.127 -1.6839  2.8733 -0.1437
   41MOL    H34 9714   2.403   4.724   1.180  0.8245  1.2349  0.8648
   41MOL    H35 9715   2.394   4.724   1.006  1.6634  2.0264 -2.4445
   41MOL    H36 9716   2.331   4.861   1.099  0.6399  1.9002  0.5349
   41MOL    H37 9717   2.656   5.134   1.210  0.7361  1.5462 -1.3396
   41MOL    C38 9718   2.583   4.901   0.937 -0.2183 -0.0651 -0.4446
   41MOL    C39 9719   2.494   4.988   0.846  0.1926  0.4267  0.1158
   41MOL    C40 9720   2.590   5.031   0.731  0.1074  0.1522  0.8273
   41MOL    C41 9721   2.383   4.893   0.784 -0.4281 -0.2335  1.0379
   41MOL    O42 9722   2.258   4.903   0.808  0.4796 -0.4983  0.0406
   41MOL    O43 9723   2.439   4.805   0.691  0.3174 -0.3686  0.0114
   41MOL    H44 9724   2.688   4.930   0.937 -0.1130 -0.4357  1.1310
   41MOL    H45 9725   2.597   4.805   0.889 -2.3214 -0.1235 -1.0071
   41MOL    H46 9726   2.669   5.100   0.759  1.0520  0.1476 -1.6673
   41MOL    H47 9727   2.544   5.081   0.645  0.8917 -0.2823  0.1452
   41MOL    H48 9728   2.642   4.942   0.698 -1.7471 -0.8552  0.5538
   41MOL    H49 9729   2.373   4.748   0.654  0.0519 -0.8492  1.2140
   41MOL    C50 9730   2.449   5.117   0.924  0.5120 -0.0708 -0.5766
   41MOL    C51 9731   2.333   5.213   0.875 -0.3086 -0.4663 -0.0952
   41MOL    C52 9732   2.314   5.204   0.722  0.0738 -0.5007 -0.2057
   41MOL    C53 9733   2.189   5.189   0.921 -0.1784  0.1181 -0.0529
   41MOL    O54 9734   2.099   5.258   0.885  0.2751 -0.4759 -0.1107
   41MOL    O55 9735   2.176   5.089   1.007 -0.6067 -0.2542 -0.1050
   41MOL    H56 9736   2.413   5.088   1.023 -1.5722  0.1276 -1.2390
   41MOL    H57 9737   2.533   5.181   0.949 -0.4669  1.3813 -0.9121
   41MOL    H58 9738   2.238   5.276   0.692 -0.4832 -1.1471 -0.3400
   41MOL    H59 9739   2.269   5.116   0.677 -0.4384 -1.2379  1.7210
   41MOL    H60 9740   2.405   5.236   0.669 -0.0855  0.4429  0.0820
   41MOL    H61 9741   2.090   5.088   1.046 -0.3549  2.3030  0.6278
   41MOL    C62 9742   2.378   5.359   0.891  0.4992 -0.3329 -0.3485
   41MOL    C63 9743   2.382   5.431   1.029 -0.5341  0.6119 -0.5385
   41MOL    C64 9744   2.244   5.496   1.065  0.4437 -0.1601  0.3324
   41MOL    C65 9745   2.415   5.324   1.142 -0.5690 -0.0064 -0.3717
   41MOL    O66 9746   2.525   5.297   1.176  0.2318 -0.3377  0.2078
   41MOL    O67 9747   2.310   5.262   1.197  0.3423  0.2635 -0.3553
   41MOL    H68 9748   2.484   5.359   0.864  0.7189 -0.3831  0.4907
   41MOL    H69 9749   2.321   5.427   0.826  2.6085  2.6570  0.7953
   41MOL    H70 9750   2.226   5.515   1.170  0.8632  0.3634  0.3132
   41MOL    H71 9751   2.165   5.424   1.044 -0.6277  0.3760  2.4126
   41MOL    H72 9752   2.229   5.585   1.005  0.7619  0.7902  1.6574
   41MOL    H73 9753   2.324   5.193   1.260  1.6357 -0.5734 -1.5227
   41MOL    C74 9754   2.491   5.550   1.028  0.2737 -0.2952 -0.6956
   41MOL    C75 9755   2.518   5.659   1.150  0.5066  0.5517 -0.4731
   41MOL    C76 9756   2.425   5.778   1.120  0.4762 -0.4164  0.5229
   41MOL    C77 9757   2.492   5.599   1.299  0.3460  0.5907  0.2249
   41MOL    O78 9758   2.408   5.648   1.376  0.2096 -0.1207  0.1711
   41MOL    O79 9759   2.584   5.512   1.348  0.5189  0.6588 -0.7738
   41MOL    H80 9760   2.594   5.517   1.018  0.9245  1.5145 -0.0680
   41MOL    H81 9761   2.473   5.608   0.938 -0.4152  0.1577 -0.2723
   41MOL    H82 9762   2.444   5.820   1.022 -2.1845 -1.9121 -0.6765
   41MOL    H83 9763   2.428   5.864   1.187 -1.6510  1.1327 -1.3161
   41MOL    H84 9764   2.320   5.755   1.134 -0.0116  1.3275 -0.2451
   41MOL    H85 9765   2.638   5.495   1.271  2.1347  0.4611  0.3732
   41MOL    C86 9766   2.664   5.707   1.129  0.7745  0.0134 -0.2820
   41MOL    C87 9767   2.723   5.840   1.202 -0.5512  0.4917 -0.5187
   41MOL    C88 9768   2.871   5.826   1.161 -0.0839  0.4272  0.6213
   41MOL    C89 9769   2.686   5.972   1.126 -0.0019 -0.1501  0.0778
   41MOL    O90 9770   2.742   5.998   1.017 -0.2213 -0.8955 -0.1985
   41MOL    O91 9771   2.576   6.037   1.173 -0.2117  0.2538  0.0476
   41MOL    H92 9772   2.722   5.625   1.169  0.1290  0.2680  1.1817
   41MOL    H93 9773   2.694   5.712   1.024 -0.6207 -0.2797 -0.7034
   41MOL    H94 9774   2.881   5.779   1.063 -2.6752  1.2388 -0.0668
   41MOL    H95 9775   2.901   5.743   1.226 -2.6426 -0.0578  1.2239
   41MOL    H96 9776   2.934   5.914   1.169  1.7446 -0.8538  0.8167
   41MOL    H97 9777   2.541   6.101   1.113 -1.2844 -0.3900 -0.0164
   41MOL    C98 9778   2.702   5.836   1.356  0.5814 -0.2524 -0.5262
   41MOL    C99 9779   2.791   5.908   1.476  0.0708 -0.2432  0.2156
   41MOL   C100 9780   2.945   5.881   1.465  0.3181 -1.3768  0.0340
   41MOL   C101 9781   2.760   6.060   1.461 -0.3835 -0.0527 -0.7898
   41MOL   O102 9782   2.666   6.118   1.515  0.2346 -0.0393 -0.3781
   41MOL   O103 9783   2.850   6.119   1.370  0.7135 -0.0847 -0.4853
   41MOL   H104 9784   2.598   5.864   1.373  0.5931  0.0681 -0.9738
   41MOL   H105 9785   2.715   5.729   1.373  1.7046 -0.3084 -1.7402
   41MOL   H106 9786   2.995   5.905   1.372  1.2788 -2.7682  0.1728
   41MOL   H107 9787   2.967   5.778   1.493  1.0184 -1.4320 -0.7224
   41MOL   H108 9788   2.985   5.949   1.540 -1.5859  1.2496 -1.2510
   41MOL   H109 9789   2.835   6.212   1.367  0.3874 -0.0615  1.3724
   41MOL   C110 9790   2.712   5.847   1.607 -0.6539 -0.4740  0.2950
   41MOL   C111 9791   2.787   5.819   1.745  0.5456 -0.1953  0.1065
   41MOL   C112 9792   2.672   5.786   1.846 -0.0990  0.4600 -0.1192
   41MOL   C113 9793   2.861   5.678   1.738 -0.1255 -0.5283 -0.2671
   41MOL   O114 9794   2.821   5.589   1.662  0.5087 -0.2605 -0.1234
   41MOL   O115 9795   2.968   5.660   1.827  0.0266 -0.3394  0.3096
   41MOL   H116 9796   2.627   5.915   1.619  1.3128  2.3603 -1.3690
   41MOL   H117 9797   2.650   5.759   1.585  1.7250 -1.7980 -1.3595
   41MOL   H118 9798   2.583   5.848   1.836 -0.9140 -0.1872  2.6841
   41MOL   H119 9799   2.699   5.784   1.951 -1.1718  0.8964  0.1648
   41MOL   H120 9800   2.643   5.682   1.832  3.3483 -0.6919  0.7187
   41MOL   H121 9801   2.973   5.735   1.885  2.0451 -0.8026  0.7642
   41MOL   C122 9802   2.884   5.930   1.787 -0.0662  0.2315  0.1179
   41MOL   C123 9803   2.885   6.008   1.928  0.0067  0.6265  0.3355
   41MOL   C124 9804   2.752   6.094   1.932 -0.2938 -0.1650 -0.3870
   41MOL   C125 9805   2.893   5.915   2.049  0.0496  0.1563  0.8271
   41MOL   O126 9806   2.969   5.819   2.041 -0.3395 -0.3710  0.5647
   41MOL   O127 9807   2.824   5.952   2.161 -0.1660  0.0379  0.0779
   41MOL   H128 9808   2.985   5.889   1.777  0.3259  1.1779  0.1588
   41MOL   H129 9809   2.875   6.013   1.717 -1.7070  0.2816  0.3761
   41MOL   H130 9810   2.758   6.165   1.850 -3.4457 -1.0246 -1.4281
   41MOL   H131 9811   2.732   6.152   2.022  0.9319 -1.8188  0.9994
   41MOL   H132 9812   2.658   6.047   1.903  0.8149 -2.9540  0.3436
   41MOL   H133 9813   2.842   5.903   2.240  1.7625  1.4185  0.5576
   41MOL   C134 9814   3.008   6.105   1.929  0.1179  0.2266 -0.2428
   41MOL   C135 9815   3.043   6.218   2.035  0.1654 -0.5936  0.2556
   41MOL   C136 9816   2.953   6.340   2.000 -0.0347 -0.8407 -0.1896
   41MOL   C137 9817   3.016   6.178   2.179  0.6596 -0.6386 -0.0074
   41MOL   O138 9818   3.079   6.092   2.231 -0.2825 -0.4058 -0.2088
   41MOL   O139 9819   2.911   6.243   2.235  0.4513  0.1902 -0.3936
   41MOL   H140 9820   3.094   6.038   1.931 -0.8972 -1.1298 -1.1207
   41MOL   H141 9821   3.023   6.151   1.831 -0.4911 -1.4575 -1.1455
   41MOL   H142 9822   2.845   6.324   1.999 -0.0065 -1.0256 -3.1281
   41MOL   H143 9823   2.974   6.370   1.898 -0.1926  0.0753  0.0416
   41MOL   H144 9824   2.974   6.436   2.046  0.2771  0.2694 -2.6335
   41MOL   H145 9825   2.900   6.198   2.318 -0.0829  0.3766 -0.3608
   41MOL   C146 9826   3.200   6.249   2.019 -0.1326 -0.1113 -0.2479
   41MOL   C147 9827   3.268   6.388   2.057  0.6878 -0.1285  0.4747
   41MOL   C148 9828   3.253   6.479   1.934  0.0214  0.1385 -0.1692
   41MOL   C149 9829   3.197   6.466   2.178 -0.0633  0.2245  0.4380
   41MOL   O150 9830   3.148   6.578   2.168 -0.0574 -0.1819  0.5912
   41MOL   O151 9831   3.202   6.399   2.292  0.0235  0.6546  0.2277
   41MOL   H152 9832   3.247   6.176   2.084  1.7225  1.5735  0.3580
   41MOL   H153 9833   3.231   6.228   1.917 -1.5547 -0.3038 -0.6536
   41MOL   H154 9834   3.294   6.430   1.846 -1.0625  0.7669 -1.0388
   41MOL   H155 9835   3.303   6.573   1.960 -1.0108  0.8095 -0.5949
   41MOL   H156 9836   3.147   6.498   1.920  0.2280  1.0108 -0.5955
   41MOL   H157 9837   3.245   6.316   2.279 -2.2352 -0.4843 -0.2954
   41MOL   C158 9838   3.420   6.363   2.089 -0.0044 -0.0845 -0.1854
   41MOL   C159 9839   3.535   6.470   2.122  0.4725 -0.0350  0.1347
   41MOL   C160 9840   3.488   6.591   2.211  0.2299  0.7371  0.3497
   41MOL   C161 9841   3.641   6.414   2.212 -0.2063  0.2344 -0.2020
   41MOL   O162 9842   3.631   6.296   2.258  0.6262 -0.1911 -0.2647
   41MOL   O163 9843   3.745   6.496   2.249 -0.6004  0.0031  0.6022
   41MOL   H164 9844   3.418   6.285   2.166 -0.2768  0.0622 -0.0435
   41MOL   H165 9845   3.465   6.299   2.014  0.6384 -0.7555  0.7549
   41MOL   H166 9846   3.418   6.653   2.154 -0.3738  0.5077  0.8397
   41MOL   H167 9847   3.565   6.660   2.245  0.3715  0.4127  0.6780
   41MOL   H168 9848   3.444   6.538   2.295  4.1912 -0.5666  1.7110
   41MOL   H169 9849   3.800   6.466   2.320  0.3219  1.3648  0.4881
   41MOL   C170 9850   3.613   6.519   1.995 -0.8033  0.5946  0.0469
   41MOL   C171 9851   3.676   6.427   1.886  0.1846 -0.2452 -0.4953
   41MOL   C172 9852   3.568   6.404   1.777  0.5236 -0.3409  0.9544
   41MOL   C173 9853   3.796   6.510   1.828  0.2481  0.4371 -0.1589
   41MOL   O174 9854   3.810   6.538   1.712  0.1138 -0.0394  0.1269
   41MOL   O175 9855   3.898   6.538   1.918 -0.3674  0.5705  0.1148
   41MOL   H176 9856   3.543   6.585   1.944  0.4098  1.4123 -0.6051
   41MOL   H177 9857   3.682   6.596   2.031  1.2295 -1.8422  1.4878
   41MOL   H178 9858   3.525   6.499   1.743  1.7977  0.8623  2.6112
   41MOL   H179 9859   3.485   6.336   1.793 -0.3386 -0.0415 -1.9795
   41MOL   H180 9860   3.624   6.360   1.695 -1.0939 -2.3748  0.9148
   41MOL   H181 9861   3.968   6.586   1.877  0.4623 -1.5520 -1.0481
   41MOL   C182 9862   3.732   6.283   1.934  0.6409 -1.3241  0.2648
   41MOL   C183 9863   3.776   6.159   1.849  0.0595  0.7252  0.6378
   41MOL   C184 9864   3.888   6.215   1.753 -0.0384  0.3622 -0.6994
   41MOL   C185 9865   3.842   6.051   1.940  0.5045 -0.1968 -0.7484
   41MOL   O186 9866   3.946   6.002   1.918 -0.3361 -0.0772  0.0776
   41MOL   O187 9867   3.758   6.026   2.040 -0.1460 -0.3590  0.0569
   41MOL   H188 9868   3.805   6.318   2.007  2.9815  0.5889 -2.8547
   41MOL   H189 9869   3.665   6.235   2.005  0.7204 -0.0205  1.2314
   41MOL   H190 9870   3.935   6.149   1.680  0.5893  1.0964 -0.9665
   41MOL   H191 9871   3.972   6.263   1.802  2.1208 -0.8965 -3.0448
   41MOL   H192 9872   3.845   6.287   1.684  0.4453  0.2323 -1.1356
   41MOL   H193 9873   3.806   5.971   2.100 -2.7251 -1.2236  1.4169
   41MOL   C194 9874   3.661   6.102   1.761  0.3066 -0.0670  0.2938
   41MOL   C195 9875   3.652   5.958   1.689  0.1125 -0.3623 -0.3624
   41MOL   C196 9876   3.782   5.940   1.625 -0.3603 -0.2440  0.3379
   41MOL   C197 9877   3.635   5.846   1.798 -0.8369  0.2208  0.4157
   41MOL   O198 9878   3.691   5.737   1.786 -0.4352 -0.1716 -0.6444
   41MOL   O199 9879   3.559   5.881   1.908 -0.3800  0.2322  0.6079
   41MOL   H200 9880   3.571   6.116   1.821  0.7494 -1.6065  1.3359
   41MOL   H201 9881   3.641   6.167   1.676 -1.1342 -0.0940  0.5894
   41MOL   H202 9882   3.819   6.016   1.556 -0.0143 -0.9385 -0.2370
   41MOL   H203 9883   3.788   5.845   1.573  1.0887 -0.0824  0.2089
   41MOL   H204 9884   3.864   5.941   1.696  1.8078 -1.8922 -2.0909
   41MOL   H205 9885   3.564   5.826   1.985  2.6677 -2.4137 -1.3293
   41MOL   C206 9886   3.550   5.942   1.572 -0.4416 -0.3805 -0.0140
   41MOL   C207 9887   3.397   5.986   1.561 -0.0377 -1.0226 -0.1272
   41MOL   C208 9888   3.330   5.917   1.444 -0.6057 -0.0019  0.4363
   41MOL   C209 9889   3.322   5.956   1.691  0.4155 -0.1792 -0.1315
   41MOL   O210 9890   3.261   5.857   1.707 -0.1475 -0.2831 -0.1346
   41MOL   O211 9891   3.337   6.044   1.794 -0.1029  0.3752 -0.1829
   41MOL   H212 9892   3.607   5.976   1.485 -0.9991 -0.9200 -0.5974
   41MOL   H213 9893   3.560   5.835   1.553 -0.1317 -0.1517 -1.2410
   41MOL   H214 9894   3.226   5.950   1.444 -0.6385 -0.0875  1.2063
   41MOL   H215 9895   3.338   5.808   1.452 -0.9508 -0.0050  0.7552
   41MOL   H216 9896   3.370   5.932   1.344 -1.3507  0.4559  0.2091
   41MOL   H217 9897   3.308   6.004   1.874 -1.8711  2.2882  0.1689
   41MOL   C218 9898   3.411   6.142   1.534 -0.0448  0.2036 -0.3482
   41MOL   C219 9899   3.291   6.235   1.485  0.2034 -0.1452 -0.8483
   41MOL   C220 9900   3.159   6.228   1.570  0.3796 -0.3830  0.4831
   41MOL   C221 9901   3.348   6.377   1.505  0.4777 -0.3464 -0.9522
   41MOL   O222 9902   3.286   6.478   1.556 -0.9857  0.2537 -0.2436
   41MOL   O223 9903   3.469   6.385   1.447  0.0542 -0.6832  0.2281
   41MOL   H224 9904   3.452   6.187   1.624 -1.3343 -2.0395  1.4229
   41MOL   H225 9905   3.485   6.146   1.454 -0.7335 -2.7875 -1.1860
   41MOL   H226 9906   3.192   6.224   1.673  2.2489 -1.4878 -0.1229
   41MOL   H227 9907   3.102   6.136   1.557  2.3257 -1.7465  1.3778
   41MOL   H228 9908   3.089   6.310   1.551  2.8229  1.4745 -0.8650
   41MOL   H229 9909   3.498   6.475   1.444  0.3722 -0.8267 -1.4318
   41MOL   C230 9910   3.261   6.211   1.337  0.6024  0.4082 -0.1654
   41MOL   C231 9911   3.180   6.318   1.261  0.7047 -0.1800  0.5741
   41MOL   C232 9912   3.248   6.419   1.167 -0.8202 -0.3978  0.7499
   41MOL   C233 9913   3.064   6.254   1.185 -0.8749  0.8932 -0.6882
   41MOL   O234 9914   3.066   6.135   1.152 -0.2502 -0.5103  0.3313
   41MOL   O235 9915   2.968   6.342   1.154 -0.1319 -0.0671  0.3409
   41MOL   H236 9916   3.354   6.193   1.282 -0.0291 -2.4163 -0.3720
   41MOL   H237 9917   3.210   6.115   1.337 -0.5751  0.9773  2.9771
   41MOL   H238 9918   3.308   6.374   1.087 -1.8031  0.2820 -0.3977
   41MOL   H239 9919   3.311   6.491   1.218 -1.7445  0.5717  0.5369
   41MOL   H240 9920   3.168   6.481   1.126 -0.1477  0.1680  0.2820
   41MOL   H241 9921   2.890   6.315   1.107 -0.3630 -0.5782  1.0107
   41MOL   H242 9922   3.124   6.372   1.338  0.8956  1.4263 -0.3786
   42MOL     C1 9923   5.885   7.398   2.156 -0.2423 -0.3266 -0.5507
   42MOL     C2 9924   5.776   7.354   2.058  0.1528 -0.3680  0.1942
   42MOL     C3 9925   5.642   7.350   2.137 -0.6745 -0.4168 -0.7518
   42MOL     C4 9926   5.768   7.464   1.946 -0.1597  0.8236  0.4636
   42MOL     O5 9927   5.665   7.505   1.892  0.0043  1.0821  0.3035
   42MOL     O6 9928   5.893   7.491   1.899  0.5770 -0.2693 -0.0231
   42MOL     H7 9929   5.868   7.495   2.202 -0.1284 -0.7464  0.3928
   42MOL     H8 9930   5.984   7.414   2.114 -0.6754  1.4377 -0.9491
   42MOL     H9 9931   5.648   7.261   2.200 -0.7941 -1.3993 -2.1013
   42MOL    H10 9932   5.552   7.346   2.077  0.7774 -0.7168 -2.9910
   42MOL    H11 9933   5.640   7.442   2.196  1.2470 -1.2711  0.6811
   42MOL    H12 9934   5.891   7.553   1.829 -1.4139 -0.5874 -0.2598
   42MOL    H13 9935   5.899   7.330   2.240  0.7926  1.7407  0.9648
   42MOL    C14 9936   5.822   7.218   1.997 -0.6920  0.5952  0.1343
   42MOL    C15 9937   5.748   7.138   1.879  0.4486 -0.5607  0.2502
   42MOL    C16 9938   5.598   7.155   1.889 -0.2034 -0.4789 -0.3289
   42MOL    C17 9939   5.797   7.200   1.735 -0.1389  0.0609  0.1011
   42MOL    O18 9940   5.896   7.272   1.722  0.2366  0.2754 -0.6193
   42MOL    O19 9941   5.726   7.136   1.633 -0.4027  0.0590 -0.2913
   42MOL    H20 9942   5.930   7.205   1.995 -0.7538  0.1198 -0.1102
   42MOL    H21 9943   5.793   7.159   2.084 -0.7937  1.2364  0.5430
   42MOL    H22 9944   5.550   7.131   1.984 -1.8028 -2.7379 -1.6770
   42MOL    H23 9945   5.546   7.093   1.816  0.4464 -1.5261  0.0874
   42MOL    H24 9946   5.559   7.256   1.873 -0.1238 -0.0965  1.7104
   42MOL    H25 9947   5.766   7.163   1.552 -0.4850  1.1136  0.0031
   42MOL    C26 9948   5.768   6.982   1.885  0.1930 -0.3565  0.3986
   42MOL    C27 9949   5.910   6.909   1.900 -0.3065  0.1193 -0.3387
   42MOL    C28 9950   6.008   6.963   1.794  0.0299 -0.1386 -0.3221
   42MOL    C29 9951   5.978   6.932   2.037  0.1372 -0.2015  0.5100
   42MOL    O30 9952   5.909   6.944   2.137 -0.0743 -0.3036  0.0763
   42MOL    O31 9953   6.110   6.917   2.034 -0.8181  0.4411  0.1017
   42MOL    H32 9954   5.701   6.944   1.962 -1.2251  0.3714 -0.4653
   42MOL    H33 9955   5.725   6.951   1.790 -1.0928  2.9609 -0.1536
   42MOL    H34 9956   5.978   6.968   1.689  0.0766  0.4929 -0.3053
   42MOL    H35 9957   6.103   6.908   1.794 -0.3659 -0.8297 -0.3765
   42MOL    H36 9958   6.030   7.068   1.815  2.3431 -0.3896 -1.2869
   42MOL    H37 9959   6.136   6.927   2.124  0.7421  1.3612 -0.4494
   42MOL    C38 9960   5.898   6.755   1.875  0.1989 -0.1267  0.1506
   42MOL    C39 9961   5.773   6.667   1.923  0.1646 -0.5899 -0.4992
   42MOL    C40 9962   5.819   6.516   1.914  0.1955  0.1442  0.0915
   42MOL    C41 9963   5.732   6.681   2.079  0.0633 -0.7019 -0.1570
   42MOL    O42 9964   5.624   6.734   2.109  0.0803 -0.2531  0.3828
   42MOL    O43 9965   5.829   6.650   2.167 -0.3729  0.4136  0.0990
   42MOL    H44 9966   5.931   6.728   1.775  0.7837 -0.1657  0.3524
   42MOL    H45 9967   5.975   6.712   1.939  0.2612 -0.6853 -0.2946
   42MOL    H46 9968   5.905   6.499   1.978  1.0573  1.5998 -0.6648
   42MOL    H47 9969   5.852   6.507   1.810 -1.6592 -1.3715 -0.4152
   42MOL    H48 9970   5.751   6.432   1.933 -0.3945  0.0104 -2.3151
   42MOL    H49 9971   5.794   6.662   2.254 -0.0519  2.1208  0.0006
   42MOL    C50 9972   5.657   6.689   1.819 -0.6305  0.9549  0.0582
   42MOL    C51 9973   5.560   6.586   1.750 -0.3695  0.0040 -0.1135
   42MOL    C52 9974   5.636   6.530   1.622 -0.1535 -0.1356  0.5080
   42MOL    C53 9975   5.517   6.464   1.833 -0.0147  0.5021 -0.9955
   42MOL    O54 9976   5.524   6.349   1.800  0.2040 -0.1216  0.2191
   42MOL    O55 9977   5.477   6.499   1.957 -0.1480 -0.3574 -0.2046
   42MOL    H56 9978   5.602   6.776   1.855 -1.6392  0.0798  0.6628
   42MOL    H57 9979   5.705   6.727   1.729  0.4363  1.2729  0.7509
   42MOL    H58 9980   5.699   6.597   1.564 -0.6233 -1.6447 -1.8591
   42MOL    H59 9981   5.562   6.501   1.547 -0.9770 -1.6339  1.8484
   42MOL    H60 9982   5.693   6.439   1.641 -1.0572 -0.9384 -0.5180
   42MOL    H61 9983   5.456   6.591   1.962 -0.6124 -0.5447  1.5365
   42MOL    C62 9984   5.434   6.664   1.691  0.0821  0.0718  0.1227
   42MOL    C63 9985   5.308   6.724   1.760  0.0218 -0.1894 -0.6236
   42MOL    C64 9986   5.221   6.607   1.799 -0.1079  0.5734 -0.1085
   42MOL    C65 9987   5.337   6.809   1.883  0.3561 -0.5320  0.8858
   42MOL    O66 9988   5.320   6.934   1.887 -0.1113  0.4356  0.0981
   42MOL    O67 9989   5.391   6.739   1.983  0.1124  1.2386  0.3013
   42MOL    H68 9990   5.479   6.745   1.634 -4.1782 -0.9875 -5.1977
   42MOL    H69 9991   5.400   6.600   1.610  1.6632  0.5064 -0.9140
   42MOL    H70 9992   5.240   6.568   1.899 -0.3643  0.6325 -0.0361
   42MOL    H71 9993   5.227   6.525   1.728  0.9291 -0.0797  0.7071
   42MOL    H72 9994   5.118   6.634   1.824 -0.2333  1.4857 -1.5533
   42MOL    H73 9995   5.426   6.791   2.054  0.4919  1.3235  0.0572
   42MOL    C74 9996   5.216   6.797   1.654  0.1099 -0.1439 -0.0275
   42MOL    C75 9997   5.276   6.902   1.543  0.4912 -0.5801 -0.4479
   42MOL    C76 9998   5.149   6.984   1.491  0.0195  0.0497  0.1337
   42MOL    C77 9999   5.375   7.012   1.604  0.6516  0.3152  0.6186
   42MOL    O7810000   5.343   7.122   1.647 -0.2135 -0.2974  0.5945
   42MOL    O7910001   5.510   6.980   1.599 -0.1808 -0.1936  0.0758
   42MOL    H8010002   5.158   6.724   1.599 -1.8801  2.7307 -1.8250
   42MOL    H8110003   5.141   6.851   1.712  1.2024  1.7863 -0.3546
   42MOL    H8210004   5.110   7.046   1.571  3.5875  0.6157  1.5428
   42MOL    H8310005   5.065   6.920   1.461 -0.7058  1.3805 -0.7116
   42MOL    H8410006   5.168   7.050   1.407  0.8449 -1.2442 -0.7268
   42MOL    H8510007   5.576   7.044   1.621 -0.3701 -0.0532  0.2285
   42MOL    C8610008   5.344   6.826   1.420  0.3134  0.0776  0.1753
   42MOL    C8710009   5.341   6.865   1.273  0.3315 -0.5267  0.0595
   42MOL    C8810010   5.397   6.745   1.204  0.6705  0.8109  0.2681
   42MOL    C8910011   5.200   6.871   1.217 -0.6055  0.2718 -0.5027
   42MOL    O9010012   5.152   6.959   1.146 -0.1460 -0.2194  0.0611
   42MOL    O9110013   5.121   6.769   1.254  0.0975 -0.0805 -0.2015
   42MOL    H9210014   5.451   6.810   1.437  0.5665 -0.9056 -2.1109
   42MOL    H9310015   5.287   6.735   1.437 -1.8729  1.7337  1.9804
   42MOL    H9410016   5.391   6.745   1.095  0.8064  3.6104  0.2365
   42MOL    H9510017   5.349   6.651   1.232 -0.2877  1.5469  1.1550
   42MOL    H9610018   5.503   6.739   1.228  0.5832 -0.9933  0.2497
   42MOL    H9710019   5.036   6.768   1.213  0.7718  0.5939 -1.6501
   42MOL    C9810020   5.418   7.001   1.233 -0.3806  0.5003  0.5124
   42MOL    C9910021   5.559   7.011   1.171  0.2497 -0.3201  0.0928
   42MOL   C10010022   5.556   6.941   1.033  0.1849  0.1200  0.3509
   42MOL   C10110023   5.580   7.161   1.146 -0.8898 -0.3765  0.1561
   42MOL   O10210024   5.597   7.211   1.033  0.9017  0.4756  0.0336
   42MOL   O10310025   5.588   7.232   1.258  0.6835 -0.1577  0.2377
   42MOL   H10410026   5.365   7.076   1.174 -1.1868  1.7488  2.7533
   42MOL   H10510027   5.430   7.065   1.321 -1.8273 -1.7121  2.3815
   42MOL   H10610028   5.462   6.957   0.980  0.6186  0.2034 -0.3934
   42MOL   H10710029   5.578   6.834   1.026  1.2226  0.5149 -3.4726
   42MOL   H10810030   5.632   6.977   0.965 -1.1348  2.8674  0.2850
   42MOL   H10910031   5.597   7.325   1.242 -1.3713 -0.1822 -1.2781
   42MOL   C11010032   5.676   6.957   1.271  0.3610  0.7363  0.7316
   42MOL   C11110033   5.834   6.968   1.254  0.5636  0.2946  0.5154
   42MOL   C11210034   5.876   6.877   1.369 -0.1253  0.1495 -0.1062
   42MOL   C11310035   5.881   6.905   1.115  0.0590  0.3402 -0.5372
   42MOL   O11410036   5.926   6.793   1.120  0.6503 -0.0671 -0.3644
   42MOL   O11510037   5.865   6.979   1.005  0.2160 -0.2388  0.0432
   42MOL   H11610038   5.652   7.010   1.364 -1.1447  1.1305  0.1340
   42MOL   H11710039   5.648   6.854   1.288 -0.6219  0.6953 -1.0832
   42MOL   H11810040   5.985   6.871   1.370 -0.0999  0.6328  1.6825
   42MOL   H11910041   5.851   6.774   1.346 -1.3007  1.0515 -3.0007
   42MOL   H12010042   5.833   6.890   1.468 -0.4374 -1.7356  0.0329
   42MOL   H12110043   5.909   6.935   0.934 -0.7132  1.5782 -1.7191
   42MOL   C12210044   5.885   7.113   1.268  0.1861 -0.1233  0.4153
   42MOL   C12310045   6.035   7.157   1.292 -0.8659 -0.2922 -0.0135
   42MOL   C12410046   6.075   7.171   1.443 -0.6086  0.1349 -0.0213
   42MOL   C12510047   6.135   7.053   1.240  0.4709  0.0561 -0.0567
   42MOL   O12610048   6.201   6.977   1.312  0.1187  0.1671 -0.4852
   42MOL   O12710049   6.143   7.052   1.103  0.0222  0.2842 -0.7182
   42MOL   H12810050   5.842   7.173   1.188 -2.6732 -2.1327  0.3473
   42MOL   H12910051   5.828   7.158   1.350 -1.8269  0.5405 -1.3132
   42MOL   H13010052   6.035   7.259   1.493 -2.0174 -1.3640  1.5574
   42MOL   H13110053   6.181   7.195   1.445 -0.6615  0.3180  1.7306
   42MOL   H13210054   6.054   7.085   1.507 -1.9261  0.7547  0.3919
   42MOL   H13310055   6.212   6.996   1.071  1.0974  1.2982 -0.1978
   42MOL   C13410056   6.069   7.292   1.206 -0.1725  0.2901 -0.2270
   42MOL   C13510057   6.017   7.432   1.260 -0.1312  0.1006 -0.6904
   42MOL   C13610058   6.041   7.512   1.129 -0.0857  0.0338 -0.0736
   42MOL   C13710059   5.868   7.431   1.302  0.1908 -0.2903  1.1121
   42MOL   O13810060   5.775   7.446   1.219 -0.0440  0.2238 -0.6046
   42MOL   O13910061   5.840   7.386   1.426 -0.5264  0.4493  0.5168
   42MOL   H14010062   6.178   7.302   1.203  0.0080 -1.0700  1.1500
   42MOL   H14110063   6.023   7.269   1.110  2.4163  0.7350 -1.6301
   42MOL   H14210064   6.147   7.518   1.106 -0.5017 -1.0449 -2.4619
   42MOL   H14310065   5.991   7.608   1.125  1.4298  0.7590 -2.2173
   42MOL   H14410066   5.994   7.463   1.043 -0.5709  0.2605  0.0614
   42MOL   H14510067   5.925   7.417   1.456  1.4374 -1.3611 -2.9292
   42MOL   C14610068   6.114   7.509   1.363 -0.1219 -0.3943 -0.6576
   42MOL   C14710069   6.092   7.649   1.428 -0.2242 -0.4761 -0.0211
   42MOL   C14810070   6.053   7.759   1.319 -0.0229 -0.2260  0.1267
   42MOL   C14910071   5.989   7.644   1.540 -0.5186  0.5020  0.0530
   42MOL   O15010072   6.009   7.573   1.642  0.0459 -0.0719  0.6862
   42MOL   O15110073   5.875   7.709   1.524 -0.9359  0.3536  0.5314
   42MOL   H15210074   6.136   7.439   1.444 -1.8257  2.2388  2.2169
   42MOL   H15310075   6.204   7.516   1.302  2.3535 -0.2077  2.8695
   42MOL   H15410076   6.116   7.755   1.231 -0.2902  0.5702 -0.1076
   42MOL   H15510077   6.044   0.097   1.348 -0.8309 -0.4704  0.7954
   42MOL   H15610078   5.955   7.731   1.281 -0.4175 -0.0674  1.0011
   42MOL   H15710079   5.813   7.682   1.591 -0.7589  2.6511  1.6479
   42MOL   C15810080   6.229   7.682   1.500  0.0459 -0.2800  0.4661
   42MOL   C15910081   6.265   0.059   1.552 -0.2536 -0.5643 -0.4898
   42MOL   C16010082   6.142   0.128   1.617 -0.0678 -0.3295  0.2710
   42MOL   C16110083   6.380   0.032   1.655 -0.1404 -0.5857 -0.2133
   42MOL   O16210084   6.475   7.720   1.629  0.2996 -0.4777 -1.0381
   42MOL   O16310085   6.367   0.084   1.777  0.0387 -0.8892  0.0105
   42MOL   H16410086   6.253   7.617   1.584  3.6477 -2.2159 -1.9210
   42MOL   H16510087   6.305   7.655   1.428  1.1368 -1.2875  1.9641
   42MOL   H16610088   6.069   0.149   1.539 -1.2952 -1.1046  1.1905
   42MOL   H16710089   6.169   0.228   1.651 -0.9620  0.7801 -2.1719
   42MOL   H16810090   6.110   0.072   1.705 -0.3067  0.5258  0.7460
   42MOL   H16910091   6.432   0.042   1.830  2.9215  0.6269 -2.1842
   42MOL   C17010092   6.328   0.144   1.435 -0.5396 -0.0584 -0.4086
   42MOL   C17110093   6.430   0.269   1.447 -0.0042  0.3425  0.4230
   42MOL   C17210094   6.578   0.214   1.478  0.0972  0.1068  1.3164
   42MOL   C17310095   6.420   0.344   1.309 -0.3820 -0.5116 -0.7155
   42MOL   O17410096   6.315   0.400   1.276  0.3368  0.3375  0.0327
   42MOL   O17510097   6.538   0.342   1.234  0.3081  0.4404  0.5408
   42MOL   H17610098   6.373   0.072   1.366 -0.3303  0.2250 -0.5679
   42MOL   H17710099   6.245   0.176   1.372 -0.5990  0.9033  0.1571
   42MOL   H17810100   6.588   0.178   1.581 -0.2457 -2.2339  0.5687
   42MOL   H17910101   6.664   0.269   1.441  0.4986 -1.3580  0.0366
   42MOL   H18010102   6.594   0.123   1.421  1.2750  0.9266  0.3056
   42MOL   H18110103   6.535   0.387   1.151 -0.1095 -1.5281 -0.5371
   42MOL   C18210104   6.382   0.374   1.559 -0.4508 -0.5223 -0.8204
   42MOL   C18310105   6.442   0.523   1.581 -0.1290  0.6193 -0.6851
   42MOL   C18410106   6.594   0.511   1.600  0.5086 -0.2525  0.2411
   42MOL   C18510107   6.411   0.618   1.461  0.5642  0.0362  0.3490
   42MOL   O18610108   6.298   0.669   1.440 -0.4146 -0.8288 -0.0863
   42MOL   O18710109   6.520   0.649   1.379 -0.2586  0.5662 -0.8459
   42MOL   H18810110   6.276   0.391   1.538  0.2546  1.5710 -2.8607
   42MOL   H18910111   6.390   0.324   1.656 -1.8148  3.6492  1.5516
   42MOL   H19010112   6.650   0.598   1.635  0.0401  0.8665 -1.7433
   42MOL   H19110113   6.636   0.475   1.506  2.0594 -2.3422  1.6477
   42MOL   H19210114   6.618   0.427   1.666  0.9609  0.7665  1.4044
   42MOL   H19310115   6.502   0.716   1.314  0.3153  2.3295  0.7875
   42MOL   C19410116   6.371   0.572   1.715  0.2545 -1.0335 -0.1991
   42MOL   C19510117   6.382   0.710   1.787  0.0338 -0.2067 -0.4024
   42MOL   C19610118   6.533   0.750   1.817  0.2406  0.0878 -0.3871
   42MOL   C19710119   6.314   0.820   1.705 -0.2942  0.3559  0.3733
   42MOL   O19810120   6.197   0.817   1.659  0.1450  0.1745 -0.3061
   42MOL   O19910121   6.390   0.936   1.696  0.3424 -0.4694 -0.3637
   42MOL   H20010122   6.265   0.547   1.725 -0.2890  1.6302  1.0957
   42MOL   H20110123   6.409   0.499   1.787  1.9912 -0.5535 -0.6166
   42MOL   H20210124   6.584   0.766   1.722 -0.6738 -0.0110 -0.8943
   42MOL   H20310125   6.585   0.666   1.863 -1.5062  0.5698  2.6244
   42MOL   H20410126   6.540   0.839   1.880  2.4568 -1.0695  1.0646
   42MOL   H20510127   6.364   0.984   1.619 -0.2780 -0.7389 -0.3272
   42MOL   C20610128   6.306   0.704   1.921 -0.1818  0.2455  0.4923
   42MOL   C20710129   6.315   0.592   2.039  0.0461  0.3903  0.2499
   42MOL   C20810130   6.222   0.472   2.003 -0.4605  0.2237 -0.1945
   42MOL   C20910131   6.463   0.551   2.061 -0.2540  0.2204  0.3432
   42MOL   O21010132   6.504   0.437   2.056 -0.0027  0.0304 -0.2576
   42MOL   O21110133   6.539   0.660   2.090  0.2582 -0.3270  0.2491
   42MOL   H21210134   6.335   0.801   1.959 -0.2987  0.2808  0.4908
   42MOL   H21310135   6.201   0.705   1.891 -0.0538 -2.3010 -0.1551
   42MOL   H21410136   6.119   0.501   1.982 -0.5544  0.8063  1.0918
   42MOL   H21510137   6.227   0.397   2.082  1.4480  1.0045  0.4403
   42MOL   H21610138   6.265   0.413   1.921 -1.2167 -1.3599  0.5192
   42MOL   H21710139   6.628   0.631   2.101  0.5089  0.8494  1.3571
   42MOL   C21810140   6.259   0.652   2.172  0.5344 -0.1129 -0.1088
   42MOL   C21910141   6.224   0.571   2.309 -0.7648 -0.4234  1.0507
   42MOL   C22010142   6.211   0.676   2.417 -0.3249  0.1555  0.4743
   42MOL   C22110143   6.085   0.506   2.289 -0.3045 -0.0111  0.2790
   42MOL   O22210144   6.065   0.385   2.280  0.2588 -0.4884  0.2626
   42MOL   O22310145   5.991   0.604   2.287 -0.2810 -0.1534  0.1213
   42MOL   H22410146   6.333   0.722   2.210 -0.1736  0.6243 -0.0694
   42MOL   H22510147   6.174   0.718   2.151  0.9423  1.2534  2.2903
   42MOL   H22610148   6.149   0.761   2.390 -1.7560 -1.4995 -1.6359
   42MOL   H22710149   6.305   0.719   2.449 -1.2105  3.9765 -1.8083
   42MOL   H22810150   6.178   0.632   2.512  0.9649 -0.5797  0.5974
   42MOL   H22910151   5.905   0.573   2.263  0.1539 -0.8845 -0.4978
   42MOL   C23010152   6.345   0.466   2.349  0.2064  0.0412 -0.2019
   42MOL   C23110153   6.358   0.409   2.495 -0.1911  0.3744 -0.2082
   42MOL   C23210154   6.249   0.297   2.514  0.3943  0.2518  0.0964
   42MOL   C23310155   6.496   0.349   2.538  0.6232 -0.5132  0.1678
   42MOL   O23410156   6.513   0.236   2.580  0.6238  0.1732 -0.5668
   42MOL   O23510157   6.600   0.440   2.516 -0.2537  0.2060 -0.6441
   42MOL   H23610158   6.338   0.386   2.275 -0.2432  1.7230 -2.0193
   42MOL   H23710159   6.444   0.509   2.337  1.7354 -3.4267 -0.5841
   42MOL   H23810160   6.161   0.361   2.529  1.3723  1.6974 -0.1893
   42MOL   H23910161   6.263   0.234   2.602  0.9745 -1.3110 -1.0985
   42MOL   H24010162   6.242   0.231   2.428  0.1171  0.8815 -0.3671
   42MOL   H24110163   6.678   0.410   2.561 -1.4246 -2.2797 -0.1432
   42MOL   H24210164   6.344   0.485   2.571 -1.6601 -0.9263  0.8656
   43MOL     C110165   6.376   1.059   2.560 -0.1917 -0.4052  0.0362
   43MOL     C210166   6.387   1.051   2.717 -0.0097 -0.1835  0.1639
   43MOL     C310167   6.351   1.194   2.763 -0.8902 -0.7216 -0.1197
   43MOL     C410168   6.271   0.971   2.767  0.3026 -0.5822 -0.0202
   43MOL     O510169   6.268   0.920   2.881  0.8550 -0.0501 -0.6196
   43MOL     O610170   6.162   0.997   2.693 -0.1006 -0.4239 -0.3533
   43MOL     H710171   6.351   0.963   2.515 -0.9623 -1.0020  1.7090
   43MOL     H810172   6.475   1.076   2.518 -0.5247 -1.1158 -1.0718
   43MOL     H910173   6.446   1.247   2.774 -1.4706  0.6783 -1.6507
   43MOL    H1010174   6.298   1.209   2.857  2.7827  0.3780  1.8766
   43MOL    H1110175   6.310   1.260   2.687 -0.7624 -1.1057 -0.5256
   43MOL    H1210176   6.089   0.956   2.735  0.8302  0.2023  1.9279
   43MOL    H1310177   6.315   1.141   2.523 -0.6319  0.9503  3.5557
   43MOL    C1410178   6.525   1.006   2.772  0.2313  0.5868 -0.4060
   43MOL    C1510179   6.607   0.872   2.732 -0.2969  0.6816 -0.2186
   43MOL    C1610180   6.515   0.751   2.744 -0.2073 -0.6361 -0.3157
   43MOL    C1710181   6.652   0.877   2.587 -1.0857  0.7309  0.3182
   43MOL    O1810182   6.620   0.793   2.501 -0.7460 -0.1729  0.4142
   43MOL    O1910183   6.744   0.973   2.573  0.0976  0.4046  0.5386
   43MOL    H2010184   6.595   1.087   2.752 -1.5205  1.9014 -1.4160
   43MOL    H2110185   6.516   1.016   2.880  1.2995  2.8675 -0.4825
   43MOL    H2210186   6.436   0.747   2.670 -0.5844  1.3914 -0.0452
   43MOL    H2310187   6.466   0.749   2.842 -2.0368  0.1667 -1.1986
   43MOL    H2410188   6.580   0.664   2.733 -0.9843 -0.9143 -2.7882
   43MOL    H2510189   6.794   0.961   2.493 -0.9628 -0.7627  0.0116
   43MOL    C2610190   6.731   0.864   2.837  1.3793  0.0704  0.0586
   43MOL    C2710191   6.824   0.743   2.876 -0.3793 -0.3323  0.4499
   43MOL    C2810192   6.757   0.662   2.986 -0.0422 -0.5021  0.9687
   43MOL    C2910193   6.865   0.664   2.745 -0.1524  0.1289 -0.5720
   43MOL    O3010194   6.841   0.540   2.733 -0.3886 -0.1493  0.0881
   43MOL    O3110195   6.921   0.722   2.634  0.3550  1.1111  0.3549
   43MOL    H3210196   6.794   0.949   2.812  2.6340 -1.4785 -2.2113
   43MOL    H3310197   6.691   0.893   2.934  0.0348  0.8665 -0.7201
   43MOL    H3410198   6.668   0.608   2.953  0.7736 -1.6467  0.6551
   43MOL    H3510199   6.726   0.721   3.072 -0.5482  1.9464 -0.8093
   43MOL    H3610200   6.823   0.589   3.031  1.5588 -0.4049 -1.1608
   43MOL    H3710201   6.897   0.651   2.577  0.8050  0.3824  1.0526
   43MOL    C3810202   6.949   0.817   2.930 -0.5914  0.1142 -0.4272
   43MOL    C3910203   7.073   0.753   3.007  0.2127  0.4356  0.1153
   43MOL    C4010204   7.028   0.741   3.155 -0.2698 -0.1867  0.5670
   43MOL    C4110205   7.112   0.614   2.955  0.2170 -0.4445 -0.5235
   43MOL    O4210206   7.099   0.511   3.023 -0.1705  0.8822 -0.0065
   43MOL    O4310207   7.164   0.624   2.831 -0.3140 -0.0560  0.6148
   43MOL    H4410208   6.994   0.867   2.845  0.5582  0.8119  0.5624
   43MOL    H4510209   6.912   0.890   3.002  0.0928 -0.3055  0.3695
   43MOL    H4610210   7.016   0.840   3.200 -0.1095  0.7388 -1.3785
   43MOL    H4710211   7.095   0.692   3.226  1.1867 -0.6886 -1.1284
   43MOL    H4810212   6.929   0.698   3.173 -1.7619  2.3219 -1.3057
   43MOL    H4910213   7.202   0.540   2.810  0.4331  0.3670  0.2437
   43MOL    C5010214   7.191   0.859   2.988 -0.4273  0.8977 -0.3133
   43MOL    C5110215   7.340   0.841   3.034  0.1343 -0.1877 -0.6841
   43MOL    C5210216   7.415   0.742   2.946  0.6280 -0.4831 -0.6860
   43MOL    C5310217   7.420   0.972   3.004  0.4625 -0.7311 -0.6527
   43MOL    O5410218   7.367   1.079   2.976 -0.0495  0.6458  0.0231
   43MOL    O5510219   7.555   0.959   2.992  0.0745  0.2150  0.8259
   43MOL    H5610220   7.201   0.883   2.882  0.8383 -1.5315 -0.7874
   43MOL    H5710221   7.151   0.938   3.052  2.0802  1.6784  0.3538
   43MOL    H5810222   7.520   0.727   2.970  0.5509  0.2659  0.1526
   43MOL    H5910223   7.417   0.771   2.841  0.5500  0.0637 -0.5387
   43MOL    H6010224   7.375   0.640   2.952 -0.2102 -0.1750 -0.8985
   43MOL    H6110225   7.582   1.050   2.989 -1.3236  0.5744 -2.9809
   43MOL    C6210226   7.341   0.800   3.189 -0.1756 -0.1207 -0.4046
   43MOL    C6310227   7.443   0.855   3.298 -0.6866 -0.6990  0.1367
   43MOL    C6410228   7.429   0.770   3.430  0.1719  0.1831 -0.1656
   43MOL    C6510229   7.593   0.826   3.262 -0.1905 -0.1392  0.7403
   43MOL    O6610230   7.682   0.913   3.257  0.1177  0.5517  0.7419
   43MOL    O6710231   7.612   0.697   3.230  0.4327  0.6091  0.1918
   43MOL    H6810232   7.244   0.832   3.228 -0.5048 -1.2033 -0.2955
   43MOL    H6910233   7.341   0.691   3.187 -1.5152 -0.1221 -0.8246
   43MOL    H7010234   7.433   0.665   3.402 -0.9655  0.1758 -0.3201
   43MOL    H7110235   7.334   0.794   3.478  0.2259  0.8173 -0.3770
   43MOL    H7210236   7.511   0.767   3.502 -0.2235 -2.4382  0.2468
   43MOL    H7310237   7.699   0.686   3.193  1.7483 -1.2948  3.5416
   43MOL    C7410238   7.398   1.004   3.339 -0.1370  0.6529  0.3386
   43MOL    C7510239   7.479   1.121   3.410 -0.0410 -0.3991  0.3895
   43MOL    C7610240   7.551   1.054   3.528  0.0138 -0.5045 -0.0043
   43MOL    C7710241   7.580   1.184   3.310  0.1404 -0.3298 -0.8552
   43MOL    O7810242   7.579   1.160   3.187  0.0853 -0.7317  0.0192
   43MOL    O7910243   7.657   1.278   3.376 -0.0198 -0.5035 -0.8024
   43MOL    H8010244   7.339   1.042   3.256 -3.4023  0.0217  2.3191
   43MOL    H8110245   7.326   0.997   3.420 -2.4860 -0.3003 -1.7768
   43MOL    H8210246   7.482   1.020   3.604  1.0611 -3.0117 -0.1430
   43MOL    H8310247   7.618   1.133   3.565  1.7468 -1.8076 -0.2895
   43MOL    H8410248   7.619   0.974   3.499 -0.9798 -1.1881 -0.4731
   43MOL    H8510249   7.721   1.325   3.325 -1.6889  1.3303 -1.2797
   43MOL    C8610250   7.389   1.237   3.474 -0.8488  0.3487  0.0086
   43MOL    C8710251   7.261   1.298   3.405  0.0642  0.3013 -0.0097
   43MOL    C8810252   7.291   1.327   3.256  0.6043  0.3978  0.1499
   43MOL    C8910253   7.140   1.200   3.424 -0.2461  0.4577 -0.3366
   43MOL    O9010254   7.096   1.160   3.529 -0.4360 -0.0655 -0.6238
   43MOL    O9110255   7.105   1.137   3.304 -0.1805 -0.1048 -0.0958
   43MOL    H9210256   7.361   1.196   3.571  2.7529 -2.8169 -0.1574
   43MOL    H9310257   7.459   1.317   3.501  1.2648 -1.0083 -1.2337
   43MOL    H9410258   7.196   1.349   3.206  0.3591  2.8887  1.6286
   43MOL    H9510259   7.332   1.249   3.192  0.3449  0.6715 -0.3587
   43MOL    H9610260   7.353   1.414   3.235  0.8613 -0.1663 -1.4957
   43MOL    H9710261   7.037   1.074   3.320 -0.3823  0.0477 -0.3306
   43MOL    C9810262   7.218   1.424   3.490  0.6069  0.0120  0.5470
   43MOL    C9910263   7.079   1.506   3.473  0.4469 -0.0379 -0.6589
   43MOL   C10010264   7.036   1.515   3.321 -1.0757  0.8660  0.4407
   43MOL   C10110265   6.958   1.448   3.558  0.1814  0.7223 -0.7517
   43MOL   O10210266   6.971   1.414   3.677  0.7692 -0.2665  0.1691
   43MOL   O10310267   6.846   1.439   3.488  0.3856  0.3146  0.3965
   43MOL   H10410268   7.239   1.414   3.597  2.3118  0.2626  0.2451
   43MOL   H10510269   7.289   1.500   3.460  0.2975  0.2108  0.3112
   43MOL   H10610270   6.945   1.572   3.301 -2.8105 -2.2225 -0.7816
   43MOL   H10710271   7.003   1.417   3.287  1.4349  0.3289 -0.5886
   43MOL   H10810272   7.119   1.542   3.255 -0.7794  2.6300  1.4981
   43MOL   H10910273   6.770   1.420   3.541  0.2226 -1.2639 -0.3600
   43MOL   C11010274   7.101   1.659   3.504 -0.0713  0.0762  0.0340
   43MOL   C11110275   7.124   1.713   3.652  0.9893  0.2614  0.0101
   43MOL   C11210276   6.982   1.743   3.708  0.1685  0.0403  0.2417
   43MOL   C11310277   7.212   1.625   3.742 -0.3967  0.0178 -0.1112
   43MOL   O11410278   7.169   1.561   3.840 -0.3949 -0.1187 -0.0362
   43MOL   O11510279   7.345   1.628   3.708  0.3585  0.2230 -0.5176
   43MOL   H11610280   7.192   1.685   3.450 -0.4223  0.9183 -0.1623
   43MOL   H11710281   7.029   1.722   3.453  1.3974  1.4594 -0.4036
   43MOL   H11810282   6.905   1.668   3.694 -3.2981  3.5281 -0.3591
   43MOL   H11910283   6.944   1.828   3.651 -0.9811 -1.0885 -0.6917
   43MOL   H12010284   6.987   1.765   3.815  2.6003 -0.8078  0.3384
   43MOL   H12110285   7.412   1.575   3.748 -0.4475 -1.2619 -1.0783
   43MOL   C12210286   7.198   1.851   3.628 -0.0922 -0.4834  0.4813
   43MOL   C12310287   7.195   1.978   3.730 -0.2322 -0.4042 -0.6038
   43MOL   C12410288   7.286   2.079   3.664  0.4682 -0.3238  0.2801
   43MOL   C12510289   7.052   2.044   3.735  0.4127 -0.2811 -1.1066
   43MOL   O12610290   6.984   2.069   3.833  0.9666 -0.0519  0.2296
   43MOL   O12710291   7.013   2.079   3.611 -0.3559  0.1823 -0.0195
   43MOL   H12810292   7.299   1.828   3.594 -0.2668 -1.2459  0.4772
   43MOL   H12910293   7.150   1.899   3.542 -1.5043  0.9172  2.0021
   43MOL   H13010294   7.279   2.182   3.699  0.2619 -0.0855 -0.4649
   43MOL   H13110295   7.269   2.080   3.557 -0.5483 -3.1085  0.3673
   43MOL   H13210296   7.389   2.045   3.675 -0.5937 -3.2905  1.5920
   43MOL   H13310297   6.936   2.132   3.623 -2.0838 -2.8186  3.0788
   43MOL   C13410298   7.257   1.921   3.865 -0.1591  0.0162  0.2154
   43MOL   C13510299   7.287   2.003   3.997 -0.2806  0.3731 -0.0570
   43MOL   C13610300   7.318   2.145   3.968  0.2375  0.0866  0.4724
   43MOL   C13710301   7.155   2.004   4.082 -0.1904 -0.0890  0.5226
   43MOL   O13810302   7.064   1.921   4.070  0.0777  0.2925 -0.0918
   43MOL   O13910303   7.158   2.104   4.179  0.1535  0.0672  0.4729
   43MOL   H14010304   7.201   1.835   3.899 -0.2871 -0.0709 -0.2163
   43MOL   H14110305   7.355   1.894   3.824 -0.5389  1.8372 -1.9730
   43MOL   H14210306   7.253   2.197   3.899 -0.0367 -1.0180 -0.1090
   43MOL   H14310307   7.413   2.146   3.914  0.8022 -2.6732  1.2911
   43MOL   H14410308   7.341   2.215   4.048 -0.2034  0.5953  0.1536
   43MOL   H14510309   7.072   2.110   4.217 -0.9670 -0.9435 -1.8003
   43MOL   C14610310   7.407   1.933   4.081 -0.1752 -0.3037 -0.8782
   43MOL   C14710311   7.392   1.812   4.188 -0.7914 -0.1463  0.8283
   43MOL   C14810312   7.301   1.843   4.311 -0.1493 -0.0261  0.5902
   43MOL   C14910313   7.332   1.688   4.113 -0.1205  0.0185 -0.3819
   43MOL   O15010314   7.233   1.622   4.151 -0.5061  0.3006  0.2396
   43MOL   O15110315   7.403   1.661   4.002  0.6845  0.3842 -0.0291
   43MOL   H15210316   7.491   1.903   4.019  3.0055 -3.1072  4.3569
   43MOL   H15310317   7.465   2.009   4.132 -1.9415 -1.3620  2.9469
   43MOL   H15410318   7.315   1.770   4.391 -2.6888  0.2897  1.3759
   43MOL   H15510319   7.196   1.855   4.285  0.0541  1.2412  0.3262
   43MOL   H15610320   7.321   1.944   4.348  1.1058 -0.1903  0.3522
   43MOL   H15710321   7.345   1.598   3.962  1.2048 -1.0892  1.5164
   43MOL   C15810322   7.539   1.782   4.244  0.3321  0.7910 -0.6261
   43MOL   C15910323   7.598   1.679   4.349  0.3654  0.6009  0.3193
   43MOL   C16010324   7.571   1.712   4.497 -0.5287 -0.8576  1.1253
   43MOL   C16110325   7.558   1.534   4.326 -0.8645  0.2280 -0.3345
   43MOL   O16210326   7.550   1.451   4.412 -0.2132 -0.4473  0.4371
   43MOL   O16310327   7.554   1.499   4.192 -0.3856  0.1511 -0.1379
   43MOL   H16410328   7.600   1.780   4.154  0.9323  1.2236 -0.2301
   43MOL   H16510329   7.567   1.878   4.286 -0.4596 -0.4230  2.7950
   43MOL   H16610330   7.579   1.630   4.568  0.3557 -1.1852  0.6434
   43MOL   H16710331   7.476   1.763   4.513 -1.1934 -1.0323 -1.9714
   43MOL   H16810332   7.641   1.785   4.537 -0.9491 -0.6503  1.4948
   43MOL   H16910333   7.546   1.405   4.193  0.1997  0.1005 -0.1510
   43MOL   C17010334   7.760   1.687   4.330 -0.3014  0.2449 -1.0800
   43MOL   C17110335   0.107   1.613   4.417  0.3957 -0.1566 -0.1706
   43MOL   C17210336   0.089   1.606   4.572 -0.0133 -0.9124 -0.7533
   43MOL   C17310337   0.109   1.473   4.360 -1.0805  0.0684 -0.5302
   43MOL   O17410338   0.060   1.438   4.252  0.6570  0.5258  0.0488
   43MOL   O17510339   0.171   1.382   4.439 -0.5266  0.0346  0.0752
   43MOL   H17610340   0.015   1.663   4.226  2.5597  1.8554 -0.8994
   43MOL   H17710341   0.008   1.795   4.335 -1.9752  0.4863 -0.9456
   43MOL   H17810342   0.010   1.542   4.610 -0.5313  0.4768  0.5700
   43MOL   H17910343   0.058   1.705   4.607 -2.1423 -2.2643  1.3696
   43MOL   H18010344   0.180   1.584   4.627  0.2543  1.4398 -0.1835
   43MOL   H18110345   0.153   1.295   4.405  0.0258 -0.8099  1.8907
   43MOL   C18210346   0.232   1.705   4.364  0.1088  0.2971 -0.1289
   43MOL   C18310347   0.386   1.658   4.357  0.0683  0.0329  0.5697
   43MOL   C18410348   0.410   1.554   4.243  0.3420  0.0147 -0.1624
   43MOL   C18510349   0.462   1.785   4.323 -0.7428  0.3537  0.1447
   43MOL   O18610350   0.461   1.883   4.397 -0.0994  0.0751 -0.4811
   43MOL   O18710351   0.522   1.785   4.195 -0.0027  0.2624 -0.0671
   43MOL   H18810352   0.205   1.742   4.265 -0.0541 -2.1228 -1.0180
   43MOL   H18910353   0.237   1.796   4.424 -2.8382 -0.3293  1.1677
   43MOL   H19010354   0.348   1.579   4.157  1.7684  0.8054 -0.9744
   43MOL   H19110355   0.367   1.459   4.273  0.1020  0.4966  1.0382
   43MOL   H19210356   0.509   1.553   4.198  0.2485 -0.2395 -0.3622
   43MOL   H19310357   0.567   1.867   4.183  2.2016 -1.2917 -3.0426
   43MOL   C19410358   0.423   1.605   4.497 -0.0570 -0.4242  0.2134
   43MOL   C19510359   0.564   1.544   4.541 -0.7653 -0.6345 -1.2008
   43MOL   C19610360   0.557   1.549   4.693 -0.1514 -0.1282  0.7898
   43MOL   C19710361   0.559   1.394   4.504 -0.1291 -0.1006 -0.3833
   43MOL   O19810362   0.511   1.307   4.576  1.1200  0.4240 -0.3219
   43MOL   O19910363   0.591   1.374   4.376 -0.2436 -0.4417 -0.3536
   43MOL   H20010364   0.410   1.687   4.567  1.2067  0.8974 -1.0684
   43MOL   H20110365   0.354   1.526   4.528 -2.2296  0.7215 -1.5312
   43MOL   H20210366   0.472   1.495   4.734 -0.8485  1.2398  1.1659
   43MOL   H20310367   0.546   1.652   4.727 -1.6635  0.1971 -0.5844
   43MOL   H20410368   0.643   1.499   4.737 -0.5450 -1.3024  0.2658
   43MOL   H20510369   0.579   1.285   4.345  1.7432 -0.4938 -1.0642
   43MOL   C20610370   0.690   1.621   4.492 -0.2248 -0.4214 -0.4290
   43MOL   C20710371   0.837   1.595   4.537 -0.3306 -0.1199  0.2794
   43MOL   C20810372   0.873   1.650   4.687 -0.3062  0.0638  0.9011
   43MOL   C20910373   0.865   1.447   4.532 -0.3453  0.5105 -0.4395
   43MOL   O21010374   0.894   1.390   4.427 -0.3691 -0.0862 -0.0641
   43MOL   O21110375   0.836   1.387   4.655 -0.7083 -0.7077 -0.5136
   43MOL   H21210376   0.686   1.613   4.383  0.8371 -2.7325 -0.3136
   43MOL   H21310377   0.673   1.725   4.518 -2.7464 -1.0971  0.7701
   43MOL   H21410378   0.871   1.759   4.695  0.8210  0.1858 -0.3621
   43MOL   H21510379   0.971   1.617   4.720 -0.4362 -0.8258  0.3849
   43MOL   H21610380   0.803   1.623   4.766 -0.3592 -0.7402  0.5761
   43MOL   H21710381   0.860   1.296   4.662 -1.0317 -0.9589 -2.4670
   43MOL   C21810382   0.919   1.667   4.422 -0.7622  0.0057 -0.6092
   43MOL   C21910383   1.079   1.677   4.424 -1.0604  0.3587 -0.3299
   43MOL   C22010384   1.116   1.683   4.267  0.2658  0.5700 -0.7424
   43MOL   C22110385   1.114   1.817   4.492  0.3302  0.3142  0.3044
   43MOL   O22210386   1.136   1.915   4.427  0.6807 -0.5114 -0.4352
   43MOL   O22310387   1.108   1.834   4.623  0.3015 -0.0675  0.1802
   43MOL   H22410388   0.896   1.617   4.327  0.9700  0.4417 -1.2934
   43MOL   H22510389   0.886   1.771   4.414  1.0171  0.5208 -1.7489
   43MOL   H22610390   1.097   1.596   4.205  1.9793 -0.2988 -0.0809
   43MOL   H22710391   1.219   1.709   4.246  0.9627  2.4036  4.2436
   43MOL   H22810392   1.057   1.764   4.224 -0.6025 -0.0204 -0.6752
   43MOL   H22910393   1.135   1.922   4.641 -2.3788  0.9596 -0.5961
   43MOL   C23010394   1.164   1.564   4.494  0.5066  0.0214  1.3342
   43MOL   C23110395   1.317   1.593   4.528 -0.1957  0.3104  0.6067
   43MOL   C23210396   1.384   1.459   4.578  0.0280  0.0352  0.1156
   43MOL   C23310397   1.401   1.649   4.414 -0.1561 -0.2175 -0.2625
   43MOL   O23410398   1.416   1.589   4.307  0.3121  0.2304 -0.1571
   43MOL   O23510399   1.456   1.770   4.451 -0.5923  0.1270  0.1784
   43MOL   H23610400   1.124   1.526   4.588 -0.3915 -1.1987  0.4656
   43MOL   H23710401   1.160   1.477   4.430  0.0477 -0.7902  2.4513
   43MOL   H23810402   1.329   1.419   4.663 -1.7133  0.2209 -0.9062
   43MOL   H23910403   1.486   1.477   4.614 -0.6223 -0.1934  2.1452
   43MOL   H24010404   1.388   1.392   4.492 -0.1239  0.7633 -0.4553
   43MOL   H24110405   1.536   1.795   4.407  0.6620 -0.7471  1.8777
   43MOL   H24210406   1.312   1.664   4.611 -0.8790  0.4494  0.4522
   44MOL     C110407   3.134   2.626   1.636 -0.1472 -0.1775 -0.4631
   44MOL     C210408   3.209   2.518   1.557  0.6872 -0.0282 -0.2498
   44MOL     C310409   3.092   2.431   1.501  0.3488 -0.0611 -0.3232
   44MOL     C410410   3.283   2.596   1.450  0.3324  0.8315 -0.1013
   44MOL     O510411   3.262   2.586   1.332  0.1274 -0.2246 -0.5929
   44MOL     O610412   3.382   2.679   1.499 -0.5952 -0.3709 -0.0877
   44MOL     H710413   3.078   2.698   1.577  0.7563  1.0360  0.1245
   44MOL     H810414   3.217   2.679   1.684 -0.3810  0.5688 -0.8705
   44MOL     H910415   3.025   2.479   1.429 -0.5773  1.5729  1.5942
   44MOL    H1010416   3.038   2.392   1.587  2.7532 -1.4260  0.6060
   44MOL    H1110417   3.124   2.344   1.444 -1.5691 -1.4737  0.6856
   44MOL    H1210418   3.421   2.718   1.422 -1.7467  2.9757  0.9343
   44MOL    H1310419   3.072   2.597   1.721 -2.0659  0.2395 -1.6814
   44MOL    C1410420   3.299   2.443   1.659 -0.3097 -0.1738 -0.5194
   44MOL    C1510421   3.376   2.303   1.642  0.4150 -0.2342  0.1395
   44MOL    C1610422   3.270   2.186   1.644 -0.0912 -0.5439  0.3021
   44MOL    C1710423   3.447   2.301   1.507  0.0804  0.0390 -0.2078
   44MOL    O1810424   3.451   2.209   1.428  0.6827 -0.0324  0.1365
   44MOL    O1910425   3.528   2.407   1.477  0.0985  0.1737  0.2818
   44MOL    H2010426   3.369   2.512   1.706 -1.0658  0.6490 -0.5910
   44MOL    H2110427   3.238   2.430   1.749 -0.8387 -1.5062 -1.0572
   44MOL    H2210428   3.209   2.188   1.734 -1.0578 -0.5420 -0.3455
   44MOL    H2310429   3.326   2.093   1.648  0.4265 -0.3317 -1.4158
   44MOL    H2410430   3.210   2.188   1.553 -2.6530  0.1677  1.9687
   44MOL    H2510431   3.571   2.406   1.393  1.1097 -0.5532  0.8007
   44MOL    C2610432   3.498   2.285   1.745 -0.3510 -1.2934  0.1347
   44MOL    C2710433   3.481   2.275   1.901  0.8626 -0.2552 -0.0618
   44MOL    C2810434   3.374   2.374   1.954  0.1765  0.2076 -0.4887
   44MOL    C2910435   3.440   2.138   1.943 -0.7883 -0.0011 -0.6186
   44MOL    O3010436   3.444   2.038   1.868  0.3706 -0.5607 -0.4915
   44MOL    O3110437   3.390   2.137   2.070  0.0657  0.0513  0.3256
   44MOL    H3210438   3.550   2.197   1.707 -0.6403 -1.7903  0.8720
   44MOL    H3310439   3.558   2.372   1.717 -2.5544  0.4689  0.6623
   44MOL    H3410440   3.377   2.381   2.063 -0.5793  0.1879 -0.4595
   44MOL    H3510441   3.276   2.340   1.921 -0.0079  1.1294 -0.9046
   44MOL    H3610442   3.383   2.474   1.911 -1.5614 -0.0297 -1.4675
   44MOL    H3710443   3.362   2.055   2.108  0.9512 -0.1841  0.4887
   44MOL    C3810444   3.616   2.318   1.961 -0.4932  0.2409 -0.2107
   44MOL    C3910445   3.761   2.248   1.918 -0.1626  0.3464 -0.5545
   44MOL    C4010446   3.757   2.095   1.882  1.0240  0.1459  0.1749
   44MOL    C4110447   3.821   2.326   1.800 -0.0993 -0.0574 -0.1957
   44MOL    O4210448   3.853   2.279   1.690 -0.7885  0.2667  0.3073
   44MOL    O4310449   3.847   2.451   1.834  0.3707  0.8567  0.0450
   44MOL    H4410450   3.625   2.426   1.952  1.3819  0.2329  1.3856
   44MOL    H4510451   3.600   2.306   2.068  1.0836 -1.9379 -0.1941
   44MOL    H4610452   3.684   2.080   1.802  0.4497  0.2199  0.6819
   44MOL    H4710453   3.739   2.029   1.966  0.4051 -2.1781 -1.7159
   44MOL    H4810454   3.846   2.054   1.833  0.3314 -0.3766 -0.6736
   44MOL    H4910455   3.877   2.493   1.755 -1.4594  0.5343 -0.8417
   44MOL    C5010456   3.847   2.276   2.050 -0.2750 -0.1293 -0.4438
   44MOL    C5110457   3.996   2.260   2.070 -0.5563 -0.0663  0.2331
   44MOL    C5210458   4.045   2.160   1.974  0.1131  0.3528 -0.6185
   44MOL    C5310459   4.060   2.399   2.047 -0.1380 -0.8152 -0.2612
   44MOL    O5410460   4.008   2.506   2.081 -0.5978 -0.3483 -0.2185
   44MOL    O5510461   4.176   2.386   1.987 -0.0399 -0.6426 -0.1892
   44MOL    H5610462   3.808   2.370   2.089 -2.2845 -0.2909 -1.9981
   44MOL    H5710463   3.796   2.211   2.121 -2.7204  1.6167 -0.5279
   44MOL    H5810464   4.034   2.180   1.867  0.0294 -0.5627 -0.7807
   44MOL    H5910465   3.988   2.068   1.980 -1.2998  1.2489 -0.1724
   44MOL    H6010466   4.150   2.136   1.989  0.4701 -0.1268 -3.6144
   44MOL    H6110467   4.217   2.468   1.965  1.4308 -1.3624 -0.1272
   44MOL    C6210468   4.038   2.205   2.212  0.0508 -0.3195  0.3998
   44MOL    C6310469   4.015   2.274   2.348  0.1707 -0.1922 -0.2793
   44MOL    C6410470   3.877   2.351   2.358 -0.1644  0.2132  0.4642
   44MOL    C6510471   4.009   2.162   2.453  0.2692  0.4363 -0.4391
   44MOL    O6610472   3.911   2.143   2.517 -0.0650 -0.1826 -0.5314
   44MOL    O6710473   4.123   2.093   2.461 -0.4644 -0.0295  0.2098
   44MOL    H6810474   3.979   2.114   2.224 -2.4444  1.3367  1.0391
   44MOL    H6910475   4.137   2.160   2.207  0.1165 -0.1060 -0.3748
   44MOL    H7010476   3.868   2.429   2.282 -0.0929  0.2643  0.5083
   44MOL    H7110477   3.859   2.383   2.461 -1.0955 -1.2066  0.7499
   44MOL    H7210478   3.795   2.281   2.343  1.4191 -1.1490 -2.2525
   44MOL    H7310479   4.113   2.028   2.529  0.3925 -0.7963 -0.3933
   44MOL    C7410480   4.140   2.366   2.378  0.4710  0.1774 -0.2628
   44MOL    C7510481   4.142   2.475   2.498 -0.5847  0.1723 -0.1527
   44MOL    C7610482   4.282   2.528   2.493 -0.3053 -0.1260 -0.5820
   44MOL    C7710483   4.047   2.592   2.475 -0.1687 -0.0577  0.6157
   44MOL    O7810484   3.957   2.621   2.550  0.5433  0.9730 -0.4650
   44MOL    O7910485   4.064   2.653   2.354 -0.4035 -0.4583  0.3618
   44MOL    H8010486   4.227   2.302   2.389 -0.8049 -1.6999 -0.9808
   44MOL    H8110487   4.165   2.416   2.284 -1.8337 -0.6126 -1.3319
   44MOL    H8210488   4.355   2.448   2.497  0.7102  0.7996 -0.3208
   44MOL    H8310489   4.307   2.599   2.573  2.6050  1.5853 -2.8971
   44MOL    H8410490   4.308   2.576   2.399 -2.9398  0.4153 -1.0654
   44MOL    H8510491   3.986   2.700   2.328  0.4787  0.1309 -1.2241
   44MOL    C8610492   4.115   2.394   2.636 -0.2841  0.0721  0.2332
   44MOL    C8710493   4.155   2.439   2.780 -0.7523  0.2644  0.1544
   44MOL    C8810494   4.053   2.362   2.866 -0.0377  0.0284 -0.3841
   44MOL    C8910495   4.303   2.401   2.822 -0.6345 -0.6845  0.1319
   44MOL    O9010496   4.399   2.444   2.760 -0.1017 -0.1336 -0.8879
   44MOL    O9110497   4.316   2.310   2.922 -0.3377  0.3792  0.0690
   44MOL    H9210498   4.007   2.384   2.620 -0.3636  3.2548 -1.6288
   44MOL    H9310499   4.149   2.291   2.625 -1.2123 -0.1257 -0.8800
   44MOL    H9410500   3.950   2.385   2.838 -1.5888 -2.5375  2.9791
   44MOL    H9510501   4.046   2.382   2.973  1.7280  0.0560 -0.2664
   44MOL    H9610502   4.062   2.256   2.843 -1.9794 -0.0552 -0.9171
   44MOL    H9710503   4.407   2.287   2.930 -0.5051  0.3434  2.1636
   44MOL    C9810504   4.125   2.591   2.800 -0.0144  0.3713 -0.0912
   44MOL    C9910505   4.174   2.682   2.923  0.3064  0.2639  0.0721
   44MOL   C10010506   4.161   2.598   3.055  0.1865  0.7835  0.6159
   44MOL   C10110507   4.323   2.713   2.915  0.1010 -0.2992  0.4301
   44MOL   O10210508   4.397   2.730   3.008 -0.1725 -0.5390  0.1069
   44MOL   O10310509   4.368   2.735   2.786 -0.6702 -1.1718  0.1044
   44MOL   H10410510   4.155   2.647   2.711  1.1611 -0.5789 -0.3074
   44MOL   H10510511   4.017   2.607   2.792  0.1969  1.3471 -1.1089
   44MOL   H10610512   4.201   2.652   3.140 -0.6349  1.2417  0.7205
   44MOL   H10710513   4.217   2.505   3.060  1.2826  1.4016 -0.0904
   44MOL   H10810514   4.062   2.566   3.088  0.9153 -2.1068  0.1552
   44MOL   H10910515   4.451   2.779   2.781 -0.2536 -2.1112 -1.6470
   44MOL   C11010516   4.083   2.802   2.948 -0.0510  0.6016 -0.0235
   44MOL   C11110517   4.084   2.939   2.868  0.1905 -1.1887  0.0152
   44MOL   C11210518   4.213   3.020   2.893  0.3641 -0.3968  0.0176
   44MOL   C11310519   4.074   2.914   2.715 -0.5212  0.2517 -0.1845
   44MOL   O11410520   4.170   2.922   2.643  0.0370 -0.2201  0.4662
   44MOL   O11510521   3.946   2.876   2.675 -0.3268 -0.2342 -0.1144
   44MOL   H11610522   3.982   2.762   2.950 -0.0301  0.6175  1.1543
   44MOL   H11710523   4.113   2.847   3.042  1.0750  2.1717 -1.1255
   44MOL   H11810524   4.226   3.040   2.999 -1.9978 -0.6601  0.3717
   44MOL   H11910525   4.227   3.108   2.831  0.3163 -0.9700 -0.8239
   44MOL   H12010526   4.297   2.964   2.851 -0.1459 -0.2271 -1.2707
   44MOL   H12110527   3.939   2.863   2.582 -0.9205 -1.8276  0.1375
   44MOL   C12210528   3.955   3.021   2.904  0.1414 -0.3691 -0.0807
   44MOL   C12310529   3.923   3.094   3.039  0.1653 -0.5445 -1.2216
   44MOL   C12410530   3.900   2.978   3.148  0.5819 -0.4410  0.0740
   44MOL   C12510531   4.035   3.188   3.085 -0.0864  0.2814 -0.1791
   44MOL   O12610532   4.093   3.178   3.188  0.5115 -0.0896 -0.6602
   44MOL   O12710533   4.073   3.265   2.979 -0.4183  0.2538 -0.3337
   44MOL   H12810534   3.961   3.108   2.838  0.3205  0.0555  0.4843
   44MOL   H12910535   3.866   2.965   2.875 -0.9981  2.4891 -2.4113
   44MOL   H13010536   3.984   2.931   3.198  0.1504 -0.4154  0.8309
   44MOL   H13110537   3.822   2.907   3.121  1.6309 -2.0379  1.2036
   44MOL   H13210538   3.848   3.024   3.232 -1.4622 -0.8442 -0.9419
   44MOL   H13310539   4.146   3.316   3.011  2.2042 -2.6451 -1.3693
   44MOL   C13410540   3.795   3.178   3.027  1.2925  0.5730  0.0461
   44MOL   C13510541   3.732   3.290   3.120  0.0615 -0.1451  0.6715
   44MOL   C13610542   3.699   3.232   3.261 -0.6537 -0.8457 -0.1787
   44MOL   C13710543   3.822   3.417   3.123  0.3689 -0.4956  0.3120
   44MOL   O13810544   3.858   3.478   3.226  0.0337  0.2887  0.1112
   44MOL   O13910545   3.850   3.462   3.001 -0.0488 -0.0471 -0.4113
   44MOL   H14010546   3.802   3.233   2.933  0.8957 -1.2642 -1.0911
   44MOL   H14110547   3.711   3.112   3.007 -1.8066  4.5040 -0.7185
   44MOL   H14210548   3.660   3.305   3.332  1.5608  0.6564 -0.4830
   44MOL   H14310549   3.793   3.219   3.314  0.8096 -0.5474 -2.6378
   44MOL   H14410550   3.648   3.135   3.258 -0.7061 -0.8424  0.4969
   44MOL   H14510551   3.884   3.550   3.006 -0.1204  0.0665 -1.6617
   44MOL   C14610552   3.600   3.321   3.049  0.6843 -0.1326 -0.0049
   44MOL   C14710553   3.498   3.434   3.069 -0.3407 -0.4467  0.7537
   44MOL   C14810554   3.358   3.380   3.011  0.1840  0.2142  0.2543
   44MOL   C14910555   3.465   3.455   3.220  0.1146 -0.3670  0.3920
   44MOL   O15010556   3.363   3.426   3.278  0.1200 -0.0122 -0.2499
   44MOL   O15110557   3.557   3.533   3.276 -0.1669  0.2298 -0.6123
   44MOL   H15210558   3.602   3.323   2.941  1.4582 -2.6177 -0.0700
   44MOL   H15310559   3.540   3.230   3.056  1.0418 -0.5303 -2.0946
   44MOL   H15410560   3.280   3.455   3.026 -2.3469 -2.4115  0.7065
   44MOL   H15510561   3.314   3.293   3.059 -1.9815  1.3890  0.4551
   44MOL   H15610562   3.373   3.342   2.909  1.2624  1.9751 -0.2651
   44MOL   H15710563   3.529   3.545   3.366  1.7560 -2.1954  0.3747
   44MOL   C15810564   3.536   3.569   3.001 -0.1269  0.2738  0.3340
   44MOL   C15910565   3.510   3.605   2.845  0.9332  0.6501  0.0353
   44MOL   C16010566   3.562   3.494   2.749  0.4161 -0.3000  0.3942
   44MOL   C16110567   3.356   3.639   2.828 -1.1176  0.2690 -1.1683
   44MOL   O16210568   3.268   3.652   2.916  0.0215  0.0750  0.2896
   44MOL   O16310569   3.324   3.634   2.699 -0.4728 -0.7552  0.5064
   44MOL   H16410570   3.476   3.642   3.055 -0.1838 -0.4267  1.2340
   44MOL   H16510571   3.641   3.588   3.020 -0.1891  0.1191  0.8588
   44MOL   H16610572   3.550   3.515   2.642  1.1995  2.1742  0.7644
   44MOL   H16710573   3.500   3.405   2.763 -0.7916  0.4124 -0.3015
   44MOL   H16810574   3.661   3.454   2.768  0.1914 -0.7632  0.5921
   44MOL   H16910575   3.231   3.652   2.695  0.0483  1.7810 -2.4655
   44MOL   C17010576   3.586   3.733   2.793 -0.0604  0.1846  0.1545
   44MOL   C17110577   3.572   3.888   2.821 -0.1943  0.4107  0.2213
   44MOL   C17210578   3.681   3.964   2.742  0.2358 -0.4826 -0.5571
   44MOL   C17310579   3.438   3.938   2.770 -0.2418 -0.1415  0.1816
   44MOL   O17410580   3.345   3.984   2.834  0.1545  0.4274 -0.4175
   44MOL   O17510581   3.440   3.933   2.633  0.0644 -0.3222  0.5068
   44MOL   H17610582   3.692   3.706   2.804 -0.7670 -3.5355 -1.2836
   44MOL   H17710583   3.576   3.715   2.686 -0.0796 -2.4953  0.5595
   44MOL   H17810584   3.676   3.922   2.642  2.3017 -1.6534 -0.1917
   44MOL   H17910585   3.783   3.944   2.774  0.1890  0.3722  0.1823
   44MOL   H18010586   3.670   4.073   2.739  0.9286 -0.4465 -2.1131
   44MOL   H18110587   3.358   3.959   2.594  0.9919  0.4840 -0.9445
   44MOL   C18210588   3.598   3.908   2.979 -0.3025  0.1830  0.5593
   44MOL   C18310589   3.618   4.045   3.061 -0.3602 -0.2732 -0.2609
   44MOL   C18410590   3.765   4.098   3.036  0.7734  0.0831 -0.4461
   44MOL   C18510591   3.521   4.162   3.018  0.0981  0.4511  0.5241
   44MOL   O18610592   3.427   4.210   3.082  0.2903 -0.3067 -0.0973
   44MOL   O18710593   3.550   4.221   2.897 -0.5240 -0.1250 -0.5757
   44MOL   H18810594   3.524   3.842   3.025  0.7062 -0.2617  1.5428
   44MOL   H18910595   3.693   3.859   2.995 -0.7623  0.2842  3.7723
   44MOL   H19010596   3.770   4.166   2.951  1.1148 -0.3505 -0.7732
   44MOL   H19110597   3.838   4.018   3.023 -0.3596 -1.4316  2.1449
   44MOL   H19210598   3.796   4.160   3.120 -0.6083  2.4761 -1.6375
   44MOL   H19310599   3.488   4.287   2.871  2.1892  1.7168 -2.5854
   44MOL   C19410600   3.580   4.004   3.209  0.1455 -0.0116  0.3460
   44MOL   C19510601   3.687   3.941   3.312 -0.0753 -0.3195  0.4053
   44MOL   C19610602   3.750   3.807   3.252  0.0558  0.0537 -0.3900
   44MOL   C19710603   3.810   4.033   3.346  0.5187 -0.4962 -0.1794
   44MOL   O19810604   3.924   3.994   3.330 -0.2810 -0.7053  0.0844
   44MOL   O19910605   3.775   4.146   3.411  0.0875 -0.1973  0.4232
   44MOL   H20010606   3.563   4.102   3.254 -0.9287  0.6789 -1.5295
   44MOL   H20110607   3.486   3.948   3.202  0.1996  0.0774 -1.2884
   44MOL   H20210608   3.675   3.741   3.208 -1.3020  2.2143 -1.3900
   44MOL   H20310609   3.801   3.759   3.335 -0.0726  1.4984  0.5439
   44MOL   H20410610   3.830   3.820   3.179  0.4825 -3.3601 -0.6256
   44MOL   H20510611   3.853   4.184   3.447  1.7119 -1.3849 -1.7268
   44MOL   C20610612   3.605   3.903   3.444 -0.1301  0.1057 -0.1750
   44MOL   C20710613   3.662   3.891   3.591 -0.4608 -0.3586  0.7043
   44MOL   C20810614   3.664   4.033   3.653  0.2115  0.0144  0.0337
   44MOL   C20910615   3.555   3.806   3.667 -0.4453  0.5974 -0.7428
   44MOL   O21010616   3.555   3.683   3.684 -0.1780 -0.5625  0.4442
   44MOL   O21110617   3.454   3.876   3.712  0.3366 -0.3266  0.2045
   44MOL   H21210618   3.528   3.980   3.457 -0.2145 -0.3333  2.0169
   44MOL   H21310619   3.557   3.809   3.417 -0.4385 -0.0671  0.9586
   44MOL   H21410620   3.758   4.085   3.636  0.8020 -0.4315  1.8246
   44MOL   H21510621   3.644   4.044   3.759  1.4518  0.6553  0.2086
   44MOL   H21610622   3.604   4.106   3.599 -1.1520 -1.7389 -0.9048
   44MOL   H21710623   3.388   3.820   3.749  0.6360 -0.8432 -0.0344
   44MOL   C21810624   3.802   3.816   3.601  0.1067 -0.7378 -0.1260
   44MOL   C21910625   3.889   3.801   3.734  0.5074 -0.3786 -0.1532
   44MOL   C22010626   4.021   3.732   3.694  0.5915  0.7645  0.8105
   44MOL   C22110627   3.933   3.934   3.803 -0.4641  0.1041 -0.3886
   44MOL   O22210628   3.868   3.995   3.887  0.0160  0.1572  0.2912
   44MOL   O22310629   4.046   3.994   3.757 -0.5048  0.3974 -0.1656
   44MOL   H22410630   3.779   3.714   3.570  1.9455 -1.3415  0.4203
   44MOL   H22510631   3.878   3.862   3.537 -0.1537  0.7389  0.6083
   44MOL   H22610632   4.073   3.762   3.603 -0.1729 -0.2370  0.0330
   44MOL   H22710633   4.000   3.629   3.661 -0.2052  1.6224 -1.4984
   44MOL   H22810634   4.099   3.726   3.769 -0.8282 -0.7551  2.1985
   44MOL   H22910635   4.095   3.960   3.684 -0.6390  0.8261 -0.4593
   44MOL   C23010636   3.819   3.712   3.841 -0.1755  0.4325  0.0644
   44MOL   C23110637   3.889   3.674   3.978  0.6940 -0.0733  0.2470
   44MOL   C23210638   3.788   3.661   4.096  0.0175  0.0990  0.2064
   44MOL   C23310639   3.973   3.549   3.956  0.8082 -0.2255  0.4135
   44MOL   O23410640   4.094   3.542   3.975  0.2046  0.1073  0.4430
   44MOL   O23510641   3.914   3.443   3.900  0.7821 -0.2311 -0.0206
   44MOL   H23610642   3.720   3.751   3.868 -0.2637 -0.6572  1.3961
   44MOL   H23710643   3.786   3.624   3.785 -2.2249  2.2042 -1.6196
   44MOL   H23810644   3.738   3.754   4.120 -0.8524  0.1145 -1.5767
   44MOL   H23910645   3.839   3.639   4.190  1.0592 -1.6301 -0.7323
   44MOL   H24010646   3.712   3.583   4.088 -1.1375  1.0877  1.3678
   44MOL   H24110647   3.820   3.436   3.889  0.3350  2.2801  1.5761
   44MOL   H24210648   3.956   3.753   4.010  1.4652  0.3535 -2.2715
   45MOL     C110649   1.500   5.323   6.192 -0.8030 -0.5075 -0.3102
   45MOL     C210650   1.508   5.465   6.266  0.1908  0.1851  0.2401
   45MOL     C310651   1.656   5.507   6.241 -0.0818 -1.0945 -0.5866
   45MOL     C410652   1.421   5.566   6.189 -0.2355  0.3346  0.0556
   45MOL     O510653   1.336   5.536   6.107 -0.2298  0.2699  0.3234
   45MOL     O610654   1.451   5.689   6.233  0.2701 -0.1777 -0.2120
   45MOL     H710655   1.550   5.240   6.242  0.2240  0.7581  0.7952
   45MOL     H810656   1.535   5.320   6.089  0.7481 -0.3979  0.2052
   45MOL     H910657   1.735   5.434   6.261  0.9133  0.4272  1.1082
   45MOL    H1010658   1.684   5.594   6.299 -0.9127 -1.4530  0.3692
   45MOL    H1110659   1.669   5.538   6.137  1.7309  1.5144  0.3942
   45MOL    H1210660   1.387   5.757   6.218 -0.3788 -0.5516  0.7713
   45MOL    H1310661   1.394   5.297   6.197 -0.5923 -1.4557 -0.6508
   45MOL    C1410662   1.490   5.458   6.424  0.1177 -0.2804  0.1839
   45MOL    C1510663   1.345   5.446   6.498 -0.4906  0.1351  0.2302
   45MOL    C1610664   1.283   5.592   6.493 -0.6325 -0.0903 -0.1973
   45MOL    C1710665   1.252   5.353   6.416 -0.4891 -0.4499  0.5856
   45MOL    O1810666   1.151   5.390   6.358  0.2336  0.4496 -0.1659
   45MOL    O1910667   1.298   5.220   6.410  0.1616 -0.2501 -0.1325
   45MOL    H2010668   1.548   5.373   6.458  0.2281  0.0084  0.7144
   45MOL    H2110669   1.536   5.546   6.467 -0.3775  0.4081 -0.6708
   45MOL    H2210670   1.272   5.639   6.395 -2.0225 -0.7330 -0.3700
   45MOL    H2310671   1.334   5.660   6.561  2.1196 -1.4794 -0.7845
   45MOL    H2410672   1.175   5.582   6.507 -0.2966 -0.7996  1.9676
   45MOL    H2510673   1.229   5.168   6.371  0.4557 -0.8777  0.1833
   45MOL    C2610674   1.374   5.394   6.639 -0.0358 -0.4083 -0.5402
   45MOL    C2710675   1.269   5.372   6.754  0.0103 -0.0684 -0.2879
   45MOL    C2810676   1.212   5.510   6.790  0.3192  0.3605 -0.0773
   45MOL    C2910677   1.157   5.274   6.706  0.7577 -0.4226  0.0967
   45MOL    O3010678   1.043   5.307   6.674 -0.4996 -0.8615  0.8194
   45MOL    O3110679   1.205   5.150   6.690  0.2497  0.1007  0.3979
   45MOL    H3210680   1.437   5.305   6.635  0.9470  0.3084 -1.1996
   45MOL    H3310681   1.441   5.467   6.685 -0.8479  0.0480 -0.0597
   45MOL    H3410682   1.136   5.508   6.868  1.7438 -2.2628  1.3236
   45MOL    H3510683   1.158   5.549   6.704 -1.3072  2.6357  1.9141
   45MOL    H3610684   1.287   5.582   6.824  1.7413 -1.1525  0.0738
   45MOL    H3710685   1.138   5.096   6.651 -1.3256  2.9668 -1.0012
   45MOL    C3810686   1.355   5.309   6.875  0.1068  0.2005  0.4002
   45MOL    C3910687   1.301   5.282   7.020 -0.0886 -0.5059 -0.4957
   45MOL    C4010688   1.405   5.191   7.082  0.0207 -0.4140 -0.0062
   45MOL    C4110689   1.295   5.419   7.089  0.9912 -0.0976  0.6814
   45MOL    O4210690   1.180   5.473   7.097 -0.3479  0.2127 -0.1786
   45MOL    O4310691   1.412   5.473   7.121 -0.2373 -0.1955 -0.1974
   45MOL    H4410692   1.404   5.216   6.845 -0.3908 -0.1210  0.5757
   45MOL    H4510693   1.440   5.374   6.892 -0.3652  0.4983  1.7065
   45MOL    H4610694   1.406   5.098   7.025 -2.7787 -0.0989 -0.6362
   45MOL    H4710695   1.374   5.170   7.185 -1.0995  0.7491 -0.0935
   45MOL    H4810696   1.502   5.240   7.078 -0.2056  0.0313 -0.0820
   45MOL    H4910697   1.386   5.554   7.161 -0.4585 -0.1199 -0.4991
   45MOL    C5010698   1.156   5.216   7.012 -0.4309 -0.5338  0.7062
   45MOL    C5110699   1.067   5.150   7.131  0.2185 -1.4589 -0.0978
   45MOL    C5210700   1.135   5.040   7.217 -1.1535  0.2308  0.0237
   45MOL    C5310701   1.031   5.260   7.240  0.2075 -0.2047  0.5228
   45MOL    O5410702   1.086   5.275   7.348 -0.1330 -0.4030 -0.1654
   45MOL    O5510703   0.941   5.351   7.193 -0.7722  0.1851  0.4189
   45MOL    H5610704   1.090   5.289   6.965  1.7907  2.7430  2.4341
   45MOL    H5710705   1.167   5.125   6.952  0.5453 -0.5947  0.9721
   45MOL    H5810706   1.073   4.979   7.282 -1.1261 -1.6517 -1.6579
   45MOL    H5910707   1.213   5.082   7.281  0.3625 -1.8824 -0.3593
   45MOL    H6010708   1.190   4.959   7.168 -0.6309 -0.1065  1.1626
   45MOL    H6110709   0.927   5.420   7.255 -2.2879  0.8785 -0.6723
   45MOL    C6210710   0.936   5.091   7.061  0.3832  0.0237  0.0088
   45MOL    C6310711   0.818   5.004   7.119 -0.0675 -0.1900 -0.2392
   45MOL    C6410712   0.858   4.865   7.172 -0.2821  0.0613 -0.5853
   45MOL    C6510713   0.746   5.084   7.229  0.3487 -0.5472  0.0935
   45MOL    O6610714   0.699   5.201   7.217  0.2632 -0.2835  0.1934
   45MOL    O6710715   0.719   5.010   7.347  0.0328  0.2542  0.0161
   45MOL    H6810716   0.895   5.176   7.005  1.1931  0.9798  0.8368
   45MOL    H6910717   0.988   5.024   6.993  1.2750 -1.4608  2.1103
   45MOL    H7010718   0.894   4.870   7.275 -2.1200  1.6279  0.0006
   45MOL    H7110719   0.933   4.810   7.114 -0.2124  0.6878 -1.0969
   45MOL    H7210720   0.775   4.795   7.179  0.8328 -1.0194  2.8789
   45MOL    H7310721   0.657   5.054   7.403  0.9060  1.4308  0.0758
   45MOL    C7410722   0.707   4.982   7.005 -0.1837 -0.0013  1.0187
   45MOL    C7510723   0.740   4.916   6.869  0.0475 -0.5068  0.0020
   45MOL    C7610724   0.601   4.914   6.811 -0.5711 -0.4634  0.0496
   45MOL    C7710725   0.819   5.018   6.780  0.0555  0.3085 -0.7381
   45MOL    O7810726   0.940   5.009   6.756  0.3879  0.7675  0.0924
   45MOL    O7910727   0.751   5.123   6.741 -0.2089  0.0384  0.4931
   45MOL    H8010728   0.629   4.923   7.052 -0.5724 -0.4192 -0.1199
   45MOL    H8110729   0.666   5.081   6.986  0.7862  0.4772  1.4034
   45MOL    H8210730   0.548   4.828   6.853 -3.3591  0.7939 -0.7909
   45MOL    H8310731   0.596   4.905   6.702 -0.9402 -1.3621  0.1306
   45MOL    H8410732   0.536   4.998   6.836  1.7933  1.9092 -1.5605
   45MOL    H8510733   0.657   5.116   6.750 -0.0419 -1.1457  1.4384
   45MOL    C8610734   0.809   4.775   6.881  0.1165  0.4620  0.5814
   45MOL    C8710735   0.809   4.671   6.762  0.7436  0.3123 -0.2578
   45MOL    C8810736   0.883   4.545   6.812  0.3448 -0.6665  0.3159
   45MOL    C8910737   0.668   4.628   6.716  0.0202 -0.6679 -0.2868
   45MOL    O9010738   0.603   4.671   6.619 -0.1892 -0.8717  0.2990
   45MOL    O9110739   0.615   4.547   6.814 -0.5219  0.1157  0.3043
   45MOL    H9210740   0.909   4.787   6.921  0.1924  1.4716  0.1087
   45MOL    H9310741   0.760   4.714   6.957 -0.7162  0.9614  0.4496
   45MOL    H9410742   0.991   4.561   6.820  0.3865 -2.1556  3.1773
   45MOL    H9510743   0.866   4.462   6.744 -1.8698 -1.2723  1.5638
   45MOL    H9610744   0.842   4.524   6.910  0.9990  1.0440  0.9852
   45MOL    H9710745   0.526   4.529   6.786 -0.1785  2.3426 -2.4211
   45MOL    C9810746   0.890   4.731   6.643  0.1714  0.4047 -0.3506
   45MOL    C9910747   0.980   4.658   6.527  0.0679  0.4889  0.1331
   45MOL   C10010748   1.118   4.610   6.594 -0.0437  0.3113 -0.5067
   45MOL   C10110749   0.909   4.530   6.469  0.4613  1.0285  0.6681
   45MOL   O10210750   0.790   4.518   6.458  0.0865  0.3136  0.7272
   45MOL   O10310751   0.996   4.439   6.426  0.1235  0.2527  0.3370
   45MOL   H10410752   0.833   4.804   6.586  2.8921  4.3975  1.7367
   45MOL   H10510753   0.962   4.795   6.695  1.4019 -0.7809 -0.5907
   45MOL   H10610754   1.155   4.669   6.678 -0.4037 -1.3087  0.8278
   45MOL   H10710755   1.206   4.613   6.529  0.3628 -0.7485 -0.0266
   45MOL   H10810756   1.115   4.509   6.634 -1.9974 -0.7095 -3.0961
   45MOL   H10910757   0.952   4.365   6.388 -1.1851  1.2533 -0.1399
   45MOL   C11010758   1.027   4.751   6.408 -0.3289  0.1617  0.0055
   45MOL   C11110759   0.944   4.864   6.337  0.4629  0.4109  0.3445
   45MOL   C11210760   0.796   4.814   6.319 -0.4797  0.1781  0.1931
   45MOL   C11310761   0.949   4.992   6.419 -0.0359 -0.1648  0.0868
   45MOL   O11410762   1.046   5.019   6.490  0.0439  0.1303 -0.1122
   45MOL   O11510763   0.845   5.078   6.414  0.0371 -0.4711 -0.0712
   45MOL   H11610764   1.122   4.796   6.434 -0.8085  1.4121 -0.4019
   45MOL   H11710765   1.059   4.676   6.335  1.1849 -1.7857  2.5525
   45MOL   H11810766   0.770   4.722   6.269  0.6836 -0.3838  0.5882
   45MOL   H11910767   0.739   4.884   6.258  2.6250  2.0468 -0.6803
   45MOL   H12010768   0.737   4.816   6.411  1.7098 -1.8672  1.6984
   45MOL   H12110769   0.870   5.139   6.482 -1.5541  1.1498 -0.8906
   45MOL   C12210770   1.002   4.887   6.197  0.1714 -0.0474 -0.4682
   45MOL   C12310771   0.979   5.001   6.092  0.6917  0.0239  0.2190
   45MOL   C12410772   0.831   5.045   6.080 -0.0780  0.2437  1.0532
   45MOL   C12510773   1.068   5.120   6.131 -0.2308 -0.1755  0.3710
   45MOL   O12610774   1.175   5.111   6.194  0.0309  0.3088 -0.3410
   45MOL   O12710775   1.005   5.233   6.095 -0.3599 -0.2518 -0.5231
   45MOL   H12810776   1.110   4.876   6.211  0.0229 -1.5127 -0.3686
   45MOL   H12910777   0.977   4.792   6.150 -0.9470 -0.6725  1.3399
   45MOL   H13010778   0.767   4.959   6.059  3.0099 -1.7529 -0.5668
   45MOL   H13110779   0.810   5.105   5.991  1.0472 -0.0925  0.5522
   45MOL   H13210780   0.790   5.103   6.163  1.1232  0.3136  1.6043
   45MOL   H13310781   1.046   5.317   6.111 -1.1718  0.1101 -0.3038
   45MOL   C13410782   1.027   4.939   5.959 -0.1828 -0.4237  0.1581
   45MOL   C13510783   1.090   5.007   5.835  1.0128 -0.1566 -0.2065
   45MOL   C13610784   1.108   4.891   5.716  0.3628  0.1094 -0.6883
   45MOL   C13710785   0.997   5.118   5.786 -0.4333  0.0151  0.9129
   45MOL   O13810786   1.014   5.237   5.800 -0.2137 -0.2511  0.2877
   45MOL   O13910787   0.879   5.074   5.735  0.2991 -0.0368  0.4010
   45MOL   H14010788   1.094   4.853   5.971 -2.5918 -2.3329  0.1991
   45MOL   H14110789   0.930   4.907   5.922 -0.2015 -2.3906  1.8084
   45MOL   H14210790   1.103   4.941   5.619  0.3883 -1.3858 -1.4676
   45MOL   H14310791   1.024   4.823   5.725  1.7173 -1.5898 -0.5545
   45MOL   H14410792   1.196   4.828   5.732 -1.1708 -1.4154  2.2344
   45MOL   H14510793   0.810   5.134   5.713  0.8478 -0.4576 -2.6615
   45MOL   C14610794   1.225   5.077   5.871  0.2385 -0.0959  0.3993
   45MOL   C14710795   1.339   5.101   5.766 -0.7039 -0.8275 -0.4768
   45MOL   C14810796   1.442   5.198   5.841  0.5022 -0.0418 -0.5670
   45MOL   C14910797   1.414   4.973   5.740  1.0255 -0.4723  0.7470
   45MOL   O15010798   1.414   4.915   5.635 -0.3446  0.2294 -0.2128
   45MOL   O15110799   1.473   4.929   5.854 -0.6937 -0.4894  0.0218
   45MOL   H15210800   1.227   5.177   5.915  0.1185 -0.4199  1.1517
   45MOL   H15310801   1.274   5.016   5.946  0.9863 -1.8479 -1.4732
   45MOL   H15410802   1.442   5.167   5.946 -1.1904 -1.3225 -0.9126
   45MOL   H15510803   1.414   5.303   5.846  0.6968 -0.0011 -0.3349
   45MOL   H15610804   1.546   5.185   5.813  0.3812 -0.9896 -0.6165
   45MOL   H15710805   1.513   4.848   5.828  0.1636  0.1337 -0.6564
   45MOL   C15810806   1.288   5.176   5.627 -0.1492  0.5731 -0.1905
   45MOL   C15910807   1.375   5.234   5.512 -0.1712  0.1390  0.1207
   45MOL   C16010808   1.495   5.314   5.559  0.0583  0.8498 -0.1226
   45MOL   C16110809   1.422   5.122   5.419 -0.5167 -0.3276 -0.3546
   45MOL   O16210810   1.536   5.106   5.381 -0.3805 -0.3749  0.2816
   45MOL   O16310811   1.322   5.033   5.388  0.5959 -0.7246  0.1967
   45MOL   H16410812   1.196   5.139   5.582 -0.2393 -0.5511  0.9075
   45MOL   H16510813   1.246   5.267   5.669 -2.3703  0.6476 -2.4250
   45MOL   H16610814   1.468   5.400   5.620 -0.6309  1.0980 -0.7647
   45MOL   H16710815   1.560   5.350   5.480  2.3976 -1.2452  0.7736
   45MOL   H16810816   1.555   5.247   5.620 -0.9566 -0.9872 -1.0965
   45MOL   H16910817   1.374   4.956   5.367  0.5029 -1.7852  3.5663
   45MOL   C17010818   1.291   5.323   5.412 -0.0450 -0.7103  0.6548
   45MOL   C17110819   1.243   5.473   5.447  0.4138 -0.5010 -0.0455
   45MOL   C17210820   1.188   5.488   5.588 -0.4369 -0.5602  0.2347
   45MOL   C17310821   1.350   5.583   5.430  0.0910 -0.7492 -0.1905
   45MOL   O17410822   1.467   5.563   5.389 -0.3116  0.8713  0.0738
   45MOL   O17510823   1.310   5.709   5.472 -0.2609 -0.3734 -0.0810
   45MOL   H17610824   1.356   5.326   5.325  0.5371 -4.6869  0.8640
   45MOL   H17710825   1.208   5.260   5.381 -0.4869  0.8114 -1.3976
   45MOL   H17810826   1.117   5.413   5.623 -2.1455  0.0412 -1.8075
   45MOL   H17910827   1.141   5.584   5.608  2.8984  1.0336  0.8379
   45MOL   H18010828   1.269   5.484   5.661  0.7271 -0.0022 -0.9917
   45MOL   H18110829   1.379   5.768   5.445 -0.5348 -0.3860 -0.8027
   45MOL   C18210830   1.115   5.507   5.359 -0.1219  0.0178 -0.1538
   45MOL   C18310831   1.118   5.489   5.202 -0.2617 -0.5071  0.3568
   45MOL   C18410832   1.247   5.543   5.133  0.0365  0.2724  0.0694
   45MOL   C18510833   1.089   5.338   5.166 -0.4864 -0.2200  0.2764
   45MOL   O18610834   1.000   5.271   5.223  0.3451 -0.4647  0.3452
   45MOL   O18710835   1.178   5.296   5.070  0.0765  0.1852  0.2374
   45MOL   H18810836   1.032   5.445   5.395 -0.1064  1.5874  2.7082
   45MOL   H18910837   1.075   5.607   5.376  0.9959  0.5539 -0.6238
   45MOL   H19010838   1.321   5.464   5.143 -0.4405 -0.1696  0.1054
   45MOL   H19110839   1.279   5.637   5.178 -3.2107  1.1616  0.6480
   45MOL   H19210840   1.242   5.565   5.026 -0.3790 -0.4916 -0.0738
   45MOL   H19310841   1.156   5.217   5.023  2.8225 -1.3467  1.4282
   45MOL   C19410842   1.003   5.585   5.152  0.5251 -0.0934  0.4338
   45MOL   C19510843   0.929   5.583   5.012  0.0319 -0.2603  0.2059
   45MOL   C19610844   1.030   5.581   4.896  0.3164 -0.0340 -0.1976
   45MOL   C19710845   0.842   5.455   5.000 -0.7337  0.3756 -0.2490
   45MOL   O19810846   0.856   5.380   4.905  0.5297  0.1417 -0.1515
   45MOL   O19910847   0.765   5.431   5.111  0.3872 -0.6901 -0.9707
   45MOL   H20010848   0.925   5.601   5.227  1.2191 -0.1293  1.1678
   45MOL   H20110849   1.057   5.680   5.157  1.6413 -0.5088 -2.6750
   45MOL   H20210850   1.082   5.487   4.878 -0.0110 -0.1972 -0.3105
   45MOL   H20310851   1.100   5.664   4.903  0.4383  0.0064 -1.6321
   45MOL   H20410852   0.984   5.603   4.799 -1.9894  0.3009  0.9349
   45MOL   H20510853   0.711   5.353   5.114  1.8341 -1.6178  1.3459
   45MOL   C20610854   0.850   5.717   4.992  0.0458 -0.1003 -0.2823
   45MOL   C20710855   0.751   5.797   5.092  0.2250 -0.3061  0.6393
   45MOL   C20810856   0.642   5.713   5.151  0.1208  0.2440 -0.0496
   45MOL   C20910857   0.833   5.843   5.209 -0.7814  0.1559  0.3829
   45MOL   O21010858   0.811   5.812   5.327 -0.4454 -0.2387  0.1246
   45MOL   O21110859   0.939   5.920   5.168 -0.4249 -0.6168  0.4750
   45MOL   H21210860   0.924   5.791   4.961  2.0126 -1.3058  1.3676
   45MOL   H21310861   0.790   5.692   4.905  0.5070 -2.0215 -0.0836
   45MOL   H21410862   0.687   5.622   5.190 -0.1629  0.1555  0.0710
   45MOL   H21510863   0.564   5.682   5.082 -1.5061  0.6095  1.5753
   45MOL   H21610864   0.588   5.746   5.239 -2.6440  0.2049 -1.6809
   45MOL   H21710865   0.981   5.941   5.250 -0.0797 -1.3682  0.4950
   45MOL   C21810866   0.699   5.919   5.007 -0.3558 -0.0307  0.5258
   45MOL   C21910867   0.588   6.026   5.056  0.4614  0.2950 -0.1458
   45MOL   C22010868   0.449   5.952   5.072 -0.0286 -0.6729 -0.0306
   45MOL   C22110869   0.635   6.099   5.180 -0.5341  0.2369  0.0546
   45MOL   O22210870   0.566   6.106   5.281 -0.1802 -0.0487 -0.3048
   45MOL   O22310871   0.758   6.162   5.167 -0.2415  0.0996  0.2640
   45MOL   H22410872   0.784   5.977   4.971 -1.8503  2.5021  0.9179
   45MOL   H22510873   0.657   5.879   4.914 -1.0745 -1.7580  1.5796
   45MOL   H22610874   0.387   6.011   5.139  1.3328 -0.3467  0.9741
   45MOL   H22710875   0.446   5.861   5.131 -2.3805 -1.0058 -0.6327
   45MOL   H22810876   0.405   5.927   4.975 -2.9986 -0.5154  1.2139
   45MOL   H22910877   0.779   6.212   5.244  1.4032  1.9624 -1.3500
   45MOL   C23010878   0.580   6.129   4.938  0.2994  0.0644 -0.1326
   45MOL   C23110879   0.479   6.242   4.946  1.0794 -0.3304  0.5104
   45MOL   C23210880   0.522   6.362   5.032 -0.1136  0.2024  0.8181
   45MOL   C23310881   0.432   6.306   4.811  0.6051 -0.3661  0.1367
   45MOL   O23410882   0.509   6.365   4.736 -0.2635 -0.6952  0.1954
   45MOL   O23510883   0.299   6.293   4.791  0.1656  0.2073 -0.5465
   45MOL   H23610884   0.675   6.182   4.929  0.1553  0.4783  0.7834
   45MOL   H23710885   0.558   6.073   4.846 -1.4348 -1.2822  1.0634
   45MOL   H23810886   0.449   6.441   5.014  2.3137  2.7455  1.8662
   45MOL   H23910887   0.616   6.406   5.001  0.4264 -0.1342  1.9422
   45MOL   H24010888   0.519   6.350   5.141 -1.1099  0.3379  0.8098
   45MOL   H24110889   0.275   6.324   4.705  2.1137 -0.2465 -1.2852
   45MOL   H24210890   0.390   6.205   4.998  0.5075  1.2248  0.6821
   46MOL     C110891   7.114   3.942   3.592  0.3656 -0.1846 -0.5357
   46MOL     C210892   7.178   3.833   3.683  0.1312 -0.6148 -0.6497
   46MOL     C310893   7.270   3.763   3.588 -0.2306 -0.4440  0.9811
   46MOL     C410894   7.251   3.914   3.794  0.0510 -0.1801  0.1084
   46MOL     O510895   7.218   4.024   3.837 -0.2533 -0.7342  0.2865
   46MOL     O610896   7.344   3.833   3.861  0.3217  1.0457 -0.0218
   46MOL     H710897   7.050   3.879   3.529 -0.4951 -0.0598  0.1987
   46MOL     H810898   7.185   4.000   3.533 -0.3290 -0.6555 -1.8731
   46MOL     H910899   7.360   3.723   3.636  0.6118 -0.7678 -0.8049
   46MOL    H1010900   7.314   3.828   3.512  0.8870 -1.0275  1.1065
   46MOL    H1110901   7.224   3.670   3.555  1.5091 -1.0252  0.1263
   46MOL    H1210902   7.348   3.864   3.950  0.4197 -1.0844  0.7580
   46MOL    H1310903   7.052   4.011   3.648 -1.9966 -2.7289  0.0904
   46MOL    C1410904   7.066   3.735   3.737 -0.5012 -0.1745  0.0930
   46MOL    C1510905   7.087   3.632   3.857  0.2734  0.2474 -0.0838
   46MOL    C1610906   7.220   3.559   3.826  0.6865  0.0318  0.3722
   46MOL    C1710907   7.098   3.708   3.997 -0.3234 -0.5091  0.3029
   46MOL    O1810908   7.168   3.682   4.093  0.2547  0.3456 -0.1173
   46MOL    O1910909   7.013   3.811   3.986 -0.1739  0.0772 -0.0929
   46MOL    H2010910   6.986   3.803   3.765 -1.1859 -0.0518 -2.1097
   46MOL    H2110911   7.024   3.688   3.648  2.3693 -0.5507 -1.1427
   46MOL    H2210912   7.221   3.468   3.886 -3.5160  0.9872  2.0814
   46MOL    H2310913   7.315   3.605   3.854  0.7261  1.2090 -1.6214
   46MOL    H2410914   7.237   3.530   3.722  2.8132  2.6915 -0.0737
   46MOL    H2510915   7.011   3.870   4.060 -1.9448 -2.2997  1.8305
   46MOL    C2610916   6.964   3.541   3.854 -0.2405  0.1247  0.3863
   46MOL    C2710917   6.922   3.432   3.961 -0.2776  0.4202  0.0201
   46MOL    C2810918   7.043   3.367   4.037 -0.2229  0.3752  0.0699
   46MOL    C2910919   6.824   3.491   4.068 -0.2152  0.4121  0.1840
   46MOL    O3010920   6.786   3.603   4.068  0.3579 -0.5968  0.0750
   46MOL    O3110921   6.795   3.408   4.170 -0.4165  0.0831 -0.6094
   46MOL    H3210922   6.880   3.606   3.832 -0.5137 -0.3267  0.0731
   46MOL    H3310923   6.985   3.481   3.765  1.6115  0.9842  0.2122
   46MOL    H3410924   7.103   3.309   3.966 -1.6722 -0.5347 -0.4578
   46MOL    H3510925   7.003   3.302   4.115 -0.4477  1.5109  0.9127
   46MOL    H3610926   7.107   3.442   4.083  0.8586 -0.1514 -0.5512
   46MOL    H3710927   6.849   3.332   4.185 -1.3404 -0.3429  0.6767
   46MOL    C3810928   6.855   3.307   3.897  0.2038 -0.3936  0.1916
   46MOL    C3910929   6.738   3.308   3.786  0.4162  0.0093 -0.9206
   46MOL    C4010930   6.627   3.414   3.824  0.4462  0.3570  0.4820
   46MOL    C4110931   6.801   3.354   3.654  0.6946 -0.1145  0.1116
   46MOL    O4210932   6.756   3.453   3.589  0.2760  0.5437 -0.5192
   46MOL    O4310933   6.910   3.283   3.615 -0.4188  0.0530  0.1229
   46MOL    H4410934   6.939   3.253   3.853  1.4163  1.9985 -0.5225
   46MOL    H4510935   6.822   3.246   3.981  1.2350  0.9720  1.6147
   46MOL    H4610936   6.592   3.398   3.926  0.1559 -0.1157  0.3087
   46MOL    H4710937   6.534   3.417   3.767  0.5175 -1.2747  0.2644
   46MOL    H4810938   6.672   3.513   3.822  1.1738  0.0175 -0.2932
   46MOL    H4910939   6.939   3.333   3.541 -1.4511 -1.4585 -1.3254
   46MOL    C5010940   6.674   3.162   3.776 -0.7456  0.3435 -0.5669
   46MOL    C5110941   6.553   3.127   3.675  0.0390  0.2261 -0.2435
   46MOL    C5210942   6.421   3.165   3.744  0.3850  0.2758 -1.3262
   46MOL    C5310943   6.548   3.195   3.536 -0.1287 -0.7165  0.1297
   46MOL    O5410944   6.591   3.136   3.436 -0.2181  0.1984  0.2088
   46MOL    O5510945   6.494   3.317   3.539 -0.1122  0.1158  0.5835
   46MOL    H5610946   6.752   3.097   3.735 -0.0935 -0.6728  2.1834
   46MOL    H5710947   6.666   3.122   3.877 -1.9129 -0.7847 -1.0934
   46MOL    H5810948   6.379   3.081   3.800 -1.1827  0.9981 -1.3855
   46MOL    H5910949   6.339   3.202   3.683  1.0714  1.9040 -1.2704
   46MOL    H6010950   6.434   3.233   3.828  0.5197 -1.2693 -0.0517
   46MOL    H6110951   6.463   3.341   3.625  0.1451  1.9124  0.2039
   46MOL    C6210952   6.547   2.965   3.646  0.2677 -0.0333  0.2659
   46MOL    C6310953   6.670   2.864   3.639 -0.8079 -0.2732 -0.0468
   46MOL    C6410954   6.784   2.902   3.537  0.0981  0.3062  0.3764
   46MOL    C6510955   6.726   2.850   3.786 -0.1079  0.2787  0.0807
   46MOL    O6610956   6.664   2.857   3.892 -0.3185  0.1283  0.2863
   46MOL    O6710957   6.864   2.831   3.785  0.1376  0.1285  0.0911
   46MOL    H6810958   6.482   2.917   3.719 -0.4808 -1.1379 -1.1040
   46MOL    H6910959   6.483   2.948   3.559  2.2444 -0.9383 -1.0272
   46MOL    H7010960   6.761   2.881   3.433  1.7335  0.7377 -0.0869
   46MOL    H7110961   6.878   2.851   3.558  0.6329  0.9651 -0.3729
   46MOL    H7210962   6.809   3.008   3.535  1.0303  0.0699 -1.0817
   46MOL    H7310963   6.894   2.830   3.874 -1.3823 -0.1609  0.6085
   46MOL    C7410964   6.612   2.724   3.593  0.8888  0.3672  0.8172
   46MOL    C7510965   6.679   2.581   3.589 -0.0145 -0.3105 -0.2649
   46MOL    C7610966   6.745   2.545   3.720  0.2806  0.3450  0.0567
   46MOL    C7710967   6.555   2.487   3.570  0.1895  0.0870  0.2455
   46MOL    O7810968   6.516   2.410   3.663  0.3644  0.0270 -0.0097
   46MOL    O7910969   6.489   2.502   3.451 -0.3131 -0.4530 -0.5027
   46MOL    H8010970   6.539   2.720   3.674  0.1874  1.5379  0.2544
   46MOL    H8110971   6.560   2.743   3.499  0.8053  1.2722  1.0433
   46MOL    H8210972   6.845   2.584   3.740  0.0022  0.6702  0.8340
   46MOL    H8310973   6.752   2.436   3.725 -0.2515  0.3929  2.9324
   46MOL    H8410974   6.679   2.570   3.804 -0.2954  0.4661 -0.4293
   46MOL    H8510975   6.428   2.430   3.451  1.2612 -1.8152 -1.2027
   46MOL    C8610976   6.781   2.570   3.469  0.4283  0.6248 -0.7988
   46MOL    C8710977   6.862   2.439   3.440 -0.6072  0.1791  0.3316
   46MOL    C8810978   6.980   2.434   3.540 -0.3354 -0.3272  0.4227
   46MOL    C8910979   6.779   2.312   3.447  0.4857 -0.0372  0.5863
   46MOL    O9010980   6.791   2.227   3.539  0.4662  0.5411 -0.1491
   46MOL    O9110981   6.675   2.303   3.361  0.4179  0.5337  0.3757
   46MOL    H9210982   6.734   2.593   3.374 -2.0178 -0.8674  0.0019
   46MOL    H9310983   6.859   2.643   3.489  1.0306 -0.7522  2.2585
   46MOL    H9410984   7.028   2.342   3.507 -3.3958 -1.6449 -0.5373
   46MOL    H9510985   6.958   2.428   3.646  0.5165  2.3286  0.7929
   46MOL    H9610986   7.051   2.515   3.523  1.2729 -1.5321  1.2069
   46MOL    H9710987   6.638   2.220   3.388 -0.9154  1.0407  0.1572
   46MOL    C9810988   6.914   2.450   3.290  0.6973  0.0976  0.2456
   46MOL    C9910989   7.001   2.352   3.199 -0.2343 -0.2019  0.5566
   46MOL   C10010990   6.936   2.363   3.058 -0.1435 -0.9846 -0.1792
   46MOL   C10110991   7.143   2.414   3.196 -0.6486 -0.4054 -0.2412
   46MOL   O10210992   7.214   2.426   3.097  0.0511  0.4819 -0.3518
   46MOL   O10310993   7.196   2.434   3.322  0.4759  0.1057 -0.0378
   46MOL   H10410994   6.825   2.471   3.230 -0.6610 -0.4926  2.0150
   46MOL   H10510995   6.959   2.549   3.293  0.6318  0.1180  0.5745
   46MOL   H10610996   7.005   2.362   2.974 -0.5472 -0.4045 -0.5160
   46MOL   H10710997   6.892   2.459   3.034 -0.2917 -1.0316 -0.0957
   46MOL   H10810998   6.864   2.286   3.032 -1.4965 -0.7461  2.6176
   46MOL   H10910999   7.287   2.458   3.313  0.7071 -0.4099  0.8346
   46MOL   C11011000   7.000   2.200   3.249  0.3543 -0.8008  0.0625
   46MOL   C11111001   7.091   2.077   3.194 -0.0013  0.0614  0.4813
   46MOL   C11211002   7.034   1.952   3.267  0.2144 -0.1912  0.4793
   46MOL   C11311003   7.033   2.047   3.057 -0.5310 -0.4975  0.0943
   46MOL   O11411004   6.925   1.996   3.033  0.1948  0.1737 -0.0991
   46MOL   O11511005   7.109   2.101   2.952 -0.0294  0.0855 -0.5733
   46MOL   H11611006   7.004   2.195   3.358 -0.7774 -0.7973  0.1161
   46MOL   H11711007   6.895   2.171   3.248 -0.0142  0.5098 -0.1023
   46MOL   H11811008   6.925   1.945   3.263  0.2162  0.5399 -2.4748
   46MOL   H11911009   7.040   1.962   3.375  0.1387  3.2073  0.2142
   46MOL   H12011010   7.084   1.857   3.250  1.5847  0.8424 -1.5878
   46MOL   H12111011   7.197   2.124   2.977  0.1969 -1.0439 -0.3262
   46MOL   C12211012   7.250   2.099   3.207  0.1374 -0.7250 -0.0521
   46MOL   C12311013   7.362   1.994   3.183  0.2722  0.2247  0.0283
   46MOL   C12411014   7.389   1.914   3.313 -0.8278  0.0998 -0.5895
   46MOL   C12511015   7.320   1.893   3.072  0.2541 -0.2597  0.2437
   46MOL   O12611016   7.344   1.921   2.951  0.2699  0.1968  0.0328
   46MOL   O12711017   7.246   1.790   3.107 -0.2975  0.2068 -0.0556
   46MOL   H12811018   7.261   2.182   3.137  0.5928  0.3093  1.2305
   46MOL   H12911019   7.267   2.139   3.307  2.5895 -1.1859 -0.2481
   46MOL   H13011020   7.288   1.896   3.350 -1.5806  1.6892 -1.8495
   46MOL   H13111021   7.428   1.969   3.399 -1.9388 -0.2186  0.1309
   46MOL   H13211022   7.454   1.828   3.300  0.2696  1.1586 -2.2515
   46MOL   H13311023   7.218   1.729   3.040 -3.2613 -0.0451  1.3456
   46MOL   C13411024   7.499   2.063   3.144  0.3914  0.7559  0.0043
   46MOL   C13511025   7.596   2.134   3.242  0.3377  0.4805  0.4378
   46MOL   C13611026   7.521   2.227   3.340 -0.1087 -0.7000 -0.0981
   46MOL   C13711027   7.689   2.040   3.324  0.4621 -0.3458 -0.1984
   46MOL   O13811028   7.696   1.914   3.307 -0.0806 -0.3958 -0.3002
   46MOL   O13911029   7.754   2.107   3.418 -0.1639 -0.3563  0.3088
   46MOL   H14011030   7.554   1.981   3.099 -0.6621 -0.5973  1.1467
   46MOL   H14111031   7.468   2.133   3.066  3.3946  0.9961 -1.0164
   46MOL   H14211032   7.456   2.289   3.279  1.0801 -0.8068 -1.4912
   46MOL   H14311033   7.584   2.279   3.412 -0.6139  2.9018 -2.1412
   46MOL   H14411034   7.461   2.167   3.409 -0.7404 -0.4137 -0.3949
   46MOL   H14511035   7.751   2.201   3.408 -0.0195 -0.4364 -0.5341
   46MOL   C14611036   7.688   2.236   3.160  0.3640  0.0750  0.5509
   46MOL   C14711037   0.050   2.202   3.065 -0.3428  0.2551 -0.3970
   46MOL   C14811038   0.179   2.150   3.136  0.6923 -0.3326 -0.1564
   46MOL   C14911039   7.759   2.089   2.968  0.3485  0.5004 -0.0212
   46MOL   O15011040   7.667   2.109   2.892  0.3258 -0.0578  0.6697
   46MOL   O15111041   0.048   1.963   2.982 -0.3569  0.1689 -0.2610
   46MOL   H15211042   7.625   2.315   3.121 -0.8720 -1.0732  0.1746
   46MOL   H15311043   7.738   2.297   3.235 -0.7622  0.9835  0.5658
   46MOL   H15411044   0.178   2.057   3.192 -0.9360 -0.0561  0.3097
   46MOL   H15511045   0.217   2.223   3.207  0.8305 -0.9686  0.4237
   46MOL   H15611046   0.264   2.147   3.068  0.7128  0.9852 -0.1958
   46MOL   H15711047   7.763   1.907   2.926  0.0293  1.0896 -1.5775
   46MOL   C15811048   0.084   2.330   2.974  0.1327 -0.1497 -0.7857
   46MOL   C15911049   0.114   2.477   3.021 -0.7280 -0.3270  1.1505
   46MOL   C16011050   0.001   2.540   3.104  0.1250  0.1326 -0.2807
   46MOL   C16111051   0.239   2.466   3.107 -0.3969  0.3319  0.1572
   46MOL   O16211052   0.246   2.510   3.224 -0.0692  0.0721  0.0765
   46MOL   O16311053   0.340   2.404   3.046  0.0912  0.0808 -0.4983
   46MOL   H16411054   0.162   2.308   2.902  2.1181 -0.7868  1.4944
   46MOL   H16511055   7.766   2.336   2.906 -0.7361 -0.9018  0.2152
   46MOL   H16611056   7.747   2.498   3.203  3.3498 -0.2988  0.2957
   46MOL   H16711057   7.677   2.528   3.045  0.4426 -0.3917 -0.6676
   46MOL   H16811058   0.023   2.646   3.117  1.5436 -0.0322 -1.2488
   46MOL   H16911059   0.414   2.395   3.104  2.0313  2.3068 -2.5415
   46MOL   C17011060   0.143   2.557   2.889 -0.2344  0.0798 -0.1396
   46MOL   C17111061   0.151   2.713   2.876 -0.2492 -0.0587  0.3298
   46MOL   C17211062   0.237   2.775   2.995  0.1501 -0.4223  0.1240
   46MOL   C17311063   0.233   2.738   2.756 -0.4118  0.4058 -0.1906
   46MOL   O17411064   0.324   2.823   2.749  0.0972  0.0359  0.5776
   46MOL   O17511065   0.184   2.674   2.643  0.2894  0.2000  0.0442
   46MOL   H17611066   0.233   2.514   2.846  0.5378  1.6529 -0.1477
   46MOL   H17711067   0.071   2.524   2.815 -1.2130  1.8311  0.0112
   46MOL   H17811068   0.336   2.731   2.992 -0.2695 -1.3251 -3.0354
   46MOL   H17911069   0.197   2.749   3.093  0.1040 -1.2146 -0.0981
   46MOL   H18011070   0.250   2.883   2.986 -0.0552 -0.5212 -1.6766
   46MOL   H18111071   0.229   2.694   2.562 -0.5805  1.9364 -0.0383
   46MOL   C18211072   7.764   2.763   2.851  0.1863  0.8848 -0.6408
   46MOL   C18311073   7.716   2.911   2.851 -0.2411 -0.0893  0.2530
   46MOL   C18411074   7.758   2.981   2.979  0.4395 -0.0504  0.2513
   46MOL   C18511075   0.021   2.988   2.734 -0.5060  0.2728  0.1209
   46MOL   O18611076   0.072   3.101   2.747  0.0190  0.0053 -0.3425
   46MOL   O18711077   7.766   2.916   2.617 -0.1260  0.0905  1.0474
   46MOL   H18811078   7.730   2.719   2.757  0.4728 -1.8430  0.4919
   46MOL   H18911079   7.698   2.710   2.920 -1.2473  1.1831 -1.7384
   46MOL   H19011080   7.699   3.073   2.990 -0.0042 -0.1464 -1.2646
   46MOL   H19111081   0.095   3.012   2.977 -0.0201  1.8555  2.3872
   46MOL   H19211082   7.730   2.921   3.066 -1.2472  1.0923  0.5260
   46MOL   H19311083   0.032   2.970   2.546 -1.7354  0.5472  0.6292
   46MOL   C19411084   7.565   2.939   2.829 -0.2393  0.6634  0.0782
   46MOL   C19511085   7.451   2.825   2.854  0.2168  1.0694 -0.2437
   46MOL   C19611086   7.470   2.719   2.733 -0.1839 -0.3091  0.1184
   46MOL   C19711087   7.465   2.737   2.981  0.0716 -0.2353 -0.8503
   46MOL   O19811088   7.528   2.776   3.080  0.2024 -0.1395  0.1604
   46MOL   O19911089   7.386   2.632   2.986 -0.2075  0.0360 -0.2984
   46MOL   H20011090   7.537   3.025   2.889  0.9737  0.0527  1.5564
   46MOL   H20111091   7.538   2.984   2.733  0.4522  1.7607  0.3916
   46MOL   H20211092   7.541   2.751   2.656 -1.4630 -2.0336 -1.8522
   46MOL   H20311093   7.380   2.712   2.673 -1.1307 -2.3198  1.7304
   46MOL   H20411094   7.506   2.621   2.763  0.0553 -0.2962 -0.1239
   46MOL   H20511095   7.325   2.631   2.914 -0.0266 -1.4693 -0.4480
   46MOL   C20611096   7.308   2.884   2.839 -0.3367 -0.1112  0.2290
   46MOL   C20711097   7.255   3.006   2.928  0.1632 -0.6525  0.1250
   46MOL   C20811098   7.327   3.020   3.065  0.7850  0.3792  0.1831
   46MOL   C20911099   7.287   3.137   2.842  0.0606  0.2556 -0.0593
   46MOL   O21011100   7.362   3.232   2.860  0.2756  0.2669 -0.5463
   46MOL   O21111101   7.216   3.128   2.728 -0.0821  0.3034  0.0259
   46MOL   H21211102   7.308   2.913   2.734  0.1650 -0.2682  0.1861
   46MOL   H21311103   7.221   2.820   2.829 -0.2913 -0.0138 -0.7879
   46MOL   H21411104   7.315   2.932   3.128  2.1781  0.3310  0.3829
   46MOL   H21511105   7.281   3.109   3.110 -0.0431  0.3692 -0.6218
   46MOL   H21611106   7.431   3.050   3.057  0.8842 -0.6234 -2.7511
   46MOL   H21711107   7.235   3.201   2.670  0.0894  0.2023 -0.0466
   46MOL   C21811108   7.102   2.992   2.955 -0.0861  0.2472 -0.2604
   46MOL   C21911109   7.031   2.894   3.056 -0.1960 -0.0179 -0.1127
   46MOL   C22011110   7.062   2.742   3.019  0.6387  0.3073  0.4284
   46MOL   C22111111   7.069   2.935   3.203  0.8240 -0.2792  0.4647
   46MOL   O22211112   7.052   3.045   3.257 -0.6261  0.3192 -0.5274
   46MOL   O22311113   7.130   2.833   3.273  0.4812 -0.1938  0.0962
   46MOL   H22411114   7.071   3.093   2.979 -4.1549 -1.3799  1.7024
   46MOL   H22511115   7.062   2.975   2.855 -1.2262 -0.1592  0.2592
   46MOL   H22611116   7.030   2.712   2.919 -0.7007  0.8570  0.6832
   46MOL   H22711117   6.992   2.681   3.077  0.5165 -0.9053 -0.9686
   46MOL   H22811118   7.164   2.708   3.035  0.5491 -0.5743 -0.8079
   46MOL   H22911119   7.142   2.871   3.358 -0.3419  2.1497 -0.7706
   46MOL   C23011120   6.872   2.900   3.042 -0.5820 -0.1095 -0.2806
   46MOL   C23111121   6.773   2.815   3.132  0.1884  0.9255  0.3154
   46MOL   C23211122   6.648   2.902   3.179 -0.4266  0.3378  0.2539
   46MOL   C23311123   6.716   2.691   3.062  0.1022 -0.3627 -0.2144
   46MOL   O23411124   6.731   2.675   2.941  0.1875 -0.0872 -0.2295
   46MOL   O23511125   6.644   2.620   3.149  0.4449 -0.0289 -0.3144
   46MOL   H23611126   6.853   3.006   3.061  1.4118  0.1286  0.5242
   46MOL   H23711127   6.853   2.887   2.936  0.8236 -1.9331 -0.3332
   46MOL   H23811128   6.582   2.836   3.235 -0.5500  0.0812 -0.1928
   46MOL   H23911129   6.599   2.954   3.097  1.3625  1.3491 -0.2108
   46MOL   H24011130   6.701   2.975   3.239 -1.7197  2.4696 -1.1419
   46MOL   H24111131   6.591   2.558   3.100  1.6601 -0.8050 -0.6578
   46MOL   H24211132   6.831   2.783   3.219 -0.2552  2.4588  1.1978
   47MOL     C111133   6.857   4.585   1.342 -0.2076 -0.1660  0.6092
   47MOL     C211134   6.949   4.590   1.222  0.4858  0.6831 -0.2397
   47MOL     C311135   7.096   4.585   1.275  0.0193  0.7106 -0.1711
   47MOL     C411136   6.926   4.470   1.127  1.0122 -0.4498  0.3407
   47MOL     O511137   6.849   4.384   1.150  0.5783 -0.2577 -0.0641
   47MOL     O611138   6.997   4.479   1.008 -0.0294  0.3062 -0.3299
   47MOL     H711139   6.869   4.684   1.387 -1.3204  0.3778 -0.2598
   47MOL     H811140   6.865   4.507   1.418 -0.2206 -1.0056 -0.2441
   47MOL     H911141   7.124   4.667   1.341  1.0478  0.4607 -0.2914
   47MOL    H1011142   7.167   4.555   1.198  0.7708 -0.2412  0.8813
   47MOL    H1111143   7.105   4.502   1.344  0.7411  0.9824  0.0630
   47MOL    H1211144   6.996   4.399   0.956 -1.4374 -0.2099  0.4772
   47MOL    H1311145   6.754   4.576   1.309 -0.3165 -2.7121  1.5207
   47MOL    C1411146   6.933   4.726   1.147  0.6977 -0.0709  0.4507
   47MOL    C1511147   6.793   4.777   1.088  0.9460  0.0468 -0.8416
   47MOL    C1611148   6.832   4.868   0.971  0.2961  0.4780 -0.4169
   47MOL    C1711149   6.693   4.661   1.040  0.5610  0.6385  0.0922
   47MOL    O1811150   6.614   4.598   1.114 -0.4748 -0.3341  0.0256
   47MOL    O1911151   6.698   4.635   0.908 -0.2256  0.1301 -0.0874
   47MOL    H2011152   6.958   4.809   1.213  0.7078  0.9698 -0.8332
   47MOL    H2111153   7.021   4.735   1.083 -1.8897 -0.6484 -3.3068
   47MOL    H2211154   6.883   4.953   1.016  1.3761 -0.6846  0.5896
   47MOL    H2311155   6.744   4.888   0.909 -0.2882  1.6512  0.7799
   47MOL    H2411156   6.894   4.806   0.905 -0.1989 -2.2483  1.5862
   47MOL    H2511157   6.623   4.595   0.866  1.3816 -2.7094 -0.4122
   47MOL    C2611158   6.729   4.867   1.197 -0.6486 -0.4614  0.2552
   47MOL    C2711159   6.617   4.981   1.171  0.5456  0.1644  1.6131
   47MOL    C2811160   6.658   5.092   1.070 -0.1659 -0.0049 -0.2185
   47MOL    C2911161   6.491   4.907   1.105  0.5059  0.6810 -0.1740
   47MOL    O3011162   6.433   4.940   1.004  0.6004 -0.2512 -0.0141
   47MOL    O3111163   6.446   4.813   1.194 -0.1781  0.1960 -0.1180
   47MOL    H3211164   6.688   4.808   1.279 -0.7978 -0.4306  0.2035
   47MOL    H3311165   6.804   4.922   1.254 -0.3176 -0.2361 -0.3908
   47MOL    H3411166   6.653   5.064   0.964  0.4604  0.0648 -0.2671
   47MOL    H3511167   6.757   5.133   1.087 -1.5966  3.0683  1.0376
   47MOL    H3611168   6.587   5.175   1.073 -1.0221 -0.6391 -1.9528
   47MOL    H3711169   6.365   4.782   1.155 -0.2886  0.2229  0.0889
   47MOL    C3811170   6.581   5.047   1.312  0.1290  0.5738  0.3041
   47MOL    C3911171   6.486   5.178   1.339 -0.3954  0.5061  0.0046
   47MOL    C4011172   6.446   5.173   1.492  0.2378 -0.4447 -0.5528
   47MOL    C4111173   6.568   5.311   1.318  0.2754 -0.9115  0.4254
   47MOL    O4211174   6.520   5.419   1.284 -0.5172 -0.0898  0.4256
   47MOL    O4311175   6.697   5.299   1.355  0.3720 -0.5300 -0.5763
   47MOL    H4411176   6.551   4.964   1.376 -0.8139  1.1669  0.6362
   47MOL    H4511177   6.683   5.065   1.348  0.4496  0.2534 -0.4328
   47MOL    H4611178   6.398   5.265   1.525  1.2421  0.2222 -0.9270
   47MOL    H4711179   6.525   5.144   1.562  0.1550 -0.7486 -0.5856
   47MOL    H4811180   6.369   5.104   1.524  1.2823 -0.5915  1.7226
   47MOL    H4911181   6.723   5.390   1.354  1.1402 -0.7435 -1.0209
   47MOL    C5011182   6.368   5.188   1.239 -0.0233  0.0119  0.2413
   47MOL    C5111183   6.220   5.142   1.271 -0.0912  0.1038  0.0428
   47MOL    C5211184   6.230   4.999   1.328  0.4178  0.3034  0.0458
   47MOL    C5311185   6.150   5.232   1.380 -0.2221 -0.1390 -0.3548
   47MOL    O5411186   6.074   5.183   1.462  0.1629  0.3560  0.2689
   47MOL    O5511187   6.180   5.366   1.370 -0.1699 -0.7501  0.0022
   47MOL    H5611188   6.348   5.287   1.200  1.1821 -0.7167 -2.3119
   47MOL    H5711189   6.396   5.152   1.140 -2.8279  1.4052 -1.1037
   47MOL    H5811190   6.168   4.988   1.417 -0.1678 -1.1297 -0.5249
   47MOL    H5911191   6.331   4.971   1.359 -1.2683 -4.4101  1.7257
   47MOL    H6011192   6.192   4.921   1.262  1.4620  0.1984 -0.4479
   47MOL    H6111193   6.232   5.382   1.293 -0.1040  1.2538  0.4502
   47MOL    C6211194   6.139   5.144   1.129 -0.1426  0.5363  0.0095
   47MOL    C6311195   5.980   5.115   1.118  0.4851  0.9166 -0.0090
   47MOL    C6411196   5.928   5.001   1.210 -0.0849 -0.2251  0.5681
   47MOL    C6511197   5.898   5.239   1.161 -0.2305  0.3894 -0.4328
   47MOL    O6611198   5.953   5.346   1.185 -0.1159  0.5119  0.1454
   47MOL    O6711199   5.764   5.215   1.171 -0.3212 -0.1617  0.3862
   47MOL    H6811200   6.163   5.237   1.078  0.2435  1.5814  2.0690
   47MOL    H6911201   6.191   5.072   1.065 -0.9080  0.6190 -0.7094
   47MOL    H7011202   5.821   4.979   1.209 -0.4569  1.4028  2.2992
   47MOL    H7111203   5.947   5.030   1.313  0.1092 -2.7615  1.2635
   47MOL    H7211204   5.977   4.905   1.197 -0.2218 -0.4706  1.8821
   47MOL    H7311205   5.716   5.290   1.203  2.3951  1.1389  1.6146
   47MOL    C7411206   5.934   5.071   0.965 -0.2492  0.3111 -0.0146
   47MOL    C7511207   5.981   5.149   0.833  0.0610 -0.3920 -0.5445
   47MOL    C7611208   5.982   5.305   0.859  0.0741  0.2875  0.3167
   47MOL    C7711209   6.126   5.106   0.799 -0.1354 -0.6011 -0.1339
   47MOL    O7811210   6.213   5.174   0.752 -0.5171  0.4860  0.2065
   47MOL    O7911211   6.150   4.976   0.841 -0.4308  0.0473 -0.1170
   47MOL    H8011212   5.949   4.965   0.943  1.4272  0.1546  1.8008
   47MOL    H8111213   5.825   5.082   0.966 -0.1145  1.5942  2.6609
   47MOL    H8211214   5.965   5.353   0.763  0.0745 -1.2786 -0.4793
   47MOL    H8311215   6.079   5.340   0.897  0.3550  0.1290 -0.2385
   47MOL    H8411216   5.899   5.340   0.921 -0.4060 -2.0365  1.0225
   47MOL    H8511217   6.243   4.961   0.832 -0.2351  0.6414  0.7726
   47MOL    C8611218   5.877   5.127   0.712  0.9055 -0.4913 -1.1465
   47MOL    C8711219   5.836   4.983   0.656 -0.1012  0.0100  0.5479
   47MOL    C8811220   5.962   4.907   0.604 -0.3786 -0.5879 -0.0767
   47MOL    C8911221   5.763   4.896   0.766  1.0544 -0.2512 -0.1172
   47MOL    O9011222   5.799   4.786   0.800  0.6945 -0.4868 -0.2727
   47MOL    O9111223   5.648   4.957   0.802 -0.2980  0.2215 -0.6674
   47MOL    H9211224   5.797   5.198   0.731  1.6530  0.3798 -1.2071
   47MOL    H9311225   5.921   5.174   0.623 -0.5517  0.9918 -1.1171
   47MOL    H9411226   5.936   4.830   0.531  0.4899  1.0178 -2.1559
   47MOL    H9511227   6.030   4.859   0.674  2.6428 -0.1419 -2.5887
   47MOL    H9611228   6.012   4.979   0.539  2.1342 -0.2561  2.1823
   47MOL    H9711229   5.604   4.895   0.859  0.6914  0.6691  0.6127
   47MOL    C9811230   5.734   5.011   0.540 -1.0526 -0.4029 -0.2257
   47MOL    C9911231   5.689   4.916   0.422 -0.5394  0.0610  0.0889
   47MOL   C10011232   5.574   4.989   0.364 -0.0733 -0.3242  0.4486
   47MOL   C10111233   5.795   4.906   0.308 -0.0916 -0.1673  0.3308
   47MOL   O10211234   5.862   4.807   0.275 -0.1875  0.1891  0.4731
   47MOL   O10311235   5.821   5.026   0.250 -0.3792  0.4220  0.1394
   47MOL   H10411236   5.639   5.057   0.570 -2.2536 -0.8505 -3.1498
   47MOL   H10511237   5.794   5.084   0.486 -0.5128 -0.6207  0.0842
   47MOL   H10611238   5.490   5.002   0.432 -1.5483 -1.1409 -1.1882
   47MOL   H10711239   5.538   4.959   0.265  0.2363 -1.2256  0.6061
   47MOL   H10811240   5.606   5.093   0.355 -1.1648  0.1996  2.4501
   47MOL   H10911241   5.874   5.030   0.172 -0.0448  0.2710  0.3588
   47MOL   C11011242   5.653   4.766   0.455  0.6279  0.3363 -0.2507
   47MOL   C11111243   5.507   4.713   0.498 -1.4445 -0.4470  0.5199
   47MOL   C11211244   5.462   4.789   0.623 -0.2818  0.4620 -0.9577
   47MOL   C11311245   5.417   4.729   0.369 -0.0667  0.3098 -0.5534
   47MOL   O11411246   5.458   4.719   0.259  0.0431  0.1474  0.5248
   47MOL   O11511247   5.291   4.741   0.403  0.6335 -0.0422  0.0922
   47MOL   H11611248   5.685   4.709   0.369 -0.2230  0.5931 -0.7472
   47MOL   H11711249   5.720   4.722   0.528  0.0791  0.1761  0.1617
   47MOL   H11811250   5.476   4.897   0.632  1.1538  0.1701  0.6784
   47MOL   H11911251   5.509   4.756   0.716  0.0396  0.5850 -1.0737
   47MOL   H12011252   5.355   4.782   0.642 -0.1473 -0.4069 -0.5244
   47MOL   H12111253   5.229   4.754   0.332  0.0780  3.1328  1.0572
   47MOL   C12211254   5.536   4.563   0.533  0.3507 -0.6143 -0.0716
   47MOL   C12311255   5.430   4.451   0.570 -0.2551 -0.9721  0.2358
   47MOL   C12411256   5.338   4.508   0.682 -0.1761  0.0283 -0.2999
   47MOL   C12511257   5.354   4.416   0.438 -0.1400  0.0492 -0.0541
   47MOL   O12611258   5.233   4.421   0.431 -0.2090 -0.4290 -0.0473
   47MOL   O12711259   5.429   4.361   0.342 -0.3228  0.3383 -0.1274
   47MOL   H12811260   5.590   4.521   0.448 -0.3107 -0.6016 -0.5084
   47MOL   H12911261   5.607   4.573   0.615 -1.2943  2.2442  1.1013
   47MOL   H13011262   5.264   4.439   0.722 -0.6095 -0.2653 -1.5903
   47MOL   H13111263   5.267   4.584   0.650  2.0409  1.7669 -1.2365
   47MOL   H13211264   5.399   4.534   0.769  0.5817  2.7350 -1.5900
   47MOL   H13311265   5.373   4.343   0.268 -0.9288  0.2590  0.3526
   47MOL   C13411266   5.506   4.323   0.631  0.7997  0.8230 -0.2452
   47MOL   C13511267   5.448   4.175   0.641  0.3749  0.4686 -0.2346
   47MOL   C13611268   5.300   4.178   0.686 -0.1442  0.7350  0.2783
   47MOL   C13711269   5.452   4.109   0.500 -0.1494 -0.7052 -0.6365
   47MOL   O13811270   5.360   4.050   0.445  0.0224 -0.1154 -0.2912
   47MOL   O13911271   5.577   4.097   0.460  0.2951 -0.5408  0.4387
   47MOL   H14011272   5.601   4.325   0.577  0.4492 -2.4167 -1.0796
   47MOL   H14111273   5.552   4.343   0.727 -0.2938  1.3554  0.1788
   47MOL   H14211274   5.261   4.076   0.685 -0.0780  0.7020 -1.4301
   47MOL   H14311275   5.236   4.233   0.617  0.7116  1.8885  0.3941
   47MOL   H14411276   5.284   4.215   0.787  1.4560 -0.4807  1.0001
   47MOL   H14511277   5.596   4.027   0.399 -0.2954  0.9938 -1.5530
   47MOL   C14611278   5.536   4.085   0.740  0.0032  0.6087 -0.0015
   47MOL   C14711279   5.505   4.037   0.887 -0.5887 -0.6034  0.1646
   47MOL   C14811280   5.389   3.940   0.886  0.8630 -0.1211  0.1192
   47MOL   C14911281   5.629   3.964   0.937 -0.2905  0.1939 -0.0585
   47MOL   O15011282   5.623   3.847   0.975 -0.5571  1.0744  0.0781
   47MOL   O15111283   5.741   4.037   0.942 -0.2878  0.5643  0.0973
   47MOL   H15211284   5.552   3.991   0.687 -0.1615  1.5344 -1.7380
   47MOL   H15311285   5.633   4.135   0.745 -1.0377  2.8048 -1.3080
   47MOL   H15411286   5.411   3.857   0.819  0.2079 -1.1297  1.1372
   47MOL   H15511287   5.291   3.983   0.863  0.8515 -1.0155 -1.5830
   47MOL   H15611288   5.368   3.884   0.977 -0.2122 -0.6730 -0.4542
   47MOL   H15711289   5.818   3.996   0.978 -1.1884 -0.3214  1.0185
   47MOL   C15811290   5.496   4.167   0.981 -0.0084 -0.5855  0.7954
   47MOL   C15911291   5.418   4.173   1.122  0.5436  0.8404  0.5365
   47MOL   C16011292   5.265   4.145   1.122  0.5581 -0.1487 -0.1882
   47MOL   C16111293   5.490   4.071   1.221 -0.1090 -0.1266  0.6764
   47MOL   O16211294   5.615   4.058   1.231  0.2681 -0.2993  0.0788
   47MOL   O16311295   5.400   4.000   1.293  0.7893  0.4301 -0.1778
   47MOL   H16411296   5.590   4.222   0.983 -0.1857  0.0116 -3.5096
   47MOL   H16511297   5.446   4.240   0.918  0.2164 -0.5524  0.6564
   47MOL   H16611298   5.194   4.216   1.078 -1.4242 -0.2126  2.7884
   47MOL   H16711299   5.228   4.143   1.224 -1.9296 -1.3345 -1.0647
   47MOL   H16811300   5.247   4.046   1.081  0.5440 -0.0018 -0.5497
   47MOL   H16911301   5.454   3.971   1.364  0.4733  0.5094  0.0984
   47MOL   C17011302   5.459   4.309   1.193  0.5316  0.4325 -0.2958
   47MOL   C17111303   5.397   4.450   1.174 -0.1353 -0.7920 -0.2872
   47MOL   C17211304   5.382   4.485   1.017  0.4428 -0.3766 -0.6461
   47MOL   C17311305   5.255   4.462   1.240  0.0538  1.1605 -0.0560
   47MOL   O17411306   5.212   4.384   1.329  0.7132  0.3102  0.1992
   47MOL   O17511307   5.176   4.560   1.196 -0.2359 -0.1365 -0.2339
   47MOL   H17611308   5.454   4.306   1.302 -0.4154  1.6608 -0.2976
   47MOL   H17711309   5.566   4.316   1.174  0.9342  0.1944  1.7207
   47MOL   H17811310   5.304   4.425   0.972 -0.5113  0.4733 -0.1397
   47MOL   H17911311   5.472   4.460   0.961  2.0452  1.4420  1.0222
   47MOL   H18011312   5.353   4.588   0.992 -3.2071 -1.6971 -2.1428
   47MOL   H18111313   5.103   4.573   1.255 -0.2896  1.6582 -0.6481
   47MOL   C18211314   5.500   4.551   1.251  0.0963  0.3032  0.9356
   47MOL   C18311315   5.520   4.706   1.233 -0.2213 -0.1617  0.6499
   47MOL   C18411316   5.614   4.754   1.347  0.5235 -0.5400  0.2806
   47MOL   C18511317   5.594   4.721   1.100  0.2271 -0.1534 -0.0057
   47MOL   O18611318   5.541   4.745   0.993  0.0397 -0.6578  0.1872
   47MOL   O18711319   5.729   4.698   1.107  0.4081 -0.0388  0.2702
   47MOL   H18811320   5.489   4.531   1.358 -0.5032 -1.5414  0.5401
   47MOL   H18911321   5.594   4.498   1.235  0.4489  0.6980  1.6441
   47MOL   H19011322   5.635   4.861   1.344 -2.1749  0.0582  1.5247
   47MOL   H19111323   5.716   4.717   1.337  0.6428  0.0645 -0.8811
   47MOL   H19211324   5.578   4.727   1.446 -1.7032  1.3552  0.0298
   47MOL   H19311325   5.779   4.718   1.029 -0.3132  0.7223 -0.0145
   47MOL   C19411326   5.384   4.785   1.236 -0.5796  0.4269  0.2057
   47MOL   C19511327   5.368   4.936   1.263  0.3327  0.1379  0.0899
   47MOL   C19611328   5.459   5.031   1.174 -0.2792 -0.4469 -0.3764
   47MOL   C19711329   5.215   4.954   1.215  0.0151 -0.0820  0.0694
   47MOL   O19811330   5.119   4.946   1.288 -0.2907  0.4715 -0.0549
   47MOL   O19911331   5.200   4.959   1.082  0.3907 -0.3306 -0.2614
   47MOL   H20011332   5.330   4.759   1.145  0.0038  1.1544 -0.3588
   47MOL   H20111333   5.322   4.735   1.310 -1.5920  0.2302 -0.7469
   47MOL   H20211334   5.561   5.023   1.211  0.7005  0.6709 -2.7486
   47MOL   H20311335   5.442   5.138   1.187  1.0956 -0.3394  0.7252
   47MOL   H20411336   5.472   4.992   1.073  1.7274 -0.2869 -0.1942
   47MOL   H20511337   5.108   4.949   1.062  0.2255 -1.7303  1.0799
   47MOL   C20611338   5.377   4.963   1.416 -0.3358  0.1824  0.1315
   47MOL   C20711339   5.373   5.104   1.490  0.0095 -0.4500  0.1258
   47MOL   C20811340   5.504   5.177   1.465  0.1488 -0.0789  0.6847
   47MOL   C20911341   5.259   5.189   1.435  0.1281 -0.0115  0.5340
   47MOL   O21011342   5.263   5.278   1.355 -0.3093  0.0805 -0.1218
   47MOL   O21111343   5.145   5.130   1.481  0.0243  0.3382 -0.3585
   47MOL   H21211344   5.300   4.895   1.453  0.4448 -1.8887 -1.9257
   47MOL   H21311345   5.461   4.907   1.458  0.2867  1.4468  0.6067
   47MOL   H21411346   5.526   5.189   1.359  0.2610 -0.9142  0.6099
   47MOL   H21511347   5.592   5.129   1.509  1.1374 -0.9493 -2.1151
   47MOL   H21611348   5.508   5.277   1.507  0.6466 -0.1734  0.8692
   47MOL   H21711349   5.162   5.071   1.554  1.7249  2.4209  0.9930
   47MOL   C21811350   5.364   5.062   1.649  0.1333  0.3234  1.4065
   47MOL   C21911351   5.409   5.148   1.779  0.2974  0.1732 -0.4107
   47MOL   C22011352   5.564   5.167   1.781 -0.3529  0.4501  0.2706
   47MOL   C22111353   5.352   5.296   1.774  0.1458  0.6229  0.4691
   47MOL   O22211354   5.292   5.346   1.675 -0.1808 -0.0264 -0.3952
   47MOL   O22311355   5.371   5.369   1.890 -0.1469 -0.1419  0.1573
   47MOL   H22411356   5.267   5.017   1.670 -0.0537 -0.7933 -1.7171
   47MOL   H22511357   5.435   4.982   1.672  2.2386  0.9036 -2.5997
   47MOL   H22611358   5.601   5.210   1.874  1.3037 -2.9207  1.2684
   47MOL   H22711359   5.596   5.225   1.695 -0.6761 -1.7634 -1.3985
   47MOL   H22811360   5.610   5.068   1.785 -1.4193 -0.1004 -0.9034
   47MOL   H22911361   5.334   5.455   1.881 -1.4337 -0.9305 -2.5904
   47MOL   C23011362   5.363   5.087   1.911 -0.2191  0.6662  0.1085
   47MOL   C23111363   5.211   5.052   1.950  0.3928  0.8375 -0.3713
   47MOL   C23211364   5.192   4.943   2.057 -0.3967  0.4293 -0.1026
   47MOL   C23311365   5.125   5.176   1.984 -0.4212  0.6752 -0.3577
   47MOL   O23411366   5.057   5.232   1.896 -0.0182  0.0161  0.0737
   47MOL   O23511367   5.139   5.214   2.108  0.4833 -0.3442 -0.2297
   47MOL   H23611368   5.411   4.989   1.901 -0.2424  0.8041 -1.4533
   47MOL   H23711369   5.423   5.137   1.987  1.6765  0.1889 -1.0221
   47MOL   H23811370   5.233   4.961   2.156 -2.6306  2.7432  0.4469
   47MOL   H23911371   5.237   4.849   2.025  0.4617  0.2953  1.4615
   47MOL   H24011372   5.088   4.912   2.070 -0.1344 -1.2863 -1.8487
   47MOL   H24111373   5.092   5.293   2.128 -0.4930 -1.0422  0.2574
   47MOL   H24211374   5.174   5.014   1.855  0.7311  0.6422 -0.4252
   48MOL     C111375   4.846   3.304   0.786 -0.4451 -0.0174 -0.8570
   48MOL     C211376   4.833   3.158   0.730  0.5377 -0.5711 -0.2325
   48MOL     C311377   4.900   3.165   0.588  0.2220 -0.2064  0.0014
   48MOL     C411378   4.905   3.056   0.823 -0.0515 -0.2634  0.1005
   48MOL     O511379   4.968   2.956   0.782 -0.2620 -0.0279 -0.1689
   48MOL     O611380   4.886   3.086   0.953 -0.2717 -0.1040 -0.5095
   48MOL     H711381   4.811   3.384   0.720  0.9258  0.9628 -0.4124
   48MOL     H811382   4.952   3.315   0.807  0.0045 -1.3383 -2.2700
   48MOL     H911383   4.885   3.072   0.532 -2.1293  0.6230 -0.8142
   48MOL    H1011384   5.008   3.180   0.587  0.2430 -0.3320 -2.7622
   48MOL    H1111385   4.866   3.259   0.545 -1.5166  0.3803  2.5354
   48MOL    H1211386   4.950   3.041   1.006  3.2296  2.1430 -2.6262
   48MOL    H1311387   4.785   3.310   0.876 -0.1719  0.8800 -0.7239
   48MOL    C1411388   4.675   3.109   0.722  0.0809  0.1485  0.8304
   48MOL    C1511389   4.574   3.171   0.608 -0.1882  0.5546 -0.7322
   48MOL    C1611390   4.424   3.148   0.652  0.6356 -0.4577 -0.2439
   48MOL    C1711391   4.578   3.319   0.609  0.4819 -0.1400 -0.1265
   48MOL    O1811392   4.595   3.384   0.506  0.4490 -0.5497  0.1170
   48MOL    O1911393   4.562   3.373   0.733 -0.1650 -0.1139 -0.3970
   48MOL    H2011394   4.675   3.000   0.719  0.4657  0.1474  0.8273
   48MOL    H2111395   4.631   3.129   0.820  0.6138 -1.4019  1.4003
   48MOL    H2211396   4.402   3.041   0.650 -2.3574  0.1235  0.3875
   48MOL    H2311397   4.360   3.201   0.582  0.4596 -1.9886 -1.2640
   48MOL    H2411398   4.396   3.184   0.751  0.7890  0.7663 -0.6328
   48MOL    H2511399   4.575   3.467   0.734  0.2869 -0.1531 -1.4518
   48MOL    C2611400   4.589   3.115   0.459 -0.3046  0.1490 -0.1008
   48MOL    C2711401   4.552   2.969   0.416  0.2055 -0.4593 -0.2727
   48MOL    C2811402   4.633   2.946   0.291 -0.3113 -0.0494  0.6864
   48MOL    C2911403   4.590   2.860   0.525 -0.2343  0.7323 -0.5233
   48MOL    O3011404   4.510   2.794   0.588  0.3528  0.3158  0.2338
   48MOL    O3111405   4.723   2.846   0.543 -0.4874 -0.4231 -0.1099
   48MOL    H3211406   4.535   3.177   0.388 -0.3582 -1.1962 -1.2454
   48MOL    H3311407   4.694   3.135   0.435  0.3580 -2.1909  0.7339
   48MOL    H3411408   4.738   2.969   0.310 -0.2763  0.0168  0.4221
   48MOL    H3511409   4.605   3.012   0.209 -0.0627 -0.0383  0.6115
   48MOL    H3611410   4.638   2.843   0.254  2.4504  0.8790 -1.7117
   48MOL    H3711411   4.746   2.777   0.602 -0.5768 -1.1315 -0.9042
   48MOL    C3811412   4.402   2.969   0.377  0.0061  0.1552  0.3986
   48MOL    C3911413   4.311   2.856   0.325  0.2879  0.5030  0.6169
   48MOL    C4011414   4.382   2.777   0.204  0.3351 -0.0834 -0.1889
   48MOL    C4111415   4.258   2.747   0.427 -0.6564  0.6819 -0.1178
   48MOL    O4211416   4.244   2.627   0.403  0.4995  0.2827 -0.1232
   48MOL    O4311417   4.237   2.788   0.553  0.2031 -0.3442 -0.2050
   48MOL    H4411418   4.335   3.003   0.456  0.3832  0.4273  0.6080
   48MOL    H4511419   4.400   3.045   0.299  2.0717  0.5371  0.6806
   48MOL    H4611420   4.314   2.708   0.154  0.3796  0.9337 -1.6942
   48MOL    H4711421   4.468   2.721   0.239 -0.4792 -1.9970 -1.1671
   48MOL    H4811422   4.415   2.845   0.125  0.9306 -1.8176 -1.4497
   48MOL    H4911423   4.228   2.713   0.611 -1.9529  0.6020  0.7547
   48MOL    C5011424   4.182   2.915   0.258 -0.1971 -0.5452  0.3642
   48MOL    C5111425   4.076   3.013   0.332  0.3185  0.4986  0.0777
   48MOL    C5211426   4.136   3.146   0.382 -0.1201  0.2323  0.5031
   48MOL    C5311427   3.988   3.047   0.200 -0.6819  0.2902  0.0432
   48MOL    O5411428   3.999   3.151   0.133  0.2512  0.6748  0.4110
   48MOL    O5511429   3.925   2.932   0.161  0.0170  0.8261 -0.0858
   48MOL    H5611430   4.223   2.973   0.175 -2.2711 -0.3710 -0.5703
   48MOL    H5711431   4.128   2.837   0.205  2.3061 -2.0784  0.0329
   48MOL    H5811432   4.221   3.180   0.323  0.5596 -1.8474  0.2451
   48MOL    H5911433   4.166   3.143   0.487 -0.3354 -1.5461  0.5349
   48MOL    H6011434   4.066   3.229   0.370  0.2005  0.1321 -2.4057
   48MOL    H6111435   3.887   2.953   0.078  0.9110 -0.2922 -0.7851
   48MOL    C6211436   3.994   2.939   0.446 -0.0488 -0.1513 -0.0335
   48MOL    C6311437   3.857   2.986   0.506  0.3839  0.1175 -0.2372
   48MOL    C6411438   3.860   3.138   0.529 -0.6074 -0.3419  0.6687
   48MOL    C6511439   3.751   2.956   0.401 -0.3464  0.2081  0.2655
   48MOL    O6611440   3.710   2.848   0.373 -0.1361 -0.0363  0.0790
   48MOL    O6711441   3.714   3.071   0.341 -0.0356  0.0104 -0.5971
   48MOL    H6811442   3.993   2.836   0.410  2.7922  0.1753 -1.1171
   48MOL    H6911443   4.055   2.951   0.535  0.3276  0.3265 -0.3545
   48MOL    H7011444   3.872   3.196   0.438  1.4417  0.1340  1.2277
   48MOL    H7111445   3.930   3.171   0.605  1.1425  3.6892 -2.5380
   48MOL    H7211446   3.768   3.172   0.577 -0.2460 -0.0991  1.1906
   48MOL    H7311447   3.632   3.076   0.294  0.0163  0.6050 -0.6287
   48MOL    C7411448   3.843   2.925   0.646  0.0524  0.2983 -0.0481
   48MOL    C7511449   3.704   2.890   0.716 -0.1268  0.1303 -0.3388
   48MOL    C7611450   3.613   3.016   0.702  0.2596 -0.0777 -0.2995
   48MOL    C7711451   3.641   2.763   0.645  0.6397  0.3515 -0.1010
   48MOL    O7811452   3.523   2.753   0.622  0.2310 -0.4051  0.6006
   48MOL    O7911453   3.727   2.666   0.625 -0.1175 -0.0891 -0.0534
   48MOL    H8011454   3.903   2.835   0.660 -1.1337 -0.5680 -0.5127
   48MOL    H8111455   3.904   2.993   0.706  0.7288  0.2632 -0.6963
   48MOL    H8211456   3.581   3.037   0.600 -0.1149  1.8510  0.2051
   48MOL    H8311457   3.655   3.106   0.746  2.4902 -0.9640 -0.5880
   48MOL    H8411458   3.514   2.990   0.741  0.0404 -0.5782 -1.1637
   48MOL    H8511459   3.807   2.706   0.656 -0.7676  1.9668 -0.8926
   48MOL    C8611460   3.723   2.848   0.874 -0.5264 -0.5797  0.5456
   48MOL    C8711461   3.741   2.952   0.992 -0.0834 -0.3663  0.1320
   48MOL    C8811462   3.842   3.064   0.955 -0.0987  0.2016  0.0148
   48MOL    C8911463   3.611   3.028   1.027 -0.7575  0.1199  0.4099
   48MOL    O9011464   3.501   3.008   0.976 -0.4221  0.3761  0.9920
   48MOL    O9111465   3.635   3.135   1.107  0.1501  0.4473 -0.5335
   48MOL    H9211466   3.649   2.773   0.900 -2.8528  1.3625 -0.3636
   48MOL    H9311467   3.818   2.793   0.868 -0.4233 -0.5002  1.4495
   48MOL    H9411468   3.871   3.126   1.040 -1.0545  2.1052 -1.0162
   48MOL    H9511469   3.820   3.141   0.881 -0.6032  0.6675  0.6383
   48MOL    H9611470   3.934   3.024   0.914 -0.9075 -1.0176 -0.6557
   48MOL    H9711471   3.554   3.184   1.107 -0.3072 -0.3037 -0.7623
   48MOL    C9811472   3.804   2.895   1.129 -0.4802 -0.6940 -0.4940
   48MOL    C9911473   3.765   2.758   1.197 -0.6093 -0.7282  0.1193
   48MOL   C10011474   3.821   2.781   1.337  0.2610  0.3434 -0.6338
   48MOL   C10111475   3.614   2.741   1.209  0.0760 -0.3824 -0.3803
   48MOL   O10211476   3.547   2.775   1.303  0.2597  0.0926  0.4791
   48MOL   O10311477   3.565   2.684   1.098 -0.0374 -0.3922  0.0737
   48MOL   H10411478   3.912   2.887   1.120 -0.6739 -3.1224 -1.0569
   48MOL   H10511479   3.789   2.977   1.199  1.4417 -1.2534  0.5882
   48MOL   H10611480   3.791   2.876   1.381 -0.6542  0.0148 -0.5358
   48MOL   H10711481   3.928   2.801   1.331  0.7516 -2.2741 -0.9749
   48MOL   H10811482   3.809   2.701   1.409  2.9153  0.2370 -0.2850
   48MOL   H10911483   3.471   2.674   1.103 -0.3490  1.7798 -0.9667
   48MOL   C11011484   3.834   2.639   1.125  0.3299  0.3790  0.6057
   48MOL   C11111485   3.894   2.512   1.188 -0.2684  0.0814  0.0143
   48MOL   C11211486   4.028   2.544   1.253  0.1267  0.0643  0.2118
   48MOL   C11311487   3.803   2.438   1.290  0.6187 -0.3319 -0.3750
   48MOL   O11411488   3.682   2.432   1.278 -0.0630  0.2649  0.1045
   48MOL   O11511489   3.868   2.388   1.393  0.1618 -0.2601  0.2347
   48MOL   H11611490   3.770   2.615   1.040 -0.4912 -1.3574  1.6751
   48MOL   H11711491   3.910   2.683   1.060  2.6150 -0.9052  2.3509
   48MOL   H11811492   4.087   2.454   1.270  1.6100  1.1386  0.8663
   48MOL   H11911493   3.998   2.592   1.346  0.7484  1.3842 -0.2568
   48MOL   H12011494   4.085   2.615   1.193 -1.1161  1.0338  0.1587
   48MOL   H12111495   3.815   2.362   1.467  1.6217 -0.5915  1.2012
   48MOL   C12211496   3.916   2.389   1.088  0.1891  0.0575  0.2871
   48MOL   C12311497   4.006   2.386   0.961  0.3526  0.0283  0.6807
   48MOL   C12411498   3.998   2.241   0.910  0.0418 -0.0438 -0.5277
   48MOL   C12511499   3.947   2.476   0.852 -0.6309  0.7892 -0.1725
   48MOL   O12611500   3.976   2.595   0.839  0.2403 -0.7479 -0.2793
   48MOL   O12711501   3.846   2.410   0.787 -0.2404  0.1539 -0.0456
   48MOL   H12811502   3.952   2.306   1.150 -0.3191 -0.5634 -0.2540
   48MOL   H12911503   3.819   2.354   1.055 -0.0900  1.6053 -0.5648
   48MOL   H13011504   4.031   2.225   0.807 -0.4029  0.4553 -0.7504
   48MOL   H13111505   3.895   2.204   0.908 -0.3139  0.9181 -0.0220
   48MOL   H13211506   4.052   2.168   0.970 -0.7072 -0.6150 -0.5390
   48MOL   H13311507   3.785   2.466   0.740  0.0774  0.3796 -0.1918
   48MOL   C13411508   4.162   2.419   0.988 -0.7953 -0.3771 -0.4695
   48MOL   C13511509   4.281   2.392   0.892  0.4081 -0.0768 -0.4487
   48MOL   C13611510   4.322   2.242   0.891  0.2661 -0.7324  0.3139
   48MOL   C13711511   4.254   2.444   0.746  1.3510 -0.4197 -0.1955
   48MOL   O13811512   4.292   2.550   0.703 -0.5828 -0.1707  0.7323
   48MOL   O13911513   4.183   2.350   0.670  0.1091  0.4492 -0.1512
   48MOL   H14011514   4.165   2.524   1.017 -2.2686 -0.3439 -0.3784
   48MOL   H14111515   4.182   2.369   1.083  0.7578 -0.0625 -0.6222
   48MOL   H14211516   4.281   2.177   0.814 -0.5961  0.6264 -0.3828
   48MOL   H14311517   4.285   2.191   0.980  2.9104 -1.9580  0.7798
   48MOL   H14411518   4.430   2.236   0.879  0.4570  0.0292  1.5275
   48MOL   H14511519   4.141   2.388   0.594  0.7457 -1.3049 -1.4133
   48MOL   C14611520   4.400   2.479   0.942  0.2445 -0.1227 -0.3428
   48MOL   C14711521   4.474   2.470   1.082  0.0762  0.3975  0.2751
   48MOL   C14811522   4.479   2.334   1.134  0.7646  0.6910  0.5018
   48MOL   C14911523   4.616   2.529   1.071 -0.2685  0.4456  0.2980
   48MOL   O15011524   4.664   2.589   0.971 -0.0376  0.4751  0.1609
   48MOL   O15111525   4.679   2.515   1.189  0.0725 -0.0128  0.5074
   48MOL   H15211526   4.472   2.466   0.860 -1.3731 -1.9494 -1.5268
   48MOL   H15311527   4.376   2.585   0.941  2.3216  0.3826 -1.5483
   48MOL   H15411528   4.521   2.259   1.068 -1.1053 -0.1160  0.1887
   48MOL   H15511529   4.385   2.305   1.181 -0.7816 -0.4151 -3.0834
   48MOL   H15611530   4.545   2.329   1.220  0.3212  2.1511  0.9542
   48MOL   H15711531   4.773   2.522   1.189  0.1402 -0.7511  1.5147
   48MOL   C15811532   4.403   2.565   1.195 -0.3292  0.3727 -0.5722
   48MOL   C15911533   4.407   2.726   1.209 -0.7479  0.8593  0.2359
   48MOL   C16011534   4.360   2.790   1.068 -0.2274  0.3617 -0.7903
   48MOL   C16111535   4.292   2.756   1.304  0.6491 -0.6661  0.5869
   48MOL   O16211536   4.197   2.838   1.278  0.2940  0.9117  0.0313
   48MOL   O16311537   4.304   2.693   1.421 -0.3366 -0.6924  0.2978
   48MOL   H16411538   4.302   2.530   1.215  0.4597 -0.8764  1.4149
   48MOL   H16511539   4.446   2.532   1.289 -0.6305  2.7209  0.4244
   48MOL   H16611540   4.435   2.777   0.991 -1.8618 -3.7877 -1.8342
   48MOL   H16711541   4.333   2.895   1.076  0.5453  0.6223 -1.5754
   48MOL   H16811542   4.269   2.747   1.025 -0.8272 -0.0559  0.8477
   48MOL   H16911543   4.379   2.636   1.420 -0.6833 -1.1394 -1.3145
   48MOL   C17011544   4.547   2.781   1.254  0.1512 -0.2807  0.8297
   48MOL   C17111545   4.582   2.922   1.321  0.2430 -0.1992  0.1741
   48MOL   C17211546   4.495   3.034   1.252 -0.6167  0.1975  0.4844
   48MOL   C17311547   4.548   2.918   1.473  0.2836  0.0227 -0.0491
   48MOL   O17411548   4.529   2.818   1.539 -0.0907  0.0733  0.3161
   48MOL   O17511549   4.553   3.046   1.530 -0.1925 -0.1659 -0.0331
   48MOL   H17611550   4.596   2.701   1.310 -0.2083  0.4321  2.1865
   48MOL   H17711551   4.606   2.787   1.163 -0.5729  1.7784  0.4838
   48MOL   H17811552   4.525   3.137   1.273 -0.0917  0.1226  0.1272
   48MOL   H17911553   4.398   3.012   1.295 -0.9166  0.3109 -0.1282
   48MOL   H18011554   4.498   3.022   1.143 -0.5579 -1.1626  0.6333
   48MOL   H18111555   4.511   3.045   1.614 -0.8064 -0.4322 -0.3415
   48MOL   C18211556   4.734   2.955   1.293 -0.0558 -0.8968  0.2241
   48MOL   C18311557   4.857   2.869   1.337  0.8229  0.4351  0.1137
   48MOL   C18411558   4.843   2.802   1.477  0.1190  0.6590  0.4066
   48MOL   C18511559   4.873   2.756   1.235 -0.0761 -0.2940 -0.0588
   48MOL   O18611560   4.910   2.640   1.264  0.0367 -0.3893 -0.0598
   48MOL   O18711561   4.854   2.792   1.106  0.0051  0.1941 -0.1167
   48MOL   H18811562   4.741   2.985   1.188  1.0986  3.1473  1.3425
   48MOL   H18911563   4.745   3.052   1.342 -0.5465 -0.5482 -0.3375
   48MOL   H19011564   4.924   2.736   1.507  1.0158  2.0224  0.9979
   48MOL   H19111565   4.757   2.736   1.490 -0.0836  0.4378 -1.7496
   48MOL   H19211566   4.845   2.885   1.547  0.2752  0.0880  1.0785
   48MOL   H19311567   4.890   2.728   1.047  1.0909 -1.0414  1.8326
   48MOL   C19411568   4.975   2.967   1.335  0.8365 -0.1270  0.0117
   48MOL   C19511569   5.126   2.927   1.326  0.1420 -0.2548  0.6132
   48MOL   C19611570   5.172   2.814   1.417 -0.7504  0.6928 -0.1449
   48MOL   C19711571   5.157   2.894   1.184 -0.4438  0.1914 -0.0348
   48MOL   O19811572   5.109   2.948   1.087 -0.1445 -0.2291  0.2119
   48MOL   O19911573   5.245   2.799   1.179  0.4942 -0.3746 -0.1619
   48MOL   H20011574   4.956   3.038   1.255  2.0121  0.0053 -0.1609
   48MOL   H20111575   4.971   3.018   1.432  3.1290  0.3974 -0.1445
   48MOL   H20211576   5.125   2.828   1.514 -3.2413  1.4678 -1.4199
   48MOL   H20311577   5.279   2.795   1.422 -0.8515 -0.5429 -1.9787
   48MOL   H20411578   5.128   2.716   1.396 -3.1564  1.4886  0.9736
   48MOL   H20511579   5.280   2.796   1.091  0.5415 -0.4079 -0.1422
   48MOL   C20611580   5.232   3.047   1.350 -0.2920  0.4706  0.4675
   48MOL   C20711581   5.225   3.159   1.462  0.0654  0.7273  0.4023
   48MOL   C20811582   5.181   3.108   1.601  0.5399  0.5219 -0.3099
   48MOL   C20911583   5.372   3.206   1.470  0.3053  0.5333  0.1730
   48MOL   O21011584   5.426   3.225   1.578  0.1123 -0.0060  0.3351
   48MOL   O21111585   5.430   3.222   1.349  0.0707 -0.0540  0.1412
   48MOL   H21211586   5.329   2.997   1.357 -1.4411 -2.1023 -1.1028
   48MOL   H21311587   5.237   3.102   1.256 -0.1859 -2.0284 -1.0361
   48MOL   H21411588   5.213   3.177   1.679  0.2676 -0.2344  0.4955
   48MOL   H21511589   5.224   3.011   1.626 -1.2360 -0.4477 -0.8702
   48MOL   H21611590   5.072   3.108   1.604  0.5440  2.1965  0.0420
   48MOL   H21711591   5.518   3.257   1.353  0.0100  0.2020 -0.6640
   48MOL   C21811592   5.130   3.278   1.423 -0.4208 -0.1062  0.3582
   48MOL   C21911593   5.088   3.398   1.516  0.0823 -0.9588 -0.3611
   48MOL   C22011594   5.023   3.494   1.420 -0.2323 -0.0665 -0.1450
   48MOL   C22111595   4.973   3.352   1.613  0.7483 -0.3607  0.0209
   48MOL   O22211596   4.983   3.335   1.735 -0.3298  0.4732 -0.2711
   48MOL   O22311597   4.856   3.321   1.545 -0.1114  0.2463 -0.3125
   48MOL   H22411598   5.168   3.324   1.332 -3.1137  0.8761 -0.3172
   48MOL   H22511599   5.044   3.226   1.380  1.8658 -1.8373 -2.3054
   48MOL   H22611600   4.947   3.436   1.368 -0.3970  0.4640 -0.4981
   48MOL   H22711601   5.102   3.538   1.358  1.1634  1.1013  2.3825
   48MOL   H22811602   4.972   3.572   1.476  0.2496 -4.5245  7.1014
   48MOL   H22911603   4.802   3.282   1.612 -1.9055  0.8209 -1.3891
   48MOL   C23011604   5.212   3.472   1.589  0.1791 -0.1542  0.7788
   48MOL   C23111605   5.195   3.619   1.634 -0.3565 -0.6314  0.1253
   48MOL   C23211606   5.147   3.615   1.781  0.1416  0.1026  0.7360
   48MOL   C23311607   5.315   3.713   1.622 -0.1882  0.1092 -0.9835
   48MOL   O23411608   5.391   3.759   1.710  0.4325 -0.3364  0.5087
   48MOL   O23511609   5.340   3.730   1.491  0.2398  0.5487 -0.0432
   48MOL   H23611610   5.259   3.413   1.668  0.4912  0.2910  0.9252
   48MOL   H23711611   5.285   3.473   1.508 -1.8528 -2.7184 -1.1439
   48MOL   H23811612   5.171   3.703   1.842  1.4049 -0.6302  1.3214
   48MOL   H23911613   5.204   3.537   1.832  0.7885 -2.0719 -3.1854
   48MOL   H24011614   5.045   3.581   1.793 -1.0110  2.0489 -2.8885
   48MOL   H24111615   5.429   3.754   1.469  1.1278 -0.3613  2.3583
   48MOL   H24211616   5.126   3.675   1.571  0.5394  0.7021  0.3237
   49MOL     C111617   5.742   1.401   5.662 -0.0043  0.5741 -0.4100
   49MOL     C211618   5.684   1.263   5.616 -0.0091  0.1373 -1.0323
   49MOL     C311619   5.541   1.300   5.569  0.3477  0.1985 -0.5255
   49MOL     C411620   5.766   1.217   5.488  0.1458  1.1214 -0.1291
   49MOL     O511621   5.862   1.279   5.442  0.2401 -0.5984 -0.3294
   49MOL     O611622   5.704   1.110   5.424 -0.6734 -0.4983 -0.4260
   49MOL     H711623   5.697   1.436   5.755 -1.2857  0.9041 -1.1303
   49MOL     H811624   5.722   1.483   5.592 -2.0151  1.0430  0.6630
   49MOL     H911625   5.531   1.373   5.488  2.4183 -0.3505 -1.2807
   49MOL    H1011626   5.470   1.323   5.649 -0.7635 -2.7949 -0.5963
   49MOL    H1111627   5.491   1.209   5.538 -1.3816  0.4615  1.3469
   49MOL    H1211628   5.767   1.080   5.361  0.5692 -1.1878  1.1365
   49MOL    H1311629   5.849   1.382   5.672  0.0526  1.1079 -0.0024
   49MOL    C1411630   5.680   1.163   5.725 -0.3561  0.5469 -0.0424
   49MOL    C1511631   5.796   1.084   5.792  0.1734  0.5023  0.1154
   49MOL    C1611632   5.877   0.996   5.694  0.4533 -0.2476  0.6763
   49MOL    C1711633   5.895   1.182   5.859 -0.5016 -0.4047 -0.0791
   49MOL    O1811634   6.017   1.168   5.855  0.5110 -0.6732  0.3436
   49MOL    O1911635   5.829   1.278   5.929 -0.0644 -0.3066 -0.3984
   49MOL    H2011636   5.616   1.204   5.803 -1.9974  2.3741 -2.2738
   49MOL    H2111637   5.621   1.080   5.685 -1.1573  0.8165  0.5665
   49MOL    H2211638   5.953   0.935   5.744  0.5056 -0.9080 -0.1896
   49MOL    H2311639   5.930   1.062   5.625  0.8661 -1.3002 -0.0311
   49MOL    H2411640   5.823   0.913   5.648  1.2003 -0.8299  0.8306
   49MOL    H2511641   5.885   1.343   5.968  1.4597 -1.3558 -0.8002
   49MOL    C2611642   5.736   0.991   5.907  1.0571  0.0135 -0.6056
   49MOL    C2711643   5.804   0.938   6.039  0.2309 -0.5649  0.4989
   49MOL    C2811644   5.843   1.059   6.127  1.3886 -0.3671  0.6763
   49MOL    C2911645   5.700   0.851   6.112  0.3366  0.0708  0.4218
   49MOL    O3011646   5.656   0.886   6.220 -0.4736 -0.6789  0.4934
   49MOL    O3111647   5.653   0.746   6.032 -0.3694  0.3040 -0.2923
   49MOL    H3211648   5.649   1.042   5.947  0.6254  0.6964 -2.3498
   49MOL    H3311649   5.704   0.904   5.848 -1.0500  0.6665 -0.4559
   49MOL    H3411650   5.776   1.142   6.109  1.4130 -0.4036  0.4274
   49MOL    H3511651   5.940   1.101   6.101  1.3226  0.1828  1.2845
   49MOL    H3611652   5.851   1.048   6.236  0.2620 -2.2995  0.5915
   49MOL    H3711653   5.578   0.704   6.071 -0.4778  0.0546 -0.7752
   49MOL    C3811654   5.926   0.847   5.997  0.0547  0.4345  0.4747
   49MOL    C3911655   6.011   0.754   6.086 -0.3893  0.3050 -0.1763
   49MOL    C4011656   6.141   0.719   6.002  0.0010  0.3321 -0.2649
   49MOL    C4111657   6.048   0.827   6.222  0.0946  0.8623 -0.0464
   49MOL    O4211658   6.168   0.866   6.235  0.9988  0.4089  0.6755
   49MOL    O4311659   5.956   0.834   6.321  0.3062  0.0203 -0.3194
   49MOL    H4411660   5.907   0.791   5.905 -0.4840  1.1595  0.1467
   49MOL    H4511661   5.998   0.922   5.963 -1.3671  2.3035  1.5193
   49MOL    H4611662   6.188   0.808   5.962 -0.0827  0.3937 -0.2277
   49MOL    H4711663   6.125   0.652   5.918 -1.1692  0.3180 -0.0371
   49MOL    H4811664   6.219   0.677   6.066 -0.2820  0.7997  0.4025
   49MOL    H4911665   5.865   0.809   6.312  0.3300 -0.1276 -0.1545
   49MOL    C5011666   5.939   0.621   6.128 -0.2750 -1.2112  0.0718
   49MOL    C5111667   6.000   0.494   6.205 -0.3907  0.0064 -0.0332
   49MOL    C5211668   5.874   0.401   6.226  0.2092  0.0625  0.1833
   49MOL    C5311669   6.105   0.413   6.126 -0.0453 -0.1876  0.9703
   49MOL    O5411670   6.221   0.394   6.159 -0.2857  0.2448  0.2110
   49MOL    O5511671   6.049   0.369   6.015  0.4696 -0.1547  0.5138
   49MOL    H5611672   5.857   0.654   6.192  0.5113 -0.7769  0.8469
   49MOL    H5711673   5.898   0.591   6.031 -1.2448  0.4346 -0.0527
   49MOL    H5811674   5.802   0.405   6.144  0.0507  1.5540  0.3769
   49MOL    H5911675   5.819   0.430   6.316  0.4826  0.9764  0.0649
   49MOL    H6011676   5.906   0.297   6.220 -0.6692 -0.1377 -1.2330
   49MOL    H6111677   6.108   0.317   5.963  0.6841 -0.5955  1.1895
   49MOL    C6211678   6.051   0.530   6.350 -0.3945 -0.1044  0.4752
   49MOL    C6311679   6.098   0.434   6.473 -0.3013 -0.4301  0.2100
   49MOL    C6411680   6.034   0.292   6.456 -1.1075 -0.1210 -0.1416
   49MOL    C6511681   6.248   0.430   6.479  0.2163  0.5199 -0.0063
   49MOL    O6611682   6.321   0.527   6.479  0.2266 -0.1083  0.2169
   49MOL    O6711683   6.300   0.301   6.475  0.8597  0.7086 -0.6511
   49MOL    H6811684   6.128   0.607   6.342 -0.5734  0.0474  0.1963
   49MOL    H6911685   5.956   0.572   6.382 -1.1835 -0.8619 -0.8289
   49MOL    H7011686   5.925   0.295   6.450 -0.9546  2.0301 -2.6036
   49MOL    H7111687   6.060   0.224   6.537 -1.1693 -1.3273 -1.1053
   49MOL    H7211688   6.076   0.245   6.367 -1.6224  2.1452 -1.6315
   49MOL    H7311689   6.394   0.295   6.466  0.8157  1.5235 -1.6551
   49MOL    C7411690   6.036   0.499   6.607 -0.4594 -0.3116 -0.9400
   49MOL    C7511691   6.027   0.430   6.750 -0.4904  0.2929  0.1094
   49MOL    C7611692   6.160   0.358   6.767  0.3480  0.3344  0.3578
   49MOL    C7711693   6.023   0.539   6.864 -0.3014 -0.8179 -0.7364
   49MOL    O7811694   5.990   0.655   6.844 -0.3384  0.2698  0.3268
   49MOL    O7911695   6.048   0.493   6.987  0.1480  0.4787  0.1778
   49MOL    H8011696   6.099   0.587   6.619 -1.4714  0.2232  0.6179
   49MOL    H8111697   5.944   0.550   6.578 -0.4770  0.9569  1.2791
   49MOL    H8211698   6.175   0.274   6.699  0.3601  1.1386 -0.6482
   49MOL    H8311699   6.163   0.294   6.855  1.6594 -1.4514 -0.9414
   49MOL    H8411700   6.243   0.428   6.778 -0.4592  1.3748 -0.0812
   49MOL    H8511701   6.054   0.555   7.058  1.2458  0.2022  0.3283
   49MOL    C8611702   5.903   0.325   6.754 -0.6226  0.0482  0.2187
   49MOL    C8711703   5.747   0.351   6.770  0.5831 -0.5758  0.3092
   49MOL    C8811704   5.698   0.389   6.917 -0.5956 -0.1456  0.2683
   49MOL    C8911705   5.707   0.467   6.673 -1.1696  0.1519  0.1710
   49MOL    O9011706   5.663   0.445   6.561  0.1480 -0.1450  0.4648
   49MOL    O9111707   5.719   0.593   6.729  0.5953  0.0864  0.2689
   49MOL    H9211708   5.915   0.255   6.671  0.3618  0.7831 -0.2612
   49MOL    H9311709   5.920   0.262   6.841 -0.6419  1.0454  0.9467
   49MOL    H9411710   5.725   0.318   6.996  0.1536  3.4156  3.3320
   49MOL    H9511711   5.591   0.404   6.926 -0.6767 -0.2096 -0.5898
   49MOL    H9611712   5.746   0.482   6.948  0.0699 -0.2641 -0.3794
   49MOL    H9711713   5.694   0.652   6.658  0.0469 -0.2253  0.2039
   49MOL    C9811714   5.667   0.221   6.725 -0.0801  0.1405 -0.2432
   49MOL    C9911715   5.656   0.081   6.802 -0.3266  0.1617  0.3060
   49MOL   C10011716   5.795   0.038   6.852  0.0585  0.1256  0.1660
   49MOL   C10111717   5.557   0.094   6.922  0.4665 -0.1971  0.3629
   49MOL   O10211718   5.583   0.050   7.035  0.3055  0.0641  0.4355
   49MOL   O10311719   5.446   0.173   6.891  0.2578  0.3569 -0.4723
   49MOL   H10411720   5.567   0.247   6.690  0.2075  1.0837 -0.3622
   49MOL   H10511721   5.715   0.185   6.634 -0.4929 -0.0437 -0.3873
   49MOL   H10611722   5.800   7.705   6.897 -0.7897 -0.3810 -0.8562
   49MOL   H10711723   5.829   0.103   6.932  1.3566 -1.0699  0.6217
   49MOL   H10811724   5.869   0.042   6.772  0.5244  0.5814  0.6105
   49MOL   H10911725   5.397   0.175   6.972 -0.1549 -0.9562 -0.6834
   49MOL   C11011726   5.613   7.731   6.704 -0.5707  0.3138  0.1877
   49MOL   C11111727   5.476   7.712   6.629 -0.9722 -0.1614 -0.5977
   49MOL   C11211728   5.360   7.692   6.729 -0.4924 -0.0435 -0.2823
   49MOL   C11311729   5.451   0.069   6.532  0.0373 -0.5374  0.2606
   49MOL   O11411730   5.361   0.151   6.547  0.0776 -0.6891 -0.3746
   49MOL   O11511731   5.542   0.083   6.430  0.4637 -0.4169  0.2282
   49MOL   H11611732   5.689   7.730   6.626 -0.9623 -2.1305 -0.2007
   49MOL   H11711733   5.628   7.644   6.768 -0.6157 -0.3685 -0.7157
   49MOL   H11811734   5.388   7.652   6.826 -0.2575  1.7352  0.3928
   49MOL   H11911735   5.275   7.643   6.681 -0.5726 -0.1911  0.0106
   49MOL   H12011736   5.321   0.022   6.760 -0.7062 -0.1614 -0.1830
   49MOL   H12111737   5.518   0.160   6.382  0.2703  0.3204  1.4851
   49MOL   C12211738   5.491   7.591   6.541  0.3977  0.3584  0.4814
   49MOL   C12311739   5.380   7.504   6.471 -0.5334 -0.3032  0.2536
   49MOL   C12411740   5.325   7.404   6.570 -0.3900 -0.1964 -0.6262
   49MOL   C12511741   5.270   7.587   6.402 -0.2222  0.1131 -0.3745
   49MOL   O12611742   5.147   7.568   6.427  0.1826 -0.7390  0.1684
   49MOL   O12711743   5.320   7.683   6.318 -0.3350 -0.1602  0.6942
   49MOL   H12811744   5.549   7.622   6.454  1.1624  0.3426  0.9887
   49MOL   H12911745   5.552   7.516   6.590  0.6903  0.6513  0.5703
   49MOL   H13011746   5.244   7.438   6.635  2.2560  2.6065  1.3570
   49MOL   H13111747   5.401   7.359   6.633 -0.5967  1.4203  0.8291
   49MOL   H13211748   5.295   7.307   6.530 -2.4253 -0.3534  1.1470
   49MOL   H13311749   5.248   7.740   6.294  1.7009  2.8037  1.3732
   49MOL   C13411750   5.447   7.436   6.347  0.2203 -0.4692  0.2174
   49MOL   C13511751   5.579   7.346   6.341 -0.1068 -0.3512 -0.0527
   49MOL   C13611752   5.578   7.234   6.448 -0.2665 -0.3948  0.6970
   49MOL   C13711753   5.567   7.261   6.210  0.3195  0.1547  0.6661
   49MOL   O13811754   5.488   7.284   6.115  0.5365 -0.1761 -0.1333
   49MOL   O13911755   5.660   7.164   6.199 -0.2882  0.0785  0.5466
   49MOL   H14011756   5.368   7.368   6.316  0.1105 -1.1096  1.8428
   49MOL   H14111757   5.448   7.498   6.257 -0.1520 -1.5956 -0.5692
   49MOL   H14211758   5.480   7.187   6.453 -1.1897  1.4913  0.8108
   49MOL   H14311759   5.599   7.275   6.547  2.3021 -1.4912  0.6496
   49MOL   H14411760   5.656   7.160   6.430 -0.3702  0.3637 -3.4063
   49MOL   H14511761   5.667   7.118   6.117 -0.1569 -1.1647  1.2380
   49MOL   C14611762   5.715   7.427   6.343 -1.0368  0.7024  0.1223
   49MOL   C14711763   5.780   7.516   6.227 -0.0078 -0.2512  0.1756
   49MOL   C14811764   5.872   7.622   6.301 -0.7237 -0.0415  0.1859
   49MOL   C14911765   5.858   7.422   6.138  0.4928 -0.2301  0.2926
   49MOL   O15011766   5.812   7.384   6.035  0.4796  0.1768 -0.2314
   49MOL   O15111767   5.978   7.381   6.189 -0.8173 -0.2265 -0.0963
   49MOL   H15211768   5.718   7.487   6.433 -0.8569 -0.5564  0.9751
   49MOL   H15311769   5.786   7.349   6.371 -0.7935  1.3694  1.3863
   49MOL   H15411770   5.968   7.646   6.255  0.3174 -2.4258  1.0267
   49MOL   H15511771   5.898   7.598   6.404  2.1038 -0.8891 -0.6757
   49MOL   H15611772   5.817   7.716   6.304 -0.4753  0.1881 -1.7670
   49MOL   H15711773   6.021   7.324   6.127  2.1123  1.4675  0.3172
   49MOL   C15811774   5.661   7.598   6.159 -0.3913  0.3572  0.0876
   49MOL   C15911775   5.667   7.715   6.052  0.1142  0.3231 -0.0411
   49MOL   C16011776   5.730   0.075   6.115 -0.6141  0.3577 -0.6473
   49MOL   C16111777   5.746   7.669   5.930 -0.5600 -0.3933  0.1047
   49MOL   O16211778   5.705   7.594   5.848  0.1909 -0.3932  0.5593
   49MOL   O16311779   5.881   7.695   5.933  0.1400 -0.5183 -0.2370
   49MOL   H16411780   5.596   7.524   6.112  1.7588 -1.6739  0.1958
   49MOL   H16511781   5.605   7.643   6.241 -1.3116  0.7581 -0.7591
   49MOL   H16611782   5.741   0.162   6.050  0.1812  0.2146 -0.7034
   49MOL   H16711783   5.830   0.050   6.150 -2.0827 -1.1758  2.6402
   49MOL   H16811784   5.677   0.112   6.203 -1.7795 -3.5049  0.3362
   49MOL   H16911785   5.926   7.651   5.863  0.0232 -1.7206  0.4192
   49MOL   C17011786   5.511   7.743   6.011 -0.4144 -0.3161 -0.0719
   49MOL   C17111787   5.451   0.110   5.951  0.4290 -0.3806  0.0332
   49MOL   C17211788   5.308   0.071   5.906  0.7388 -0.7915 -0.3176
   49MOL   C17311789   5.429   0.213   6.065 -0.0992 -0.1381  0.1788
   49MOL   O17411790   5.434   0.189   6.183 -0.2305  0.0408 -0.7916
   49MOL   O17511791   5.400   0.336   6.017  0.2773 -0.7305 -0.3511
   49MOL   H17611792   5.482   7.673   5.932  0.3181 -0.7818  0.0636
   49MOL   H17711793   5.457   7.719   6.102  2.2866  1.1293  1.9904
   49MOL   H17811794   5.259   0.005   5.977  2.8338 -0.8736  1.1235
   49MOL   H17911795   5.309   0.011   5.815  3.3081 -1.4436  0.1025
   49MOL   H18011796   5.252   0.160   5.877  0.3460 -1.0756 -0.4220
   49MOL   H18111797   5.377   0.312   5.928 -0.8290 -2.5243  0.3847
   49MOL   C18211798   5.553   0.165   5.843 -0.0202  0.4370  0.6491
   49MOL   C18311799   5.515   0.198   5.694 -0.1076  0.1146 -0.3348
   49MOL   C18411800   5.488   0.061   5.618  0.1149  0.5415 -0.1760
   49MOL   C18511801   5.387   0.288   5.682  0.3405 -0.6405 -0.1796
   49MOL   O18611802   5.366   0.382   5.754 -0.2682  0.4334 -0.4362
   49MOL   O18711803   5.293   0.231   5.604  0.0242 -0.2068 -0.3639
   49MOL   H18811804   5.596   0.259   5.879  0.2272  0.5760 -0.0027
   49MOL   H18911805   5.642   0.103   5.829 -1.1696 -1.1822  0.4481
   49MOL   H19011806   5.406   7.760   5.640  0.1226  0.5210 -0.2097
   49MOL   H19111807   5.575   7.762   5.624  0.5192  1.1296  0.4539
   49MOL   H19211808   5.475   0.089   5.513  1.2539 -0.0705 -0.4981
   49MOL   H19311809   5.206   0.269   5.606  0.1585  0.0582  1.3749
   49MOL   C19411810   5.639   0.263   5.619 -0.3092 -0.1969  0.5393
   49MOL   C19511811   5.724   0.389   5.666  0.1450  0.0567  0.6620
   49MOL   C19611812   5.627   0.497   5.722 -0.2677 -0.7359 -0.1134
   49MOL   C19711813   5.818   0.356   5.781  0.9743 -0.1747 -0.0061
   49MOL   O19811814   5.849   0.243   5.810  0.1953  0.6790  0.2923
   49MOL   O19911815   5.871   0.467   5.841 -0.4058 -0.0424 -0.6907
   49MOL   H20011816   5.715   0.185   5.619 -1.3630 -1.2403 -0.0979
   49MOL   H20111817   5.601   0.270   5.517  1.1905 -0.5731 -0.0646
   49MOL   H20211818   5.593   0.470   5.822 -0.0342 -0.7444 -0.0352
   49MOL   H20311819   5.542   0.515   5.656  0.3351 -1.5759 -1.1395
   49MOL   H20411820   5.668   0.596   5.742 -2.0898  0.4904 -2.2179
   49MOL   H20511821   5.942   0.440   5.897 -1.4047  2.1841  1.7739
   49MOL   C20611822   5.802   0.455   5.543 -0.3392 -0.1123  0.2545
   49MOL   C20711823   5.918   0.397   5.457 -0.2603  0.1102  0.1137
   49MOL   C20811824   6.022   0.319   5.545  0.1508  0.5124  0.5150
   49MOL   C20911825   5.850   0.286   5.371 -0.8589  1.3094  0.7147
   49MOL   O21011826   5.875   0.170   5.402  0.2012 -0.4117 -0.0742
   49MOL   O21111827   5.763   0.331   5.278 -0.1095  0.4948 -1.0372
   49MOL   H21211828   5.733   0.481   5.463 -1.6730 -0.4488  1.2890
   49MOL   H21311829   5.829   0.554   5.579  1.6514 -0.7204  0.4918
   49MOL   H21411830   6.065   0.387   5.618  0.2475  1.9796 -0.8803
   49MOL   H21511831   6.110   0.286   5.490 -1.7178  0.7927 -2.8236
   49MOL   H21611832   5.987   0.235   5.605  1.1121 -1.6728 -1.8478
   49MOL   H21711833   5.705   0.270   5.235  0.2496  0.7883 -1.9496
   49MOL   C21811834   5.987   0.502   5.356  0.0151  0.0767 -0.4954
   49MOL   C21911835   6.093   0.607   5.396  0.0398  0.2749  0.0230
   49MOL   C22011836   6.066   0.679   5.527  0.3340  0.3098 -0.5717
   49MOL   C22111837   6.239   0.546   5.406 -0.3551  0.0093 -0.0383
   49MOL   O22211838   6.301   0.548   5.508 -0.2253 -0.0132  0.4051
   49MOL   O22311839   6.288   0.506   5.284 -0.1533  0.1431  0.0037
   49MOL   H22411840   6.025   0.455   5.265 -1.9640 -0.9337 -0.8111
   49MOL   H22511841   5.900   0.560   5.326 -0.3468  0.1907  0.7644
   49MOL   H22611842   6.146   0.749   5.552 -0.4572  0.8409  0.5107
   49MOL   H22711843   6.069   0.605   5.607 -0.0749  1.5503  0.6160
   49MOL   H22811844   5.971   0.730   5.537 -0.6070 -1.4165 -0.5359
   49MOL   H22911845   6.374   0.476   5.308  0.3237  0.9873 -0.6064
   49MOL   C23011846   6.089   0.712   5.280 -0.4623 -0.5471  0.3724
   49MOL   C23111847   6.197   0.828   5.268  0.5286 -0.0259  0.0370
   49MOL   C23211848   6.227   0.864   5.117 -0.1619 -0.5103 -0.2961
   49MOL   C23311849   6.149   0.958   5.339  0.5526  0.4968  0.2389
   49MOL   O23411850   6.080   1.040   5.282 -0.0252  0.4103 -0.5340
   49MOL   O23511851   6.200   0.979   5.462  0.4827  0.1129 -0.3701
   49MOL   H23611852   6.075   0.668   5.181  1.5565  1.2051 -0.7236
   49MOL   H23711853   5.993   0.763   5.277 -0.9118 -1.3547  0.7870
   49MOL   H23811854   6.300   0.800   5.069 -0.7904 -1.0712 -0.5127
   49MOL   H23911855   6.272   0.961   5.093 -2.2758  1.1182  2.0437
   49MOL   H24011856   6.134   0.871   5.060  0.8745  2.0155 -1.7976
   49MOL   H24111857   6.167   1.062   5.492  2.1710  0.7532 -0.2582
   49MOL   H24211858   6.289   0.801   5.321  0.7263  1.6580  0.5981
   50MOL     C111859   2.309   5.326   4.689  0.2594 -0.1582  0.6873
   50MOL     C211860   2.352   5.291   4.831 -0.0583 -0.3590 -0.1038
   50MOL     C311861   2.306   5.413   4.928 -0.9111  1.1767 -0.4197
   50MOL     C411862   2.273   5.170   4.883  0.4841  0.4164 -0.1674
   50MOL     O511863   2.287   5.129   5.000  0.2525 -0.1735  0.1511
   50MOL     O611864   2.171   5.124   4.796 -0.0988 -0.2422 -0.0997
   50MOL     H711865   2.376   5.404   4.654 -1.1605  0.7035 -0.1602
   50MOL     H811866   2.208   5.366   4.697 -0.6663 -2.1276 -0.5798
   50MOL     H911867   2.338   5.397   5.031  0.9017  0.1770 -1.0988
   50MOL    H1011868   2.198   5.418   4.921 -1.0477  2.6547  2.0720
   50MOL    H1111869   2.338   5.512   4.894 -1.2737  1.2058 -0.6678
   50MOL    H1211870   2.123   5.048   4.826  0.1286  0.2244  1.4983
   50MOL    H1311871   2.306   5.244   4.617 -1.1695  0.6398 -0.1888
   50MOL    C1411872   2.508   5.282   4.849  0.1321  0.2924  0.4684
   50MOL    C1511873   2.610   5.217   4.754 -0.0755 -0.3587 -0.6074
   50MOL    C1611874   2.738   5.209   4.838  0.1608  0.0031  0.4637
   50MOL    C1711875   2.577   5.067   4.731 -0.3516 -0.4098 -0.1780
   50MOL    O1811876   2.480   5.015   4.788 -0.6414  0.1844  0.1838
   50MOL    O1911877   2.667   5.004   4.651  0.0856  0.0634 -0.0738
   50MOL    H2011878   2.545   5.375   4.893 -0.0212  0.9813 -0.8449
   50MOL    H2111879   2.518   5.237   4.948  0.3645 -0.0338  0.2983
   50MOL    H2211880   2.742   5.127   4.909  1.4499  0.9280  1.4896
   50MOL    H2311881   2.753   5.299   4.898 -2.8129  1.7773 -1.3255
   50MOL    H2411882   2.819   5.209   4.765  0.7267  2.2262  1.0627
   50MOL    H2511883   2.628   4.921   4.628 -0.7202  0.4703 -0.1894
   50MOL    C2611884   2.623   5.291   4.608  0.1056 -0.3122 -0.0741
   50MOL    C2711885   2.675   5.434   4.569 -0.6893 -1.0368  0.3173
   50MOL    C2811886   2.645   5.530   4.691  0.4834  0.0360 -0.0621
   50MOL    C2911887   2.827   5.424   4.556 -0.4672  0.2796 -0.1443
   50MOL    O3011888   2.893   5.325   4.577 -0.5129  0.3712 -0.5801
   50MOL    O3111889   2.878   5.542   4.514 -0.3288 -0.0215 -0.9047
   50MOL    H3211890   2.682   5.223   4.546  0.5157 -0.5121  0.5344
   50MOL    H3311891   2.529   5.276   4.555 -1.4492  1.3909  2.1632
   50MOL    H3411892   2.686   5.624   4.656 -1.6175  0.3171 -1.9180
   50MOL    H3511893   2.697   5.508   4.784 -0.4261 -2.2813 -0.0612
   50MOL    H3611894   2.539   5.552   4.708  0.1284 -1.1839 -0.5740
   50MOL    H3711895   2.972   5.546   4.515 -0.2844 -1.3031  0.7255
   50MOL    C3811896   2.613   5.496   4.437 -0.2628 -0.0740  0.5388
   50MOL    C3911897   2.645   5.437   4.293 -0.1870  0.3046 -0.6790
   50MOL    C4011898   2.742   5.533   4.222 -0.4869  0.2387 -0.2958
   50MOL    C4111899   2.696   5.288   4.294  0.1154 -0.4917  0.3975
   50MOL    O4211900   2.811   5.256   4.260  0.1092  0.4297  0.9109
   50MOL    O4311901   2.603   5.200   4.323 -0.4285 -0.3500  0.4067
   50MOL    H4411902   2.506   5.490   4.457 -0.2022 -4.2122 -0.0230
   50MOL    H4511903   2.643   5.601   4.444  1.1394 -0.4641  0.5219
   50MOL    H4611904   2.801   5.485   4.145 -2.5016  0.5031 -2.0682
   50MOL    H4711905   2.819   5.577   4.285  0.7162 -1.7693 -0.3248
   50MOL    H4811906   2.685   5.620   4.187 -2.0163 -0.6289 -0.0133
   50MOL    H4911907   2.642   5.116   4.304  0.4679  0.4784 -1.5221
   50MOL    C5011908   2.507   5.462   4.228 -0.3994  0.2594 -0.5920
   50MOL    C5111909   2.472   5.432   4.077 -0.1445  0.1923 -0.1837
   50MOL    C5211910   2.457   5.582   4.022  0.1911 -0.1016  0.0130
   50MOL    C5311911   2.585   5.356   4.005  0.2790  0.2108 -0.2180
   50MOL    O5411912   2.666   5.419   3.936 -0.1922  0.3019  0.0888
   50MOL    O5511913   2.579   5.224   4.018  0.3675  0.7282  0.1743
   50MOL    H5611914   2.450   5.384   4.279  1.3941 -0.2728  0.6330
   50MOL    H5711915   2.455   5.555   4.255 -2.2174 -0.2537 -2.1775
   50MOL    H5811916   2.363   5.626   4.054 -0.4063 -1.4021  0.0695
   50MOL    H5911917   2.462   5.571   3.913  0.1667 -2.1341  0.2035
   50MOL    H6011918   2.541   5.652   4.029 -1.3304  2.0710 -2.2970
   50MOL    H6111919   2.645   5.170   3.978 -1.3542 -1.2694 -0.0705
   50MOL    C6211920   2.338   5.357   4.080 -0.2349  0.6576 -0.5153
   50MOL    C6311921   2.238   5.344   3.963  0.0672  1.2054 -0.1431
   50MOL    C6411922   2.170   5.480   3.923 -0.3165 -0.1502 -0.1014
   50MOL    C6511923   2.311   5.283   3.837 -0.2200  0.1131 -0.6149
   50MOL    O6611924   2.312   5.342   3.729 -0.1597 -0.6188 -0.4113
   50MOL    O6711925   2.365   5.155   3.853 -0.0572  0.1144 -0.2919
   50MOL    H6811926   2.347   5.266   4.140 -0.7822  1.8195  1.3826
   50MOL    H6911927   2.282   5.419   4.150 -0.1625  0.6357 -0.4389
   50MOL    H7011928   2.239   5.543   3.866 -0.5542  0.3011  0.1060
   50MOL    H7111929   2.116   5.527   4.005  0.8827  0.7064  0.2091
   50MOL    H7211930   2.087   5.475   3.852  0.3334 -2.4606 -0.7057
   50MOL    H7311931   2.356   5.127   3.943  3.6426  1.3698  0.5109
   50MOL    C7411932   2.124   5.252   4.015  0.6577 -0.0300  0.0625
   50MOL    C7511933   2.008   5.172   3.939  0.0320  0.4060  0.2763
   50MOL    C7611934   1.949   5.256   3.827  0.2247  0.2157 -0.4244
   50MOL    C7711935   2.067   5.041   3.878 -0.2667 -0.6136  0.0740
   50MOL    O7811936   2.136   4.965   3.944  0.7333  0.0432 -0.0112
   50MOL    O7911937   2.045   5.020   3.747 -0.5141 -0.3038  1.0501
   50MOL    H8011938   2.179   5.180   4.076  0.3923 -0.8343 -0.6439
   50MOL    H8111939   2.078   5.318   4.089 -1.0551 -2.3157  1.0924
   50MOL    H8211940   2.027   5.261   3.752 -1.4665  0.1559 -2.2403
   50MOL    H8311941   1.923   5.357   3.860  1.4499  0.6586 -0.8034
   50MOL    H8411942   1.863   5.217   3.773  0.1615  1.5362 -1.2996
   50MOL    H8511943   2.106   4.958   3.711 -0.0555  0.9832 -0.4737
   50MOL    C8611944   1.909   5.133   4.046  0.1732 -0.3804  0.5355
   50MOL    C8711945   1.748   5.135   4.042 -0.2926 -0.0365  0.2398
   50MOL    C8811946   1.688   5.274   3.999 -0.3013 -0.0914  0.8712
   50MOL    C8911947   1.701   5.025   3.943  0.3408  0.1533 -0.2329
   50MOL    O9011948   1.771   4.937   3.892 -0.8679  0.3403 -0.1727
   50MOL    O9111949   1.568   5.031   3.918 -0.3188  0.3920  0.2950
   50MOL    H9211950   1.931   5.031   4.077 -2.1528 -0.5815  1.5889
   50MOL    H9311951   1.942   5.171   4.143 -1.4877 -0.4745  1.1477
   50MOL    H9411952   1.731   5.356   4.057 -0.8382  0.9772 -0.2137
   50MOL    H9511953   1.580   5.277   4.014 -0.6069  1.0234 -1.4298
   50MOL    H9611954   1.695   5.294   3.893  0.8489  1.9050  1.3047
   50MOL    H9711955   1.558   4.958   3.860 -1.8703  1.1309 -0.3941
   50MOL    C9811956   1.684   5.112   4.183 -0.6196  0.2648 -0.3801
   50MOL    C9911957   1.689   4.980   4.273  0.3672  0.1266  0.5752
   50MOL   C10011958   1.628   5.026   4.403 -0.1942 -0.2234 -0.1575
   50MOL   C10111959   1.609   4.861   4.220 -0.3041  0.9878 -0.5942
   50MOL   O10211960   1.497   4.830   4.266  0.1388 -0.4510  0.4436
   50MOL   O10311961   1.670   4.785   4.122 -0.5426  0.3241 -0.6462
   50MOL   H10411962   1.724   5.203   4.228  0.9401  0.6003 -2.3870
   50MOL   H10511963   1.580   5.145   4.179 -0.9647 -0.4923  1.8694
   50MOL   H10611964   1.616   4.942   4.470 -2.0771 -1.5770 -2.1511
   50MOL   H10711965   1.528   5.066   4.392 -0.9361 -1.4810  1.7798
   50MOL   H10811966   1.676   5.103   4.464  0.0168 -0.7317  0.3196
   50MOL   H10911967   1.629   4.704   4.097  1.1518 -0.5378 -0.6910
   50MOL   C11011968   1.840   4.936   4.296 -0.1752 -0.7361 -0.9298
   50MOL   C11111969   1.892   4.855   4.424 -0.0998  0.2284 -0.2542
   50MOL   C11211970   1.891   4.938   4.550 -0.2108  0.8905  0.3789
   50MOL   C11311971   1.802   4.729   4.448  0.4380  0.0356 -0.6762
   50MOL   O11411972   1.749   4.700   4.557  0.6616  0.2894  0.7111
   50MOL   O11511973   1.798   4.649   4.340 -0.8292  0.0266 -0.1254
   50MOL   H11611974   1.884   4.890   4.207 -0.0267  0.6252 -1.5801
   50MOL   H11711975   1.895   5.030   4.307  0.6021 -1.3537  0.6492
   50MOL   H11811976   1.789   4.954   4.584  0.0476  2.0132  0.6393
   50MOL   H11911977   1.957   5.024   4.560  1.7579 -0.5582  0.3055
   50MOL   H12011978   1.924   4.870   4.629 -0.9627  0.5719  0.4271
   50MOL   H12111979   1.764   4.565   4.367  1.6905 -0.8603  0.4726
   50MOL   C12211980   2.036   4.793   4.393  0.6631 -0.0244 -0.4993
   50MOL   C12311981   2.185   4.868   4.404 -0.2838  0.0886 -0.7580
   50MOL   C12411982   2.181   5.000   4.326 -0.3889  0.1931  0.1388
   50MOL   C12511983   2.216   4.884   4.551  0.1172 -0.2212 -0.1393
   50MOL   O12611984   2.187   4.809   4.643  0.1167  0.1805 -0.3226
   50MOL   O12711985   2.287   4.996   4.567 -0.0215 -0.2173  0.7928
   50MOL   H12811986   2.047   4.705   4.457 -1.2976  0.5104  0.6321
   50MOL   H12911987   2.028   4.742   4.297 -1.8471  0.9748 -0.8655
   50MOL   H13011988   2.162   4.998   4.218 -0.3725  0.3310  0.1336
   50MOL   H13111989   2.276   5.052   4.336  0.1583 -0.3605 -1.8987
   50MOL   H13211990   2.111   5.077   4.357 -0.3279 -0.5586  2.1779
   50MOL   H13311991   2.312   5.004   4.658  2.6790  4.0749 -0.1535
   50MOL   C13411992   2.289   4.774   4.334 -0.3865  0.1006  0.2933
   50MOL   C13511993   2.450   4.777   4.349  0.3778 -0.5675  0.0675
   50MOL   C13611994   2.514   4.916   4.354 -0.1733 -0.4015  0.3895
   50MOL   C13711995   2.493   4.722   4.491  0.1274 -0.2362  0.2720
   50MOL   O13811996   2.533   4.787   4.583 -0.2914 -0.1607 -0.0366
   50MOL   O13911997   2.488   4.586   4.495  0.5231 -0.0849  0.2531
   50MOL   H14011998   2.261   4.675   4.370 -2.5157  0.5102 -0.1978
   50MOL   H14111999   2.261   4.771   4.229 -1.3652  1.2761  0.5148
   50MOL   H14212000   2.484   4.983   4.273 -0.1971  2.6514  2.8383
   50MOL   H14312001   2.622   4.910   4.362 -0.3268 -1.9473  1.5321
   50MOL   H14412002   2.488   4.974   4.442 -1.6178 -1.7311  0.8656
   50MOL   H14512003   2.514   4.564   4.583 -1.0431  1.2844  1.0912
   50MOL   C14612004   2.519   4.695   4.234  0.3055 -0.5443  0.1836
   50MOL   C14712005   2.555   4.753   4.089  0.5142 -0.2268 -0.1971
   50MOL   C14812006   2.576   4.634   3.996  0.3482  0.2615 -0.4956
   50MOL   C14912007   2.438   4.840   4.033 -0.7056 -0.0861  0.2044
   50MOL   O15012008   2.433   4.962   4.022  0.3677  0.5012  0.2298
   50MOL   O15112009   2.327   4.772   4.004  0.6415 -0.1379 -0.3853
   50MOL   H15212010   2.613   4.668   4.280  1.4451  1.7502 -0.7090
   50MOL   H15312011   2.472   4.597   4.222 -0.2679  0.0052 -2.3845
   50MOL   H15412012   2.623   4.655   3.900  0.8029  2.9631  0.2996
   50MOL   H15512013   2.486   4.575   3.976 -0.6390  0.5091  2.9510
   50MOL   H15612014   2.637   4.555   4.040 -2.6934 -1.6450  0.4814
   50MOL   H15712015   2.251   4.827   3.999  1.5502  1.1460 -0.3915
   50MOL   C15812016   2.684   4.845   4.099 -0.0947  0.0320  0.1933
   50MOL   C15912017   2.792   4.855   3.989 -0.1548 -0.8759  0.5300
   50MOL   C16012018   2.876   4.721   3.982  0.4927  0.6187  0.9136
   50MOL   C16112019   2.746   4.885   3.844  0.1315 -0.1663 -0.5742
   50MOL   O16212020   2.785   4.818   3.747  0.3340 -0.0420  0.0130
   50MOL   O16312021   2.660   4.989   3.831 -0.4515 -0.0403 -0.1579
   50MOL   H16412022   2.645   4.947   4.111 -0.7189  0.0249 -1.6229
   50MOL   H16512023   2.747   4.825   4.185  1.9231  1.1424 -1.0056
   50MOL   H16612024   2.835   4.651   4.055 -1.3682  0.0351 -0.6496
   50MOL   H16712025   2.973   4.740   4.028  0.1163  0.2393  1.8903
   50MOL   H16812026   2.888   4.667   3.889 -0.9797 -1.5896  1.9723
   50MOL   H16912027   2.635   4.995   3.740 -2.0355  1.0642  0.3112
   50MOL   C17012028   2.896   4.962   4.038 -0.1426  0.6712 -0.4108
   50MOL   C17112029   3.024   5.014   3.954 -0.1225 -0.3525  0.7756
   50MOL   C17212030   3.110   4.906   3.893 -0.3308  0.9887  0.1309
   50MOL   C17312031   2.979   5.112   3.840  0.4938 -0.4309 -0.1498
   50MOL   O17412032   3.027   5.107   3.727  0.5327 -0.4604  0.2406
   50MOL   O17512033   2.886   5.196   3.880  0.4242 -0.8882  1.2199
   50MOL   H17612034   2.828   5.044   4.064  2.0172  1.7473  2.0402
   50MOL   H17712035   2.932   4.935   4.137 -1.4650  0.5498  0.0428
   50MOL   H17812036   3.160   4.828   3.951 -1.1783 -0.7643 -1.4612
   50MOL   H17912037   3.179   4.937   3.814  0.5220 -0.4581  0.2930
   50MOL   H18012038   3.038   4.851   3.833  0.9400  0.2183 -0.7280
   50MOL   H18112039   2.860   5.245   3.804  2.8092 -1.7860 -0.2449
   50MOL   C18212040   3.112   5.096   4.057  0.5127 -0.1610 -0.4463
   50MOL   C18312041   3.253   5.169   4.024 -0.2789  0.5437 -0.2572
   50MOL   C18412042   3.358   5.065   3.962 -0.1438  0.3823 -0.2861
   50MOL   C18512043   3.247   5.285   3.921  0.0402  0.6473  1.0401
   50MOL   O18612044   3.343   5.309   3.846  0.2099 -0.5650  0.3199
   50MOL   O18712045   3.132   5.359   3.912  0.8134  0.2330 -0.7311
   50MOL   H18812046   3.048   5.171   4.103  3.2109  1.4151  0.8543
   50MOL   H18912047   3.140   5.025   4.135  2.6967  2.5388  1.3620
   50MOL   H19012048   3.344   5.046   3.856  1.3572 -1.0916 -0.2324
   50MOL   H19112049   3.358   4.969   4.013 -0.2205  1.0173  0.9435
   50MOL   H19212050   3.460   5.103   3.967  0.7526 -2.1254  1.6786
   50MOL   H19312051   3.072   5.345   3.984  0.9263  0.4395 -0.5965
   50MOL   C19412052   3.319   5.228   4.158  0.4636  1.1831 -0.6032
   50MOL   C19512053   3.281   5.354   4.245  1.1165  0.1626 -0.1550
   50MOL   C19612054   3.334   5.481   4.177  0.0085 -0.3682  0.0100
   50MOL   C19712055   3.125   5.350   4.259 -0.4034  0.1306 -0.7678
   50MOL   O19812056   3.049   5.431   4.195 -0.2327 -0.0527  0.0706
   50MOL   O19912057   3.081   5.246   4.331 -0.6565 -0.0403 -0.0383
   50MOL   H20012058   3.310   5.146   4.229 -2.8879  1.2848 -0.8678
   50MOL   H20112059   3.421   5.246   4.124  0.2997  1.6197 -0.8703
   50MOL   H20212060   3.316   5.490   4.070  1.2725  1.2167 -0.0923
   50MOL   H20312061   3.441   5.494   4.192  0.3114  1.6913 -3.6397
   50MOL   H20412062   3.281   5.571   4.209 -2.1110 -1.2094 -1.0352
   50MOL   H20512063   2.986   5.252   4.335 -0.6401 -0.3648  1.4056
   50MOL   C20612064   3.345   5.337   4.388  0.2110  0.6411  0.6547
   50MOL   C20712065   3.348   5.439   4.515  0.1745  0.5083 -0.2273
   50MOL   C20812066   3.496   5.473   4.539  0.5004  0.6224 -0.5322
   50MOL   C20912067   3.255   5.558   4.491 -0.2178 -0.6334  0.3908
   50MOL   O21012068   3.135   5.545   4.503 -0.4338 -0.8764 -0.2210
   50MOL   O21112069   3.317   5.677   4.451 -0.0892  0.1937  0.1802
   50MOL   H21212070   3.293   5.251   4.432 -1.6342  1.1503 -0.4686
   50MOL   H21312071   3.441   5.287   4.378 -0.2737 -0.3325  0.7605
   50MOL   H21412072   3.559   5.403   4.593 -1.6866  1.2416  3.0237
   50MOL   H21512073   3.501   5.565   4.598  1.7608 -1.4836  2.7264
   50MOL   H21612074   3.552   5.498   4.448  0.1573  1.8017 -0.4348
   50MOL   H21712075   3.256   5.741   4.419  0.9624  0.6509 -0.9350
   50MOL   C21812076   3.289   5.355   4.647  0.2677 -0.2097  0.1785
   50MOL   C21912077   3.271   5.411   4.796 -0.2995  0.4506  0.5198
   50MOL   C22012078   3.362   5.535   4.822  0.4915 -0.0661  0.1011
   50MOL   C22112079   3.130   5.459   4.821  0.6454  0.0815 -0.0207
   50MOL   O22212080   3.097   5.577   4.822 -0.1722 -0.1435  0.3286
   50MOL   O22312081   3.035   5.366   4.826 -0.2913  0.0873 -0.2274
   50MOL   H22412082   3.194   5.312   4.613  1.5651 -1.6615 -1.7339
   50MOL   H22512083   3.363   5.276   4.662  0.9543  0.1586 -1.2276
   50MOL   H22612084   3.459   5.485   4.814  0.7722  0.5314 -0.1962
   50MOL   H22712085   3.347   5.566   4.926  0.6890 -0.7180  0.3326
   50MOL   H22812086   3.357   5.619   4.753 -0.4284  0.7354  1.1186
   50MOL   H22912087   2.952   5.409   4.842  0.9904  2.7312 -0.5305
   50MOL   C23012088   3.309   5.295   4.900 -0.8701  0.3120 -0.1523
   50MOL   C23112089   3.255   5.153   4.875  0.2600  0.4397 -0.3185
   50MOL   C23212090   3.375   5.054   4.862  0.1576 -0.5046  0.4612
   50MOL   C23312091   3.152   5.094   4.975 -0.0280 -0.5404 -0.6982
   50MOL   O23412092   3.181   5.013   5.067 -0.1646 -0.1229 -0.1492
   50MOL   O23512093   3.028   5.134   4.952  0.4331  0.4895 -0.5518
   50MOL   H23612094   3.417   5.293   4.917 -0.9549 -0.9761  0.3097
   50MOL   H23712095   3.275   5.322   5.000  2.4257  2.9601  0.3654
   50MOL   H23812096   3.439   5.081   4.778  0.3464  0.5744  0.9338
   50MOL   H23912097   3.341   4.952   4.847  4.2489 -1.4538 -3.3913
   50MOL   H24012098   3.442   5.056   4.949  0.8763 -0.0425 -0.0906
   50MOL   H24112099   2.962   5.104   5.013  1.4741  1.0420  0.8761
   50MOL   H24212100   3.192   5.141   4.786 -0.6768 -0.9153  0.5098
   51MOL     C112101   3.820   2.700   7.503  0.0492 -0.6075  0.7655
   51MOL     C212102   3.967   2.707   7.548  0.5138 -0.6074 -0.5894
   51MOL     C312103   4.058   2.708   7.425 -0.0329 -0.3180  1.0724
   51MOL     C412104   3.996   2.840   7.630 -0.4863 -0.6271 -0.2781
   51MOL     O512105   3.919   2.935   7.653 -0.1192  0.5970 -0.2146
   51MOL     O612106   4.121   2.851   7.676  0.2131  0.4131 -0.3781
   51MOL     H712107   3.748   2.675   7.581  0.0022  2.1402  1.6474
   51MOL     H812108   3.816   2.640   7.412  0.2503  0.2990  0.1531
   51MOL     H912109   4.025   2.790   7.361 -0.3952  0.6449  2.4546
   51MOL    H1012110   4.054   2.622   7.358  1.6833 -0.1214  0.6907
   51MOL    H1112111   4.164   2.722   7.447 -0.3112  1.9118  1.1548
   51MOL    H1212112   4.167   2.777   7.639 -0.8297 -0.4167 -0.0428
   51MOL    H1312113   3.796   2.802   7.471  1.0918  0.3661  3.0147
   51MOL    C1412114   3.991   2.592   7.659 -0.1723 -0.2306 -0.5690
   51MOL    C1512115   4.056   2.449   7.621 -0.9421 -0.1646  0.0104
   51MOL    C1612116   3.965   2.373   7.522 -0.1271  0.0293 -0.8810
   51MOL    C1712117   4.195   2.471   7.570 -0.6600 -0.0867  0.3566
   51MOL    O1812118   4.249   2.438   7.465  0.3682 -0.0308  0.0478
   51MOL    O1912119   4.253   2.552   7.661 -0.0120 -0.5030 -0.1058
   51MOL    H2012120   4.052   2.628   7.742 -0.8417  1.1736 -0.6624
   51MOL    H2112121   3.890   2.577   7.696 -0.2671  1.4551 -0.1007
   51MOL    H2212122   3.970   2.422   7.425  0.9087  1.3460 -0.1785
   51MOL    H2312123   3.862   2.367   7.557  0.0192 -0.2997 -0.4918
   51MOL    H2412124   4.005   2.273   7.507  0.4361  0.1000  0.0828
   51MOL    H2512125   4.341   2.562   7.628  0.0818  2.9088  0.9812
   51MOL    C2612126   4.055   2.369   7.757 -0.1898  0.0517 -0.0589
   51MOL    C2712127   4.069   2.220   0.023  0.0979  0.1330 -0.4345
   51MOL    C2812128   3.950   2.133   7.737  0.2203 -0.1190  0.5586
   51MOL    C2912129   4.196   2.150   7.733  0.4034 -0.4953  0.0387
   51MOL    O3012130   4.292   2.101   0.030 -0.2216  0.2945 -0.0395
   51MOL    O3112131   4.197   2.157   7.600  0.1502  0.6817 -0.5936
   51MOL    H3212132   4.134   2.416   0.048  0.0602  0.5353 -0.7736
   51MOL    H3312133   3.972   2.408   0.048 -1.0216  2.1656 -2.5508
   51MOL    H3412134   3.870   2.185   7.685  0.6297  0.5141  0.5562
   51MOL    H3512135   3.907   2.086   0.058 -2.0790  2.7016  1.0365
   51MOL    H3612136   3.982   2.059   7.665  1.9308  1.4098 -0.2691
   51MOL    H3712137   4.276   2.118   7.567 -0.9117 -0.0652 -2.3086
   51MOL    C3812138   4.066   2.199   0.182  0.5094  0.4183 -0.1195
   51MOL    C3912139   3.960   2.263   0.282  0.4362  0.2788  0.3857
   51MOL    C4012140   3.954   2.157   0.402  0.3661 -0.5741  0.6477
   51MOL    C4112141   4.024   2.386   0.349 -0.3168  0.3152 -0.6055
   51MOL    O4212142   4.015   2.412   0.468  0.1136  0.1542 -0.2083
   51MOL    O4312143   4.100   2.465   0.266 -0.6465 -0.2955 -0.3584
   51MOL    H4412144   4.064   2.091   0.196 -0.4310  0.4600  0.1176
   51MOL    H4512145   4.164   2.220   0.224 -0.4935  3.1444  0.9712
   51MOL    H4612146   4.048   2.116   0.440  2.1693  3.4617  0.7733
   51MOL    H4712147   3.894   2.072   0.371  0.7836 -0.8432  0.5720
   51MOL    H4812148   3.912   2.193   0.495 -3.7183 -1.1733 -0.8621
   51MOL    H4912149   4.134   2.536   0.318  2.1999 -1.8508  0.0271
   51MOL    C5012150   3.811   2.281   0.227  0.1826  0.2406 -0.2441
   51MOL    C5112151   3.690   2.374   0.288  0.5917  0.4275  0.0899
   51MOL    C5212152   3.678   2.353   0.439  0.2666  0.5255  0.2248
   51MOL    C5312153   3.713   2.526   0.278  0.2194 -1.1901 -0.6869
   51MOL    O5412154   3.807   2.573   0.217  0.3666  0.0512 -0.3177
   51MOL    O5512155   3.624   2.602   0.351  1.3288  0.6479 -0.3387
   51MOL    H5612156   3.813   2.315   0.123 -1.1995 -0.4676 -0.5107
   51MOL    H5712157   3.768   2.181   0.233 -1.3192  0.9707  1.4350
   51MOL    H5812158   3.636   2.254   0.460  1.7283 -0.1159  0.1698
   51MOL    H5912159   3.601   2.416   0.483 -2.0418 -2.9533  1.3489
   51MOL    H6012160   3.773   2.374   0.488  0.5691  1.2958 -0.6886
   51MOL    H6112161   3.660   2.688   0.366  3.2037 -0.3082  0.7699
   51MOL    C6212162   3.554   2.340   0.224 -0.7570 -0.5386 -0.5768
   51MOL    C6312163   3.508   2.376   0.075 -0.0090  0.1333  0.3476
   51MOL    C6412164   3.561   2.512   0.025 -0.1470  0.2774  0.0931
   51MOL    C6512165   3.578   2.269   7.749 -0.5951 -0.3433 -0.0533
   51MOL    O6612166   3.633   2.159   0.007  0.3037 -0.3948 -0.3050
   51MOL    O6712167   3.556   2.296   7.620 -0.3527  0.1789 -0.3529
   51MOL    H6812168   3.545   2.235   0.252  0.2885 -0.5929 -0.4210
   51MOL    H6912169   3.492   2.401   0.290 -0.5293 -0.3670 -0.5177
   51MOL    H7012170   3.545   2.587   0.102 -1.8610  0.2276 -0.1918
   51MOL    H7112171   3.523   2.553   7.699 -1.5431  0.0105  0.5337
   51MOL    H7212172   3.669   2.508   0.010 -0.0440 -0.7484  1.0456
   51MOL    H7312173   3.479   2.349   7.607  0.0779  0.2523 -2.8609
   51MOL    C7412174   3.353   2.376   0.075 -0.3541 -0.1870 -0.2665
   51MOL    C7512175   3.262   2.251   0.034 -0.2188  0.1142 -0.5469
   51MOL    C7612176   3.123   2.289   0.080 -0.4749 -0.3382  0.4523
   51MOL    C7712177   3.250   2.241   7.644  0.8338 -0.2670  0.4776
   51MOL    O7812178   3.285   2.325   7.568 -0.0942 -0.3030 -0.5383
   51MOL    O7912179   3.182   2.132   7.598 -0.2267  0.1456 -0.5963
   51MOL    H8012180   3.317   2.416   0.170 -1.5832 -2.3468  0.2005
   51MOL    H8112181   3.332   2.456   0.004 -1.1362 -0.2251 -0.0811
   51MOL    H8212182   3.121   2.291   0.189 -0.9759  2.7311  0.4352
   51MOL    H8312183   3.046   2.225   0.038  0.8467 -0.9563 -1.0908
   51MOL    H8412184   3.089   2.390   0.057 -0.7086 -0.7617 -1.0878
   51MOL    H8512185   3.173   2.058   7.657  1.0738  0.6530  0.2655
   51MOL    C8612186   3.316   2.112   0.095  0.1368 -0.7703 -0.0530
   51MOL    C8712187   3.251   2.027   0.210 -0.2611  0.6005  0.4517
   51MOL    C8812188   3.255   2.111   0.344 -0.0924  0.3685 -0.5437
   51MOL    C8912189   3.110   1.981   0.171 -0.1424  0.9371 -0.0685
   51MOL    O9012190   3.020   1.967   0.254 -0.7975 -0.2241 -0.5325
   51MOL    O9112191   3.098   1.939   0.048 -0.0167  0.0326  0.6298
   51MOL    H9212192   3.321   2.039   0.015  4.6155 -1.2342  0.5143
   51MOL    H9312193   3.423   2.114   0.119 -0.0245 -0.9154  0.6857
   51MOL    H9412194   3.332   2.079   0.415  1.1730  1.1842 -1.5198
   51MOL    H9512195   3.157   2.117   0.390  0.7642  0.3368  1.3413
   51MOL    H9612196   3.277   2.217   0.333 -0.9003  0.6281  0.3196
   51MOL    H9712197   3.011   1.903   0.038 -0.2485  0.5728  0.6858
   51MOL    C9812198   3.338   1.905   0.223  0.4450  0.3290  0.4692
   51MOL    C9912199   3.320   1.778   0.320  0.0557 -0.6232  0.8534
   51MOL   C10012200   3.278   1.804   0.464 -0.4303  0.1371  0.3131
   51MOL   C10112201   3.210   1.686   0.253  0.3402 -0.9193  0.4551
   51MOL   O10212202   3.197   1.677   0.127  0.7465  0.2632 -0.0760
   51MOL   O10312203   3.158   1.599   0.340 -0.0915  0.2819 -0.0670
   51MOL   H10412204   3.351   1.869   0.121 -0.2628  1.7104 -0.1305
   51MOL   H10512205   3.441   1.931   0.244 -0.1429  2.9802  0.2145
   51MOL   H10612206   3.178   1.847   0.474 -0.4120  0.0066  1.0889
   51MOL   H10712207   3.331   1.874   0.527 -1.0740  2.1497 -1.3176
   51MOL   H10812208   3.278   1.712   0.522  0.4837 -0.3443 -0.4448
   51MOL   H10912209   3.111   1.534   0.289  0.6796  0.8135 -1.4618
   51MOL   C11012210   3.447   1.697   0.326  0.6840 -0.4479  0.4364
   51MOL   C11112211   3.591   1.752   0.361 -0.2736 -0.0349 -0.2748
   51MOL   C11212212   3.668   1.794   0.232  0.2930 -0.0824  1.1884
   51MOL   C11312213   3.600   1.875   0.451  0.6720  0.2606 -0.5549
   51MOL   O11412214   3.624   1.988   0.410  0.3593  0.0100  0.0996
   51MOL   O11512215   3.586   1.847   0.587  0.1117  0.5931  0.4235
   51MOL   H11612216   3.429   1.617   0.398 -0.6899  0.3704  1.0066
   51MOL   H11712217   3.456   1.652   0.227 -0.7988  1.3218 -0.5202
   51MOL   H11812218   3.759   1.852   0.248 -0.5522  1.9961 -1.1774
   51MOL   H11912219   3.602   1.841   0.159 -0.9833  0.9329  2.9378
   51MOL   H12012220   3.705   1.699   0.192  1.0096  0.6264  0.1365
   51MOL   H12112221   3.611   1.914   0.649 -1.4368  2.0356 -0.4807
   51MOL   C12212222   3.667   1.620   0.418 -0.5519  0.1229  0.3090
   51MOL   C12312223   3.823   1.617   0.461  0.0448 -0.1086  0.6228
   51MOL   C12412224   3.840   1.479   0.535 -0.1244  0.4241 -0.2216
   51MOL   C12512225   3.914   1.617   0.335  0.5794 -0.5623  0.5227
   51MOL   O12612226   3.975   1.713   0.289  0.9398 -0.0354 -0.0123
   51MOL   O12712227   3.906   1.505   0.268 -0.6919  0.0139  0.4737
   51MOL   H12812228   3.617   1.592   0.510  1.7022 -0.9623  1.2402
   51MOL   H12912229   3.650   1.532   0.357  0.1517  0.3438 -0.2136
   51MOL   H13012230   3.826   1.489   0.643 -2.1097 -3.0174 -0.0842
   51MOL   H13112231   3.931   1.422   0.515 -0.5837 -1.4556  2.7170
   51MOL   H13212232   3.772   1.400   0.505  2.2986 -1.5656 -0.7008
   51MOL   H13312233   3.945   1.520   0.183 -0.2795 -1.7551  0.3262
   51MOL   C13412234   3.857   1.737   0.560 -0.0088  0.7723 -0.1563
   51MOL   C13512235   3.998   1.762   0.633  0.5817  0.3608  0.2077
   51MOL   C13612236   4.118   1.756   0.543 -0.4021  0.1420  0.5649
   51MOL   C13712237   3.988   1.907   0.688 -0.1149 -0.3490  1.2938
   51MOL   O13812238   3.883   1.954   0.730 -0.0368 -0.2215 -0.4019
   51MOL   O13912239   4.106   1.979   0.696 -0.1649  0.0138  0.3856
   51MOL   H14012240   3.830   1.830   0.509 -0.3149  0.0749 -1.2842
   51MOL   H14112241   3.781   1.726   0.638 -1.3395 -0.0718 -1.5395
   51MOL   H14212242   4.135   1.659   0.496  3.8556  0.6847  0.8389
   51MOL   H14312243   4.217   1.779   0.580 -0.0614 -1.9255  1.0057
   51MOL   H14412244   4.103   1.828   0.462  1.1635  0.5781  0.6545
   51MOL   H14512245   4.088   2.067   0.724 -0.9977  0.1643 -0.6105
   51MOL   C14612246   4.022   1.656   0.747  0.6224  0.3420 -0.6128
   51MOL   C14712247   4.130   1.673   0.860 -0.1849  0.3497 -0.2383
   51MOL   C14812248   4.266   1.715   0.807  0.0309  0.1397  0.4777
   51MOL   C14912249   4.082   1.773   0.971  0.0631 -0.3608  0.2226
   51MOL   O15012250   3.968   1.792   0.996  0.5595  0.6720 -0.2914
   51MOL   O15112251   4.190   1.829   1.042  0.8415  0.3077 -0.1072
   51MOL   H15212252   3.925   1.634   0.793  1.1245  0.1884  0.4011
   51MOL   H15312253   4.045   1.567   0.688  1.1613  0.9310 -1.2984
   51MOL   H15412254   4.262   1.822   0.784 -1.1477  0.8189  3.5808
   51MOL   H15512255   4.298   1.660   0.719  1.1933  1.7524 -0.1301
   51MOL   H15612256   4.342   1.688   0.881 -2.7880  1.2832  3.9164
   51MOL   H15712257   4.162   1.858   1.127 -1.2899 -2.3098  0.1369
   51MOL   C15812258   4.156   1.538   0.945  0.7121  0.2574  0.3941
   51MOL   C15912259   4.054   1.426   0.988 -0.1382 -1.3407  0.5108
   51MOL   C16012260   4.149   1.340   1.086 -0.3337  1.0389 -0.1614
   51MOL   C16112261   3.937   1.484   1.074 -0.3139  0.0511  1.3618
   51MOL   O16212262   3.825   1.507   1.034 -0.2320 -0.2296 -0.3074
   51MOL   O16312263   3.975   1.531   1.200  0.0567  0.0428  0.1565
   51MOL   H16412264   4.230   1.477   0.893 -0.5275 -0.3696 -0.6765
   51MOL   H16512265   4.212   1.573   1.031 -2.2725  1.2809  1.9846
   51MOL   H16612266   4.223   1.391   1.147 -0.6490  0.2685  0.8777
   51MOL   H16712267   4.205   1.286   1.010 -0.1863 -0.1320  0.7586
   51MOL   H16812268   4.091   1.279   1.155  0.5124  0.0641 -0.3045
   51MOL   H16912269   3.906   1.582   1.238 -1.4443 -0.3088 -1.9857
   51MOL   C17012270   4.007   1.342   0.862  0.5231 -0.2444  0.4493
   51MOL   C17112271   3.946   1.197   0.853  0.4996  1.0230 -0.5595
   51MOL   C17212272   4.060   1.100   0.895 -0.7664 -0.7127 -0.6100
   51MOL   C17312273   3.828   1.185   0.950  0.2242 -0.5672 -0.2763
   51MOL   O17412274   3.827   1.121   1.057  0.0036  0.2192  0.4179
   51MOL   O17512275   3.718   1.255   0.913  0.1904 -0.2562 -0.2343
   51MOL   H17612276   3.929   1.399   0.812 -1.0644 -2.5466  0.2328
   51MOL   H17712277   4.086   1.348   0.788 -1.0763 -1.8192 -1.4515
   51MOL   H17812278   4.028   0.996   0.892 -0.3679 -0.9084  1.6642
   51MOL   H17912279   4.081   1.110   1.001  3.6305 -1.0110 -1.3466
   51MOL   H18012280   4.158   1.101   0.846 -0.9006 -0.0607 -0.8770
   51MOL   H18112281   3.648   1.248   0.975  0.2367 -2.3967 -0.3758
   51MOL   C18212282   3.907   1.166   0.707  0.5677  0.1519 -0.6548
   51MOL   C18312283   3.865   1.024   0.645  0.0859  0.4566 -0.5307
   51MOL   C18412284   3.807   1.059   0.503  0.3304 -0.1526  0.0804
   51MOL   C18512285   3.990   0.935   0.625  0.7092 -0.5756  0.2115
   51MOL   O18612286   4.099   0.973   0.649  0.0785 -0.1851 -0.4810
   51MOL   O18712287   3.962   0.815   0.569 -0.1016  0.8935  0.3603
   51MOL   H18812288   3.821   1.228   0.678 -0.5153 -0.6608  0.7365
   51MOL   H18912289   3.988   1.209   0.648 -0.2173  0.8984 -1.2133
   51MOL   H19012290   3.777   0.966   0.455 -1.6862  0.9148 -0.8190
   51MOL   H19112291   3.878   1.102   0.433  1.4218 -0.9126  0.7209
   51MOL   H19212292   3.723   1.130   0.502  1.4522  1.1930 -2.7653
   51MOL   H19312293   4.038   0.759   0.566 -0.4526  0.5195 -2.7714
   51MOL   C19412294   3.766   0.944   0.741  0.1860  0.6201  1.1785
   51MOL   C19512295   3.634   0.863   0.708 -0.5227  0.2859  0.1601
   51MOL   C19612296   3.555   0.837   0.850  0.2335  0.2380 -0.5108
   51MOL   C19712297   3.541   0.941   0.616 -0.8252  0.0183  0.6794
   51MOL   O19812298   3.529   0.922   0.498 -0.3634 -0.2060 -0.1959
   51MOL   O19912299   3.480   1.040   0.683  0.2941 -0.2161 -0.1404
   51MOL   H20012300   3.821   0.870   0.799 -1.8702 -0.5551  1.6815
   51MOL   H20112301   3.723   1.016   0.811 -1.2579  0.2195  0.7325
   51MOL   H20212302   3.447   0.827   0.835  0.0934 -2.4471  1.8804
   51MOL   H20312303   3.567   0.918   0.921 -2.1774 -0.5700  0.8841
   51MOL   H20412304   3.599   0.756   0.907 -0.3639  0.5084  0.3505
   51MOL   H20512305   3.433   1.103   0.630 -0.7495  1.1275  2.2787
   51MOL   C20612306   3.674   0.727   0.640  0.0310 -0.5244 -0.3735
   51MOL   C20712307   3.586   0.592   0.621  0.4129  0.4352 -0.2990
   51MOL   C20812308   3.684   0.500   0.542  0.1278  0.0627 -0.1013
   51MOL   C20912309   3.552   0.522   0.758 -0.3790 -0.1308 -0.1087
   51MOL   O21012310   3.628   0.438   0.808  0.1894 -0.4643  0.0866
   51MOL   O21112311   3.440   0.560   0.820 -0.1481 -0.3805  0.6752
   51MOL   H21212312   3.722   0.744   0.544 -0.1948 -1.2827 -0.6288
   51MOL   H21312313   3.750   0.693   0.711  0.2946  0.9405  0.0714
   51MOL   H21412314   3.773   0.472   0.597  0.1832 -1.2326 -0.8342
   51MOL   H21512315   3.725   0.545   0.451  0.6487 -0.2743 -0.0360
   51MOL   H21612316   3.631   0.408   0.515 -0.5061  1.2530 -3.1492
   51MOL   H21712317   3.437   0.517   0.904 -0.2789  0.3366  1.0454
   51MOL   C21812318   3.455   0.629   0.538 -0.3146  0.4445 -0.4967
   51MOL   C21912319   3.359   0.521   0.465  0.8052 -0.0951  0.1808
   51MOL   C22012320   3.233   0.599   0.422  0.5431 -0.3909  0.6390
   51MOL   C22112321   3.432   0.468   0.345 -0.0095 -0.0041  0.0798
   51MOL   O22212322   3.481   0.354   0.337 -0.0662 -0.1997 -0.1330
   51MOL   O22312323   3.461   0.559   0.248  0.3388  0.1446 -0.0398
   51MOL   H22412324   3.381   0.688   0.592  0.0423 -0.6944  1.2980
   51MOL   H22512325   3.489   0.686   0.452  2.3527 -1.2599 -0.6109
   51MOL   H22612326   3.162   0.614   0.503  1.9730  0.3123  1.7934
   51MOL   H22712327   3.176   0.556   0.340  1.2119  1.1384 -0.6484
   51MOL   H22812328   3.258   0.695   0.378 -0.5966 -1.6194 -2.8402
   51MOL   H22912329   3.529   0.533   0.188 -0.7458 -0.6549 -0.9425
   51MOL   C23012330   3.313   0.406   0.557 -1.4188 -0.9415 -0.5108
   51MOL   C23112331   3.211   0.310   0.494  0.3118  0.0754  0.3303
   51MOL   C23212332   3.234   0.164   0.536 -0.0285  0.1848 -0.4392
   51MOL   C23312333   3.068   0.357   0.528 -0.0293 -0.2022  0.7381
   51MOL   O23412334   3.035   0.390   0.636 -0.3165 -0.6123  0.4727
   51MOL   O23512335   2.980   0.345   0.417  0.6650 -0.4755  0.1565
   51MOL   H23612336   3.404   0.357   0.591 -0.1014  2.4508  1.0408
   51MOL   H23712337   3.275   0.442   0.653 -2.2098 -0.8455 -0.8561
   51MOL   H23812338   3.318   0.108   0.494 -0.2649 -1.8738  1.6834
   51MOL   H23912339   3.152   0.095   0.513  0.3008  0.3407 -2.1565
   51MOL   H24012340   3.247   0.161   0.644 -2.9087 -0.1277 -0.0587
   51MOL   H24112341   2.894   0.374   0.443  1.0722  0.9552 -0.0654
   51MOL   H24212342   3.209   0.325   0.386 -0.9381 -1.0238  0.1774
   52MOL     C112343   2.125   4.375   5.613  0.0624  0.8014  0.2102
   52MOL     C212344   2.060   4.449   5.495  0.0219 -0.2991 -0.4238
   52MOL     C312345   2.159   4.420   5.377 -0.8281 -0.3175 -0.1245
   52MOL     C412346   1.932   4.374   5.444  0.3483 -0.4260 -0.8119
   52MOL     O512347   1.907   4.347   5.328  0.1033 -0.6076 -0.1358
   52MOL     O612348   1.859   4.323   5.553 -0.2140 -0.6074 -0.6114
   52MOL     H712349   2.066   4.356   5.703  0.7482 -0.2476  0.4491
   52MOL     H812350   2.202   4.432   5.664  0.0640  1.7464 -0.8413
   52MOL     H912351   2.167   4.317   5.343 -0.3251  0.0076 -1.0037
   52MOL    H1012352   2.260   4.452   5.404  0.0465  0.4705 -3.9574
   52MOL    H1112353   2.129   4.485   5.295  1.2839 -0.0121 -0.7076
   52MOL    H1212354   1.792   4.265   5.522 -0.7945  0.4563 -1.3513
   52MOL    H1312355   2.177   4.283   5.586 -0.8613 -0.2767  1.9652
   52MOL    C1412356   2.052   4.611   5.508  0.2761  1.0612  0.1742
   52MOL    C1512357   1.942   4.664   5.600  0.6977 -0.0487 -0.0674
   52MOL    C1612358   1.798   4.655   5.543  0.3343 -0.3533 -0.3798
   52MOL    C1712359   1.955   4.594   5.744  0.2380 -0.3654 -1.0794
   52MOL    O1812360   1.865   4.526   5.794 -0.0955  0.6832 -0.0094
   52MOL    O1912361   2.058   4.633   5.826  0.0182  0.2356  0.2937
   52MOL    H2012362   2.152   4.635   5.543 -0.2623  1.7576  1.2467
   52MOL    H2112363   2.041   4.655   5.409  0.3053 -0.0390 -0.3289
   52MOL    H2212364   1.729   4.696   5.617  0.5880  2.4149 -1.6169
   52MOL    H2312365   1.760   4.554   5.526  0.0191  0.1321 -2.8112
   52MOL    H2412366   1.783   4.718   5.456  1.9787 -0.7931 -1.0052
   52MOL    H2512367   2.038   4.620   5.917  0.9343  4.0182  1.1093
   52MOL    C2612368   1.984   4.817   5.607  0.7011  0.3019 -0.0811
   52MOL    C2712369   1.899   4.930   5.688  0.5558 -0.2945 -0.1967
   52MOL    C2812370   1.767   4.957   5.604  0.4968 -0.4509  0.0142
   52MOL    C2912371   1.887   4.892   5.836 -0.2824  0.0675 -0.1584
   52MOL    O3012372   1.972   4.914   5.919 -0.7694 -0.0723 -0.0459
   52MOL    O3112373   1.772   4.834   5.870 -0.0819 -0.1686  0.0154
   52MOL    H3212374   2.082   4.817   5.653  0.5311 -1.4295  0.3142
   52MOL    H3312375   1.988   4.852   5.504 -1.3018 -1.5035 -0.8236
   52MOL    H3412376   1.683   4.903   5.646 -1.7933  3.7424  1.1075
   52MOL    H3512377   1.763   4.924   5.500  2.0019 -0.9058  0.0912
   52MOL    H3612378   1.730   5.059   5.607 -5.2611 -2.3937  0.4027
   52MOL    H3712379   1.784   4.800   5.958  2.2318 -2.0210 -0.9466
   52MOL    C3812380   1.991   5.058   5.682 -0.0511 -0.7312  0.3306
   52MOL    C3912381   1.950   5.206   5.731 -0.4277  0.5815  0.2203
   52MOL    C4012382   1.853   5.204   5.852 -0.0675 -1.1350 -0.2134
   52MOL    C4112383   2.075   5.278   5.790 -0.4793 -0.4012 -0.1252
   52MOL    O4212384   2.108   5.391   5.759  0.4334 -0.3763  0.4424
   52MOL    O4312385   2.142   5.203   5.882  0.0088  0.3444  0.6852
   52MOL    H4412386   2.082   5.026   5.733 -0.3765 -0.9602  0.7722
   52MOL    H4512387   2.029   5.065   5.580 -1.2718 -1.1830 -0.1718
   52MOL    H4612388   1.904   5.183   5.946  0.4574 -0.2369 -0.2974
   52MOL    H4712389   1.758   5.154   5.835 -0.0379 -1.5096  0.6856
   52MOL    H4812390   1.831   5.308   5.874  0.2537 -1.1081 -0.0172
   52MOL    H4912391   2.098   5.121   5.899 -0.5189  0.4232 -0.2420
   52MOL    C5012392   1.893   5.292   5.615  0.1573 -0.4931  0.0815
   52MOL    C5112393   1.938   5.317   5.459  0.4050 -0.8424 -0.5178
   52MOL    C5212394   1.871   5.452   5.412  0.0216  0.5254  0.5102
   52MOL    C5312395   2.092   5.342   5.441 -0.1377  0.2163 -0.1002
   52MOL    O5412396   2.140   5.425   5.362 -0.3642 -0.3617  0.0155
   52MOL    O5512397   2.177   5.254   5.502 -0.6551 -0.8884 -0.4633
   52MOL    H5612398   1.788   5.265   5.600  0.0458 -0.2533  0.4266
   52MOL    H5712399   1.883   5.390   5.661  0.0274 -0.6402  0.3695
   52MOL    H5812400   1.768   5.423   5.392  0.6232  0.3097 -2.5930
   52MOL    H5912401   1.912   5.485   5.317  1.1188 -0.3600  0.6583
   52MOL    H6012402   1.880   5.529   5.488 -1.6780 -0.7179  1.9987
   52MOL    H6112403   2.259   5.293   5.475 -0.2838 -1.5584 -0.3162
   52MOL    C6212404   1.894   5.194   5.371 -0.1669  0.0317 -0.6136
   52MOL    C6312405   1.862   5.181   5.220 -0.0695  0.5056 -0.4156
   52MOL    C6412406   1.743   5.271   5.181  0.0396  0.0643  0.1745
   52MOL    C6512407   1.987   5.219   5.145  0.0530  0.2304 -0.1266
   52MOL    O6612408   2.001   5.305   5.062  0.3326 -0.1521  0.6179
   52MOL    O6712409   2.098   5.144   5.186 -0.1847  0.0262 -0.2262
   52MOL    H6812410   1.962   5.111   5.385  2.1830  2.0742  0.5089
   52MOL    H6912411   1.802   5.159   5.419  1.0512 -0.2572  1.5922
   52MOL    H7012412   1.715   5.260   5.076  0.0096 -1.7209  0.3576
   52MOL    H7112413   1.764   5.378   5.184  1.2224 -0.1576  0.3784
   52MOL    H7212414   1.652   5.250   5.237 -0.2347  0.2918 -0.1839
   52MOL    H7312415   2.170   5.175   5.133 -1.0585  0.7170 -1.0466
   52MOL    C7412416   1.829   5.032   5.206  0.0600 -0.0581 -0.0805
   52MOL    C7512417   1.831   4.947   5.074  0.2297 -0.7279 -0.6931
   52MOL    C7612418   1.771   5.037   4.955  0.6448  0.0288  0.0364
   52MOL    C7712419   1.976   4.907   5.027  0.2504  0.2700 -0.3380
   52MOL    O7812420   2.025   4.921   4.913  0.2723  0.0851  0.8798
   52MOL    O7912421   2.045   4.857   5.133 -0.0377  0.4886 -0.1267
   52MOL    H8012422   1.885   4.967   5.274  0.0547 -0.4511 -0.4486
   52MOL    H8112423   1.724   5.032   5.236  0.0126  2.7281 -0.1072
   52MOL    H8212424   1.840   5.117   4.929  1.6524 -0.4066  1.3064
   52MOL    H8312425   1.668   5.068   4.969  1.6463  3.3947  0.2630
   52MOL    H8412426   1.760   4.977   4.864  2.4175 -0.0022 -0.1862
   52MOL    H8512427   2.127   4.819   5.103 -0.1398  0.9755 -1.0552
   52MOL    C8612428   1.731   4.832   5.109 -0.7503 -0.1623 -0.2528
   52MOL    C8712429   1.697   4.707   5.025  0.4703 -0.9288 -0.1404
   52MOL    C8812430   1.682   4.740   4.880  0.1881 -0.3977  0.1302
   52MOL    C8912431   1.795   4.595   5.046  0.3248 -0.5507  0.0090
   52MOL    O9012432   1.903   4.610   5.102 -0.0522 -0.0031 -0.2775
   52MOL    O9112433   1.752   4.480   4.998 -0.2549  0.5851 -0.4372
   52MOL    H9212434   1.739   4.803   5.214  0.9719 -0.5492 -0.4763
   52MOL    H9312435   1.638   4.888   5.110  0.6196  2.1466  0.1712
   52MOL    H9412436   1.589   4.791   4.857  0.1250 -0.8985 -0.7054
   52MOL    H9512437   1.662   4.649   4.823 -1.1238 -0.7270  1.0840
   52MOL    H9612438   1.772   4.782   4.834 -0.2437  0.2747 -0.1018
   52MOL    H9712439   1.823   4.420   5.013 -0.8620 -0.5137 -1.8214
   52MOL    C9812440   1.549   4.653   5.059 -0.3726 -0.1904 -0.3320
   52MOL    C9912441   1.499   4.598   5.207  0.1663 -0.3790 -0.2743
   52MOL   C10012442   1.609   4.506   5.273  0.4190  0.0438  0.0012
   52MOL   C10112443   1.466   4.716   5.308 -0.1837  0.4454  0.1014
   52MOL   O10212444   1.437   4.827   5.271 -0.0937 -0.1697  0.0368
   52MOL   O10312445   1.453   4.665   5.433 -0.4326  0.4677 -0.1668
   52MOL   H10412446   1.478   4.734   5.043 -0.7375 -0.5561 -0.5731
   52MOL   H10512447   1.522   4.576   4.987  0.1347  0.7966 -1.6017
   52MOL   H10612448   1.647   4.429   5.206  3.6751 -0.6964  2.5533
   52MOL   H10712449   1.573   4.450   5.359 -0.7021  0.4271 -0.2181
   52MOL   H10812450   1.697   4.558   5.311  0.1086 -0.9329  2.1227
   52MOL   H10912451   1.422   4.730   5.493  2.2466 -0.2926  2.1551
   52MOL   C11012452   1.379   4.502   5.195 -0.2403  0.2294 -0.0409
   52MOL   C11112453   1.237   4.545   5.140 -0.1084 -0.0413 -0.2826
   52MOL   C11212454   1.145   4.628   5.247 -0.1202 -0.3386  0.2813
   52MOL   C11312455   1.241   4.629   5.007 -1.0515 -0.0623  0.5742
   52MOL   O11412456   1.283   4.590   4.903  0.1402 -0.1059 -0.2447
   52MOL   O11512457   1.193   4.754   5.015  0.2677  0.1919  0.2799
   52MOL   H11612458   1.407   4.418   5.131 -1.1168 -2.1689  2.6568
   52MOL   H11712459   1.369   4.461   5.295  1.1488  1.6280  0.6775
   52MOL   H11812460   1.195   4.723   5.264 -1.3730  0.5149 -0.6802
   52MOL   H11912461   1.140   4.583   5.346 -0.8047 -0.3400  0.2500
   52MOL   H12012462   1.045   4.658   5.217 -0.3086 -0.3392  0.8999
   52MOL   H12112463   1.197   4.791   4.928  0.2027 -0.0212  0.1870
   52MOL   C12212464   1.154   4.410   5.103 -0.1741 -0.8839 -0.0109
   52MOL   C12312465   1.091   4.304   5.197  0.4761 -0.6657  1.1240
   52MOL   C12412466   1.195   4.265   5.301  0.2674  0.0825  0.1505
   52MOL   C12512467   0.969   4.366   5.271 -0.3225 -0.2392 -0.6946
   52MOL   O12612468   0.940   4.341   5.388  0.6617  0.3795 -0.2384
   52MOL   O12712469   0.881   4.429   5.190 -0.1975  0.0695 -0.3834
   52MOL   H12812470   1.066   4.443   5.047  0.7211  1.5403 -0.0569
   52MOL   H12912471   1.199   4.364   5.015  0.3755 -1.8807  0.7777
   52MOL   H13012472   1.215   4.339   5.378 -0.0219  0.4909 -0.1593
   52MOL   H13112473   1.286   4.228   5.254 -1.0115 -1.1696 -1.4029
   52MOL   H13212474   1.167   4.175   5.355 -0.1736 -0.1004 -0.3790
   52MOL   H13312475   0.799   4.450   5.232 -0.9812 -2.1479 -0.7576
   52MOL   C13412476   1.054   4.179   5.105  0.3682  0.4712  0.5863
   52MOL   C13512477   0.946   4.069   5.147  0.7667  0.5928  0.0742
   52MOL   C13612478   0.985   4.001   5.287 -0.3273  0.1855  0.4736
   52MOL   C13712479   0.804   4.125   5.164 -0.5523 -0.0003 -0.3048
   52MOL   O13812480   0.733   4.109   5.263  0.3074  0.1026 -0.1178
   52MOL   O13912481   0.761   4.192   5.052 -0.2517 -0.4246  0.1461
   52MOL   H14012482   1.055   4.205   4.999 -1.2055 -0.3441  0.3676
   52MOL   H14112483   1.141   4.114   5.110  0.1009 -0.0092 -1.0014
   52MOL   H14212484   0.921   3.916   5.313  2.2807 -2.1602 -0.5085
   52MOL   H14312485   0.970   4.061   5.376 -2.9180 -3.8641  2.9596
   52MOL   H14412486   1.083   3.955   5.290  0.1302  1.1801  0.8865
   52MOL   H14512487   0.832   4.181   4.991 -1.3593  0.5250 -1.3247
   52MOL   C14612488   0.936   3.959   5.028  0.6239  0.1995  0.2709
   52MOL   C14712489   1.034   3.834   5.009  0.4552 -0.3904  0.3051
   52MOL   C14812490   1.177   3.872   4.998  0.2466 -0.1353 -0.4981
   52MOL   C14912491   1.009   3.726   5.117  0.2542  0.4124  0.4759
   52MOL   O15012492   1.089   3.670   5.184 -0.1730 -0.6988  0.6436
   52MOL   O15112493   0.876   3.690   5.120 -0.4310  0.2398 -1.0274
   52MOL   H15212494   0.832   3.926   5.020  0.7421 -0.0401 -0.3158
   52MOL   H15312495   0.956   4.020   4.941 -0.0877  0.8751  0.5767
   52MOL   H15412496   1.197   3.959   4.936 -0.3682 -0.2720 -0.8939
   52MOL   H15512497   1.237   3.786   4.968  1.6506  1.5507 -2.6363
   52MOL   H15612498   1.205   3.892   5.101 -1.1391  1.3068 -0.3958
   52MOL   H15712499   0.866   3.610   5.169  1.9086  0.4159 -0.2109
   52MOL   C15812500   0.980   3.758   4.874  0.0889 -0.0851 -0.6277
   52MOL   C15912501   1.018   3.790   4.723  0.1582 -0.4542  0.1912
   52MOL   C16012502   0.927   3.694   4.646 -0.3235  0.3766 -0.8752
   52MOL   C16112503   0.973   3.929   4.682 -0.2047  0.3260 -0.0612
   52MOL   O16212504   0.875   3.954   4.609 -0.3786  0.0454 -0.3828
   52MOL   O16312505   1.052   4.024   4.740 -0.3746  0.2454 -0.0401
   52MOL   H16412506   1.003   3.652   4.882 -0.5560 -0.1875 -0.0574
   52MOL   H16512507   0.871   3.758   4.883 -0.1074 -1.2149 -2.6923
   52MOL   H16612508   0.965   3.592   4.636 -0.1242  0.6082 -2.6292
   52MOL   H16712509   0.906   3.714   4.541  2.5827  1.7730 -1.2246
   52MOL   H16812510   0.832   3.676   4.697  0.8681  0.3905  1.3931
   52MOL   H16912511   1.034   4.109   4.702 -0.6107 -0.0145 -0.5093
   52MOL   C17012512   1.169   3.754   4.687 -0.1100  0.2150  0.4324
   52MOL   C17112513   1.224   3.753   4.540 -0.0698 -0.5516  0.0789
   52MOL   C17212514   1.162   3.638   4.456 -0.6113  0.0707  0.5499
   52MOL   C17312515   1.211   3.886   4.461  0.4093 -0.3413 -0.0998
   52MOL   O17412516   1.180   3.887   4.345  0.1469 -0.2906 -0.5036
   52MOL   O17512517   1.239   4.002   4.529 -0.7045 -0.0373 -0.1302
   52MOL   H17612518   1.242   3.806   4.749  0.2463  0.2277 -0.0042
   52MOL   H17712519   1.169   3.651   4.721 -0.3164 -0.0829 -0.4673
   52MOL   H17812520   1.150   3.542   4.507  0.9325 -1.7108 -2.3145
   52MOL   H17912521   1.220   3.603   4.371 -0.6688  1.1127  0.0867
   52MOL   H18012522   1.068   3.667   4.411 -0.9925 -0.5196  0.9519
   52MOL   H18112523   1.227   4.077   4.473 -0.2707  0.3657  0.3145
   52MOL   C18212524   1.387   3.741   4.552 -0.2180  0.1000  0.3512
   52MOL   C18312525   1.473   3.623   4.620  0.3077  0.0277  0.4129
   52MOL   C18412526   1.613   3.682   4.637  0.0025  0.2187  0.3651
   52MOL   C18512527   1.431   3.593   4.766 -0.3240  0.1497  0.3439
   52MOL   O18612528   1.461   3.666   4.861  0.0151  0.0701  0.7945
   52MOL   O18712529   1.343   3.494   4.791 -0.6337  0.1628  0.4369
   52MOL   H18812530   1.424   3.750   4.450  0.4032 -0.4666  0.5224
   52MOL   H18912531   1.413   3.833   4.603  0.7832 -0.4812  0.8926
   52MOL   H19012532   1.673   3.680   4.546 -0.7004  0.5549 -0.1102
   52MOL   H19112533   1.678   3.627   4.705 -0.5859 -2.1696 -0.9330
   52MOL   H19212534   1.613   3.786   4.669  1.2903  0.0919  0.8061
   52MOL   H19312535   1.323   3.505   4.882 -0.3280 -0.5130  0.5864
   52MOL   C19412536   1.465   3.506   4.506 -0.7895 -0.7878 -0.0036
   52MOL   C19512537   1.510   3.355   4.534 -0.3526 -0.2443  0.9171
   52MOL   C19612538   1.625   3.348   4.642  0.1019  0.4660  0.0015
   52MOL   C19712539   1.396   3.271   4.585  0.2012  0.2572 -0.4880
   52MOL   O19812540   1.280   3.308   4.577 -0.0389 -0.2246  0.2261
   52MOL   O19912541   1.429   3.151   4.635 -0.3337 -0.0049 -0.3140
   52MOL   H20012542   1.364   3.505   4.465 -0.1317  1.8868 -1.8564
   52MOL   H20112543   1.529   3.546   4.427 -1.0642 -1.0903 -0.3797
   52MOL   H20212544   1.712   3.411   4.627  1.4929 -1.4826 -0.4246
   52MOL   H20312545   1.676   3.252   4.630 -1.5840 -0.3416 -0.8980
   52MOL   H20412546   1.577   3.361   4.739 -0.1299  1.0200 -0.1878
   52MOL   H20512547   1.522   3.139   4.636 -0.1489  1.3664  1.5255
   52MOL   C20612548   1.576   3.287   4.408 -0.2647  0.4533 -0.0075
   52MOL   C20712549   1.517   3.285   4.263  0.2802  0.0947 -1.0955
   52MOL   C20812550   1.366   3.259   4.254 -0.3311  0.3403  0.3676
   52MOL   C20912551   1.542   3.420   4.195  0.0450  0.0745 -0.1375
   52MOL   O21012552   1.452   3.505   4.182  0.1037  0.1476  0.3464
   52MOL   O21112553   1.667   3.449   4.187 -0.0986  0.3491  0.1544
   52MOL   H21212554   1.677   3.328   4.405  0.0750 -0.0337  3.2610
   52MOL   H21312555   1.598   3.183   4.433 -1.4789  0.6907  2.1031
   52MOL   H21412556   1.321   3.291   4.160 -0.4996 -1.5384 -0.1998
   52MOL   H21512557   1.312   3.313   4.333  0.3613 -0.4554  1.4058
   52MOL   H21612558   1.350   3.153   4.275 -1.0579  0.1470 -1.1410
   52MOL   H21712559   1.652   3.541   4.172  0.4750  1.0926  3.6030
   52MOL   C21812560   1.600   3.171   4.191 -0.4420 -0.3229  0.1075
   52MOL   C21912561   1.589   3.159   4.028  0.7195  0.2044 -0.5251
   52MOL   C22012562   1.453   3.121   3.984  1.0873  0.2146 -0.9362
   52MOL   C22112563   1.663   3.273   3.942  0.3106 -0.0826 -0.7544
   52MOL   O22212564   1.779   3.303   3.951  0.4714 -0.7462 -0.0908
   52MOL   O22312565   1.574   3.325   3.850  0.3963 -0.0926 -0.2085
   52MOL   H22412566   1.706   3.175   4.214  0.0102  0.3824 -1.9917
   52MOL   H22512567   1.565   3.078   4.235 -1.5604 -0.4948 -1.0975
   52MOL   H22612568   1.382   3.203   3.993  0.2127 -0.6034 -0.0846
   52MOL   H22712569   1.415   3.044   4.053  0.1125  0.3537 -1.3071
   52MOL   H22812570   1.433   3.077   3.886  2.2074  2.4270 -2.1789
   52MOL   H22912571   1.623   3.382   3.792  0.4933  0.0763  0.0341
   52MOL   C23012572   1.685   3.033   3.999 -0.7610 -1.2064 -0.3758
   52MOL   C23112573   1.692   2.986   3.854  0.1018 -0.6690  0.4379
   52MOL   C23212574   1.833   2.993   3.789  0.2962  0.3288  0.6969
   52MOL   C23312575   1.621   2.847   3.828  0.0597 -1.3506  0.0998
   52MOL   O23412576   1.523   2.832   3.759 -0.5325 -0.2655  0.4539
   52MOL   O23512577   1.689   2.746   3.898 -0.6661  0.1052  0.1995
   52MOL   H23612578   1.785   3.053   4.038 -2.0590 -2.4634  3.9380
   52MOL   H23712579   1.658   2.950   4.064  2.5897 -1.8783  0.2511
   52MOL   H23812580   1.828   2.983   3.680  1.4075 -0.4052  0.7013
   52MOL   H23912581   1.895   2.915   3.834  1.3311 -0.3877 -1.8869
   52MOL   H24012582   1.877   3.093   3.792  0.5833  0.2688 -1.0825
   52MOL   H24112583   1.674   2.656   3.875  1.3207 -1.1769  3.5213
   52MOL   H24212584   1.634   3.056   3.794  3.5610  1.2261 -0.8423
   53MOL     C112585   2.873   5.264   7.392  0.3121  0.4198 -0.1074
   53MOL     C212586   2.848   5.422   7.383 -0.4914 -0.8718 -0.4496
   53MOL     C312587   2.905   5.483   7.520  0.0677  0.0466 -0.4079
   53MOL     C412588   2.939   5.478   7.273  0.1792 -0.3337  0.4474
   53MOL     O512589   3.023   5.567   7.282  0.2387 -0.2788  0.3589
   53MOL     O612590   2.909   5.419   7.153 -0.0844 -0.6832 -0.3266
   53MOL     H712591   2.978   5.238   7.385 -0.0154 -1.1483  0.6783
   53MOL     H812592   2.827   5.217   7.305  1.7609 -1.5641  0.1696
   53MOL     H912593   3.008   5.452   7.537 -0.1420 -2.5789 -3.5619
   53MOL    H1012594   2.846   5.442   7.602  1.3181  0.8077  0.9175
   53MOL    H1112595   2.892   5.591   7.527  1.2959  0.2073 -0.4056
   53MOL    H1212596   2.951   5.469   7.085 -0.5110 -1.7559 -1.4086
   53MOL    H1312597   2.823   5.222   7.480 -1.8360 -0.4432 -1.6908
   53MOL    C1412598   2.694   5.447   7.375 -0.4594 -0.0205 -0.5321
   53MOL    C1512599   2.624   5.580   7.346  0.4577 -0.2121 -0.6352
   53MOL    C1612600   2.485   5.568   7.414 -0.2930  0.5979 -0.9056
   53MOL    C1712601   2.704   5.703   7.400 -0.4922  0.3575 -0.2598
   53MOL    O1812602   2.799   5.758   7.341 -0.0760 -0.7543 -0.0542
   53MOL    O1912603   2.670   5.729   7.532  0.3493  0.5804 -0.5529
   53MOL    H2012604   2.658   5.377   7.299  1.9988 -1.6444 -0.2803
   53MOL    H2112605   2.658   5.400   7.466 -1.6406 -0.3287 -1.1438
   53MOL    H2212606   2.420   5.656   7.416 -0.9447  0.1244  3.7163
   53MOL    H2312607   2.492   5.533   7.517  0.8219 -1.4768 -1.6564
   53MOL    H2412608   2.438   5.480   7.369  2.2193 -1.2221 -0.1138
   53MOL    H2512609   2.733   5.790   7.565  3.7017 -1.7930 -2.3050
   53MOL    C2612610   2.613   5.598   7.187  0.2284  0.0190  0.1581
   53MOL    C2712611   2.512   5.691   7.115  0.2177 -0.0447 -0.0228
   53MOL    C2812612   2.575   5.719   6.972 -0.1556  0.5419 -0.4631
   53MOL    C2912613   2.383   5.610   7.092  1.1764 -0.7272 -0.5504
   53MOL    O3012614   2.364   5.542   6.990  0.1845 -0.2986 -0.1783
   53MOL    O3112615   2.295   5.617   7.196 -0.1975 -0.2577  0.2441
   53MOL    H3212616   2.712   5.632   7.157  0.0210 -1.1051 -1.8376
   53MOL    H3312617   2.610   5.509   7.125  0.8110  1.7756 -2.4478
   53MOL    H3412618   2.576   5.634   6.904 -2.1783 -0.6609  0.9413
   53MOL    H3512619   2.676   5.759   6.979  0.4763 -1.3079  1.9992
   53MOL    H3612620   2.522   5.801   6.925 -1.7338  0.8275  1.7155
   53MOL    H3712621   2.213   5.572   7.182 -0.1628 -0.4427  0.6118
   53MOL    C3812622   2.477   5.830   7.185  0.4007 -0.5271  0.3759
   53MOL    C3912623   2.415   5.958   7.106 -0.3766 -0.1006 -0.4965
   53MOL    C4012624   2.528   6.051   7.061  0.3091 -0.0894  0.4200
   53MOL    C4112625   2.321   5.924   6.992  0.5767  0.0878 -0.6940
   53MOL    O4212626   2.226   5.851   7.004 -0.1973  0.2849  0.0108
   53MOL    O4312627   2.359   5.974   6.875 -0.5597 -0.1389  0.3025
   53MOL    H4412628   2.425   5.807   7.278  1.8405 -2.9202  0.5997
   53MOL    H4512629   2.574   5.862   7.222  1.3963 -2.2664 -0.7063
   53MOL    H4612630   2.613   6.063   7.128  1.7116 -6.0449 -0.0826
   53MOL    H4712631   2.494   6.148   7.024 -3.0327 -1.9200 -1.5283
   53MOL    H4812632   2.573   6.007   6.971 -1.9401 -0.9471 -0.3036
   53MOL    H4912633   2.312   5.943   6.799 -2.0941  1.7310  0.4613
   53MOL    C5012634   2.325   6.032   7.221 -0.0477  0.1140  0.2174
   53MOL    C5112635   2.260   6.181   7.199  0.3511  0.9843 -0.1794
   53MOL    C5212636   2.213   6.209   7.062 -0.6065 -0.4531  0.8914
   53MOL    C5312637   2.137   6.199   7.296 -0.0070 -0.3793 -0.0258
   53MOL    O5412638   2.139   6.275   7.394 -0.5505 -0.6612  0.0305
   53MOL    O5512639   2.028   6.122   7.274  0.2159 -0.0763  0.0267
   53MOL    H5612640   2.245   5.962   7.247  1.2019  0.0023  4.1781
   53MOL    H5712641   2.383   6.029   7.314  2.0587  1.3490 -1.0279
   53MOL    H5812642   2.160   6.304   7.052  0.0036 -0.1899  0.1495
   53MOL    H5912643   2.131   6.144   7.033  0.8732 -2.6099  1.4184
   53MOL    H6012644   2.291   6.212   6.986  0.3760 -2.1009  1.8160
   53MOL    H6112645   2.054   6.056   7.211 -0.9642 -0.6121  0.0796
   53MOL    C6212646   2.380   6.274   7.259  0.2629 -0.2830  0.6343
   53MOL    C6312647   2.402   6.425   7.221  0.3555  0.0097 -0.2180
   53MOL    C6412648   2.522   6.468   7.305 -0.1361 -0.3121 -0.5162
   53MOL    C6512649   2.435   6.439   7.074  0.1010 -0.7315 -0.0489
   53MOL    O6612650   2.372   6.499   6.987 -0.2818  0.5023  0.4073
   53MOL    O6712651   2.559   6.389   7.051 -0.2734 -0.0052 -0.1497
   53MOL    H6812652   2.378   6.267   7.368 -0.1139  1.9004  0.7855
   53MOL    H6912653   2.478   6.231   7.237 -0.3096 -1.4291  0.2827
   53MOL    H7012654   2.503   6.492   7.409  1.1264 -0.4494 -0.2399
   53MOL    H7112655   2.552   6.561   7.257 -1.2554  0.4331  0.1946
   53MOL    H7212656   2.610   6.403   7.307 -0.1505 -0.3246  2.9474
   53MOL    H7312657   2.582   6.427   6.968  1.0376 -0.8016 -0.1700
   53MOL    C7412658   2.282   6.515   7.256 -0.0922 -0.2252 -0.2949
   53MOL    C7512659   2.283   6.673   7.283 -0.4153  0.7673  0.5265
   53MOL    C7612660   2.363   6.716   7.414  0.0641 -0.0639  0.1992
   53MOL    C7712661   2.361   6.760   7.170  0.5882  0.6544  0.5939
   53MOL    O7812662   2.474   6.746   7.133 -0.2015 -0.3026  0.5036
   53MOL    O7912663   2.287   6.864   7.119 -0.0388  0.1698  0.3444
   53MOL    H8012664   2.206   6.495   7.180 -0.0167  1.6381 -0.8873
   53MOL    H8112665   2.244   6.475   7.350  1.8054 -0.5091  0.3603
   53MOL    H8212666   2.363   6.823   7.434  0.5762  0.4040 -2.0754
   53MOL    H8312667   2.468   6.699   7.390 -0.3050  1.6386 -2.8788
   53MOL    H8412668   2.319   6.660   7.497 -0.7520  1.0848  0.5492
   53MOL    H8512669   2.349   6.912   7.066 -1.8520 -0.1217 -2.0952
   53MOL    C8612670   2.136   6.732   7.314 -0.0815  0.1566 -0.0230
   53MOL    C8712671   1.999   6.709   7.235 -0.1041  0.2246  0.2402
   53MOL    C8812672   2.023   6.739   7.077  0.4006 -0.1791  0.2327
   53MOL    C8912673   1.958   6.556   7.262 -0.3878 -0.2223  0.7619
   53MOL    O9012674   1.952   6.467   7.174  0.2915  0.0456 -0.7463
   53MOL    O9112675   1.934   6.533   7.391  0.1648 -0.5263 -0.1009
   53MOL    H9212676   2.115   6.698   7.415 -0.4692 -1.1007 -0.5202
   53MOL    H9312677   2.137   6.839   7.335 -0.8686  0.5779 -2.0381
   53MOL    H9412678   1.943   6.698   7.014  0.8234  1.4858 -1.4355
   53MOL    H9512679   2.108   6.694   7.027  0.0326  0.5058 -1.0414
   53MOL    H9612680   2.042   6.845   7.060  0.1539 -0.3110 -0.9234
   53MOL    H9712681   1.907   6.446   7.414  0.2457 -0.5701 -0.1710
   53MOL    C9812682   1.891   6.819   7.289  0.2972 -0.1341 -0.3178
   53MOL    C9912683   1.731   6.808   7.276 -0.2569  0.0570  0.3443
   53MOL   C10012684   1.681   6.686   7.354  0.7687  0.9237 -0.3969
   53MOL   C10112685   1.682   6.940   7.347 -1.1083 -0.0197  0.1939
   53MOL   O10212686   1.650   6.948   7.468  0.7216 -0.1561 -0.3375
   53MOL   O10312687   1.682   7.050   7.270  0.1833 -0.1472  0.3467
   53MOL   H10412688   1.920   6.839   7.392  0.2894  1.2168 -0.5608
   53MOL   H10512689   1.920   6.915   7.245  2.8764 -1.6951 -2.1741
   53MOL   H10612690   1.575   6.695   7.378 -0.0083 -1.3753 -2.7078
   53MOL   H10712691   1.721   6.683   7.455 -0.1451  0.3333 -0.0443
   53MOL   H10812692   1.690   6.589   7.305 -0.6942  0.4239  0.2887
   53MOL   H10912693   1.709   7.032   7.181 -1.0347  3.3378 -0.8020
   53MOL   C11012694   1.703   6.799   7.125  0.1398 -0.4955 -0.4194
   53MOL   C11112695   1.563   6.821   7.061  0.8823 -0.7644  0.0879
   53MOL   C11212696   1.444   6.820   7.169  0.2424  0.0147  0.2650
   53MOL   C11312697   1.544   6.951   6.987  0.7645  0.5044 -0.2020
   53MOL   O11412698   1.629   7.039   6.973  0.2242  0.0852 -0.6274
   53MOL   O11512699   1.417   6.964   6.946 -0.0863 -0.0940 -0.5401
   53MOL   H11612700   1.770   6.870   7.077 -0.4717  1.9457  2.1684
   53MOL   H11712701   1.745   6.701   7.104  0.6926 -0.2292 -0.5660
   53MOL   H11812702   1.455   6.900   7.242 -1.5573 -0.0574  0.6365
   53MOL   H11912703   1.444   6.721   7.215 -0.0756  0.3433  0.9854
   53MOL   H12012704   1.341   6.824   7.132  0.0719 -1.4995  0.5537
   53MOL   H12112705   1.416   7.038   6.886  0.0450  0.1214 -0.2782
   53MOL   C12212706   1.522   6.699   6.969 -0.5525 -0.5401 -0.2063
   53MOL   C12312707   1.619   6.634   6.856 -0.3456 -0.1846  0.9453
   53MOL   C12412708   1.708   6.748   6.791  0.2709 -0.4318 -0.4091
   53MOL   C12512709   1.712   6.528   6.914 -0.1710  0.4458 -0.1663
   53MOL   O12612710   1.675   6.453   7.005 -0.1392  0.2472 -0.0999
   53MOL   O12712711   1.831   6.526   6.848 -0.5739  0.3160 -0.0959
   53MOL   H12812712   1.507   6.616   7.037  2.1706 -1.1760 -0.3364
   53MOL   H12912713   1.429   6.720   6.914  1.0804  3.5899 -1.5789
   53MOL   H13012714   1.650   6.829   6.746  0.3639  0.6588  1.4214
   53MOL   H13112715   1.774   6.725   6.707 -1.5832  0.4764 -2.1733
   53MOL   H13212716   1.778   6.791   6.862  0.9095 -0.3643 -1.0603
   53MOL   H13312717   1.884   6.452   6.874 -2.1307 -0.3506  1.2617
   53MOL   C13412718   1.544   6.573   6.731 -0.9317  0.0229 -0.3543
   53MOL   C13512719   1.492   6.425   6.719 -0.3997 -0.1294 -0.7758
   53MOL   C13612720   1.607   6.331   6.683  0.0338 -0.5227 -0.5506
   53MOL   C13712721   1.428   6.371   6.847 -0.1217  0.0894  0.4468
   53MOL   O13812722   1.463   6.269   6.912  0.4643  0.5487 -0.2218
   53MOL   O13912723   1.330   6.459   6.884  0.1401  0.1883  0.2365
   53MOL   H14012724   1.465   6.644   6.707 -0.3779  0.3034 -1.4041
   53MOL   H14112725   1.604   6.575   6.640  0.0129  0.5260  0.2713
   53MOL   H14212726   1.649   6.342   6.584 -0.1157 -2.2711 -0.8245
   53MOL   H14312727   1.564   6.231   6.680 -0.8143 -0.2103  0.6540
   53MOL   H14412728   1.687   6.336   6.757 -0.0027 -3.4397 -0.2488
   53MOL   H14512729   1.307   6.427   6.969 -0.6846  0.3868  0.0969
   53MOL   C14612730   1.390   6.436   6.601 -0.3510  0.0664 -0.0878
   53MOL   C14712731   1.305   6.315   6.542  0.0836 -0.1969  0.0357
   53MOL   C14812732   1.271   6.209   6.644 -0.1444  0.3860 -1.2176
   53MOL   C14912733   1.175   6.378   6.484 -0.4269  0.0954  0.6461
   53MOL   O15012734   1.145   6.385   6.361 -0.7768  0.3758 -0.0054
   53MOL   O15112735   1.087   6.421   6.583 -0.1874  0.3562 -0.7014
   53MOL   H15212736   1.318   6.513   6.628  0.1820  0.1135  1.2316
   53MOL   H15312737   1.443   6.480   6.517 -0.1558 -0.1406 -0.0731
   53MOL   H15412738   1.366   6.171   6.682 -1.6404 -2.1911  0.1155
   53MOL   H15512739   1.216   6.119   6.614 -0.1626  0.5220 -1.5957
   53MOL   H15612740   1.206   6.251   6.721  1.5708  0.9165 -0.0217
   53MOL   H15712741   1.020   6.464   6.534 -1.2497  0.4979  0.8391
   53MOL   C15812742   1.386   6.258   6.427  0.2051 -0.3120  0.0412
   53MOL   C15912743   1.386   6.107   6.378 -0.5687 -0.0941  0.4006
   53MOL   C16012744   1.452   6.018   6.487  0.6907 -0.1268  0.2340
   53MOL   C16112745   1.257   6.031   6.354 -0.4036 -0.6459 -0.0416
   53MOL   O16212746   1.149   6.050   6.394 -0.2105  0.5987 -0.4790
   53MOL   O16312747   1.281   5.917   6.286  0.0779  0.5970 -0.6458
   53MOL   H16412748   1.394   6.334   6.349  1.4300 -1.1162 -0.6336
   53MOL   H16512749   1.489   6.256   6.463  0.0692 -2.6636  0.3823
   53MOL   H16612750   1.533   6.065   6.543 -2.0356  2.3822  2.1872
   53MOL   H16712751   1.492   5.924   6.448  0.4301 -0.1351 -0.0146
   53MOL   H16812752   1.373   5.987   6.555 -0.0171  0.8829 -0.1220
   53MOL   H16912753   1.194   5.883   6.291  0.9091 -1.2936  2.4943
   53MOL   C17012754   1.486   6.092   6.260  0.5744  0.5163  0.4131
   53MOL   C17112755   1.458   6.162   6.121  0.8280  0.6348 -0.4886
   53MOL   C17212756   1.312   6.173   6.085 -0.1293 -0.2610  0.0422
   53MOL   C17312757   1.524   6.297   6.120  0.5384  0.1897 -0.7605
   53MOL   O17412758   1.598   6.345   6.208  0.0148  0.6897  0.1013
   53MOL   O17512759   1.511   6.355   5.998 -0.2279 -0.6743 -0.1585
   53MOL   H17612760   1.586   6.127   6.287  0.6857 -1.4476  2.6799
   53MOL   H17712761   1.504   5.987   6.239  0.2353  0.4539  0.4484
   53MOL   H17812762   1.270   6.073   6.094  1.3615 -0.7514  1.8187
   53MOL   H17912763   1.280   6.201   5.985 -0.6717 -0.8074  0.0592
   53MOL   H18012764   1.261   6.252   6.139  0.9151  0.2643  0.2863
   53MOL   H18112765   1.555   6.438   6.000 -3.3338  1.0264  2.0723
   53MOL   C18212766   1.516   6.069   6.000  0.2712 -0.3633  0.2041
   53MOL   C18312767   1.664   6.024   5.976 -0.0073  0.5098  0.7281
   53MOL   C18412768   1.759   6.147   5.941 -0.0296 -0.5315 -0.1188
   53MOL   C18512769   1.717   5.950   6.105  0.4971  0.2764  0.2609
   53MOL   O18612770   1.808   6.000   6.172  0.0166  0.2153 -0.9611
   53MOL   O18712771   1.660   5.830   6.131  0.4681  0.9775 -0.1889
   53MOL   H18812772   1.472   5.971   6.015  2.4444 -1.3118  0.5733
   53MOL   H18912773   1.476   6.114   5.909  2.2254  0.5655 -0.2230
   53MOL   H19012774   1.796   6.204   6.026 -0.1073 -0.4753 -0.1230
   53MOL   H19112775   1.713   6.225   5.882  0.1877 -0.0255  0.3796
   53MOL   H19212776   1.844   6.111   5.883  0.3288  0.9983 -0.5584
   53MOL   H19312777   1.692   5.785   6.207 -2.7113 -1.9749 -0.4610
   53MOL   C19412778   1.674   5.910   5.860 -0.0406 -0.0040 -0.7339
   53MOL   C19512779   1.586   5.904   5.726 -0.2118 -0.0293 -0.0479
   53MOL   C19612780   1.684   5.800   5.651  0.0699  0.4547 -0.2523
   53MOL   C19712781   1.447   5.851   5.759 -0.3963 -1.2247  0.7525
   53MOL   O19812782   1.350   5.915   5.798 -0.9330  0.3948 -0.1643
   53MOL   O19912783   1.434   5.712   5.749  0.0873  0.4398 -0.4101
   53MOL   H20012784   1.783   5.907   5.850  0.2951  4.1319  0.5708
   53MOL   H20112785   1.653   5.812   5.902  0.4652  0.4368  0.6023
   53MOL   H20212786   1.726   5.725   5.718 -1.1446  0.8299  0.9639
   53MOL   H20312787   1.772   5.849   5.609  1.8321 -1.3758  1.2511
   53MOL   H20412788   1.644   5.749   5.563  0.0149  0.8111 -0.4369
   53MOL   H20512789   1.347   5.692   5.778  0.5312  0.0162  0.6398
   53MOL   C20612790   1.584   6.046   5.652  0.3401  0.0452 -0.1320
   53MOL   C20712791   1.516   6.065   5.514 -0.1469  1.0216 -0.2759
   53MOL   C20812792   1.555   6.210   5.469 -0.3000 -0.2831  0.3553
   53MOL   C20912793   1.573   5.966   5.409  0.1888  0.1098  0.4266
   53MOL   O21012794   1.518   5.872   5.361 -0.6147  0.5597 -0.4680
   53MOL   O21112795   1.702   5.994   5.380 -0.2000  0.1250 -0.0889
   53MOL   H21212796   1.548   6.119   5.724 -0.7850  0.6711 -1.3077
   53MOL   H21312797   1.689   6.069   5.635  0.6111 -0.6196  0.6134
   53MOL   H21412798   1.534   6.220   5.362  0.2831  0.3269  0.2938
   53MOL   H21512799   1.663   6.220   5.480 -0.4951  1.1784  1.0484
   53MOL   H21612800   1.519   6.292   5.530  2.1863 -0.2667  1.8669
   53MOL   H21712801   1.742   5.917   5.341 -1.1449 -0.5664  0.2832
   53MOL   C21812802   1.360   6.056   5.516  0.4750  0.2313  0.4901
   53MOL   C21912803   1.258   6.113   5.406  0.5145 -1.3167  0.2813
   53MOL   C22012804   1.285   6.058   5.264 -0.5448 -0.4141  0.3046
   53MOL   C22112805   1.122   6.054   5.457 -0.3329  0.0536  0.5783
   53MOL   O22212806   1.064   5.967   5.403  0.2038  0.0821 -0.6107
   53MOL   O22312807   1.080   6.111   5.570  0.2171  0.0355  0.2125
   53MOL   H22412808   1.337   5.951   5.531  2.2526 -0.3061 -0.4240
   53MOL   H22512809   1.339   6.112   5.608 -0.2302 -1.7342  1.5563
   53MOL   H22612810   1.380   6.107   5.244 -0.9557  0.7678  1.2116
   53MOL   H22712811   1.212   6.106   5.198 -0.1655 -0.4320 -0.1296
   53MOL   H22812812   1.284   5.950   5.250 -1.9365 -0.2946 -0.6333
   53MOL   H22912813   0.992   6.084   5.591  0.1944 -0.7343 -0.8423
   53MOL   C23012814   1.242   6.274   5.411 -0.1328  0.0548 -0.2036
   53MOL   C23112815   1.113   6.353   5.368  0.2535  0.1414 -0.2092
   53MOL   C23212816   1.097   6.494   5.431 -0.0727 -0.0818 -0.8540
   53MOL   C23312817   1.085   6.358   5.212 -0.1679 -0.5258 -0.3384
   53MOL   O23412818   1.177   6.359   5.128  0.5284 -0.3665  0.2000
   53MOL   O23512819   0.954   6.372   5.172  0.3053 -0.0281  0.2024
   53MOL   H23612820   1.246   6.302   5.516 -0.5004  0.0108 -0.1788
   53MOL   H23712821   1.331   6.311   5.361  0.0856 -1.8592 -1.3074
   53MOL   H23812822   1.086   6.474   5.537  2.6137  3.7648  0.2572
   53MOL   H23912823   1.018   6.555   5.388  0.7051  1.8876  0.4234
   53MOL   H24012824   1.184   6.558   5.412 -0.3426  0.4655 -0.2622
   53MOL   H24112825   0.950   6.392   5.080 -2.0137  1.4169  0.5858
   53MOL   H24212826   1.026   6.298   5.404 -1.4862  1.6631 -2.0261
   54MOL     C112827   1.785   1.542   3.571 -0.0559 -0.3579  0.4948
   54MOL     C212828   1.700   1.542   3.706 -0.9322 -0.3898  0.2887
   54MOL     C312829   1.566   1.493   3.657  0.3131  0.1386 -0.5860
   54MOL     C412830   1.768   1.440   3.802  0.1030  0.1818  0.7790
   54MOL     O512831   1.695   1.363   3.866 -0.3985  0.1327  0.5288
   54MOL     O612832   1.900   1.447   3.807 -0.3871  0.1003  0.3520
   54MOL     H712833   1.722   1.579   3.490  0.9607  0.7102  0.1860
   54MOL     H812834   1.809   1.442   3.536  0.3324  0.3768 -1.3624
   54MOL     H912835   1.506   1.561   3.597  0.9388  0.2957 -1.0345
   54MOL    H1012836   1.493   1.485   3.738 -0.1832  0.6631 -0.9796
   54MOL    H1112837   1.573   1.396   3.608  2.2621  0.2895 -0.6574
   54MOL    H1212838   1.932   1.385   3.871  2.4914  0.2298 -0.8873
   54MOL    H1312839   1.874   1.603   3.578  0.3817 -0.9673  0.2651
   54MOL    C1412840   1.692   1.687   3.764  0.3934  0.1800 -0.3658
   54MOL    C1512841   1.642   1.732   3.905 -0.3871 -0.4080 -0.2108
   54MOL    C1612842   1.517   1.642   3.951 -0.2176 -0.0685  0.4266
   54MOL    C1712843   1.730   1.715   4.025 -0.0245 -0.1689  0.2419
   54MOL    O1812844   1.694   1.719   4.140 -0.8246  0.2872 -0.6629
   54MOL    O1912845   1.851   1.708   3.992 -0.5897  0.7683  0.1722
   54MOL    H2012846   1.788   1.738   3.753  1.0922 -0.3837  2.5498
   54MOL    H2112847   1.620   1.727   3.693  0.0696 -2.2310 -1.4508
   54MOL    H2212848   1.472   1.688   4.038 -1.5915  1.9000 -1.2831
   54MOL    H2312849   1.542   1.538   3.975 -1.0988 -0.2979  0.3704
   54MOL    H2412850   1.440   1.646   3.875 -1.5107  3.1841  1.8246
   54MOL    H2512851   1.916   1.732   4.057 -2.4048 -1.6251  2.9911
   54MOL    C2612852   1.591   1.882   3.905  0.5396 -0.2604 -0.4436
   54MOL    C2712853   1.686   2.013   3.876  0.0775  0.8131 -0.3068
   54MOL    C2812854   1.809   2.015   3.976 -0.1898  0.8888 -0.0797
   54MOL    C2912855   1.742   2.001   3.737  0.2030  0.5900  0.0129
   54MOL    O3012856   1.671   1.969   3.642  0.6706 -0.6502  0.0033
   54MOL    O3112857   1.862   2.070   3.722  0.5911 -0.0463 -0.1701
   54MOL    H3212858   1.502   1.889   3.842  0.0724 -2.4687 -0.0606
   54MOL    H3312859   1.539   1.886   4.001  1.4848 -0.8678  0.1052
   54MOL    H3412860   1.884   1.942   3.945  1.9473  2.6136  0.8913
   54MOL    H3512861   1.786   1.984   4.078  2.4421  1.2515  0.6749
   54MOL    H3612862   1.866   2.107   3.984  0.5393  0.4546 -0.1904
   54MOL    H3712863   1.868   2.069   3.628 -1.5795 -0.6604 -0.3411
   54MOL    C3812864   1.610   2.147   3.882  0.5846 -1.1569  0.7201
   54MOL    C3912865   1.502   2.184   3.988  0.0659  0.1562  0.7039
   54MOL    C4012866   1.472   2.339   3.966 -0.7676  0.0221  0.4281
   54MOL    C4112867   1.374   2.102   3.963  0.3051 -0.2608  0.2210
   54MOL    O4212868   1.326   2.019   4.036 -0.2966 -0.1089  0.2078
   54MOL    O4312869   1.326   2.134   3.843 -0.1375 -0.6363 -0.4308
   54MOL    H4412870   1.691   2.220   3.888  1.6795 -2.1276 -1.5049
   54MOL    H4512871   1.567   2.175   3.785  2.4213  4.4398  1.3209
   54MOL    H4612872   1.378   2.375   4.008  0.1368  2.1420  0.6580
   54MOL    H4712873   1.476   2.351   3.858  1.2405 -0.3115  0.4389
   54MOL    H4812874   1.541   2.410   4.012 -0.3531 -0.5062  0.6263
   54MOL    H4912875   1.241   2.094   3.834 -0.9202  1.0133 -0.5474
   54MOL    C5012876   1.559   2.160   4.132  0.0910  0.1786 -0.3300
   54MOL    C5112877   1.496   2.208   4.271 -0.0520 -0.2111  0.7456
   54MOL    C5212878   1.497   2.360   4.279  0.2729  0.1272 -0.7199
   54MOL    C5312879   1.347   2.164   4.290  0.3968 -0.2651  0.3144
   54MOL    O5412880   1.254   2.238   4.286  0.0595 -0.0610  0.4476
   54MOL    O5512881   1.331   2.030   4.313  0.5248  0.0039 -0.1357
   54MOL    H5612882   1.589   2.056   4.139  0.2120  0.2470  0.1827
   54MOL    H5712883   1.659   2.204   4.127  0.3273 -0.1483  1.1885
   54MOL    H5812884   1.599   2.398   4.275 -0.0731  1.4361  2.0247
   54MOL    H5912885   1.465   2.385   4.380 -1.2701 -0.8480 -0.9552
   54MOL    H6012886   1.447   2.415   4.200  0.7374 -0.1069 -1.1820
   54MOL    H6112887   1.241   2.003   4.323  0.6873  0.1172  1.7636
   54MOL    C6212888   1.587   2.138   4.385  0.2167 -0.6906  0.2824
   54MOL    C6312889   1.577   2.162   4.545 -0.3882 -0.4732 -0.1535
   54MOL    C6412890   1.645   2.296   4.586 -0.5614  0.1334 -0.1047
   54MOL    C6512891   1.431   2.149   4.598  0.0518  0.2792 -0.5761
   54MOL    O6612892   1.374   2.039   4.618  0.7508  0.3734  0.0330
   54MOL    O6712893   1.369   2.263   4.608  0.2058 -0.3013 -0.0636
   54MOL    H6812894   1.572   2.031   4.372 -1.0985 -0.6062  0.9199
   54MOL    H6912895   1.688   2.157   4.349 -0.0635 -0.8784 -0.5940
   54MOL    H7012896   1.581   2.385   4.586  0.0403  0.6132 -2.3233
   54MOL    H7112897   1.736   2.326   4.535 -1.6529  2.6375 -0.6626
   54MOL    H7212898   1.683   2.295   4.688  2.1411 -2.0748 -1.0845
   54MOL    H7312899   1.279   2.270   4.634  0.2603  0.4312 -0.0412
   54MOL    C7412900   1.655   2.046   4.611 -0.1490 -0.3382 -0.1797
   54MOL    C7512901   1.810   2.031   4.627 -0.1122  0.0448  0.4386
   54MOL    C7612902   1.885   2.054   4.486 -0.2832 -0.4307  0.2107
   54MOL    C7712903   1.876   2.127   4.734 -0.1936  0.7686  0.4695
   54MOL    O7812904   1.821   2.166   4.839 -0.1375  0.4320  0.7410
   54MOL    O7912905   2.009   2.149   4.707  0.8770 -0.4755  0.3262
   54MOL    H8012906   1.632   2.067   4.715  1.3655 -3.2121  0.7848
   54MOL    H8112907   1.593   1.958   4.595 -0.8271  0.5376 -2.5737
   54MOL    H8212908   1.984   2.010   4.486  0.0422  0.2352  2.1677
   54MOL    H8312909   1.899   2.160   4.466  1.0479 -0.3620  1.4459
   54MOL    H8412910   1.825   2.010   4.406 -0.7270  1.5853 -0.5932
   54MOL    H8512911   2.051   2.172   4.788  3.4433  0.4063 -1.1890
   54MOL    C8612912   1.851   1.891   4.688  0.2173 -0.2329 -0.4439
   54MOL    C8712913   1.839   1.751   4.622 -0.5854  0.2214 -0.5581
   54MOL    C8812914   1.700   1.696   4.665 -0.4342  0.2727 -0.0419
   54MOL    C8912915   1.853   1.744   4.465 -0.5445 -0.0644  0.3985
   54MOL    O9012916   1.951   1.706   4.405  0.7574 -0.0569 -0.5338
   54MOL    O9112917   1.750   1.797   4.400  0.8474  0.8421  0.6364
   54MOL    H9212918   1.951   1.908   4.727  0.8867 -0.9790 -1.8364
   54MOL    H9312919   1.800   1.877   4.784 -1.2517 -2.9051 -1.5673
   54MOL    H9412920   1.692   1.689   4.773 -0.1858 -1.1303 -0.1016
   54MOL    H9512921   1.681   1.599   4.619 -2.5956  0.3708  0.6038
   54MOL    H9612922   1.629   1.770   4.626  0.3088  0.9471 -0.1310
   54MOL    H9712923   1.759   1.779   4.308  2.3171  0.0032  0.9153
   54MOL    C9812924   1.947   1.643   4.684 -0.1770 -0.1378  0.5813
   54MOL    C9912925   2.102   1.674   4.734 -0.3386 -0.0110 -0.2033
   54MOL   C10012926   2.174   1.769   4.637  0.1432 -0.1719  0.1589
   54MOL   C10112927   2.103   1.738   4.879  0.2823 -0.2237  0.2323
   54MOL   O10212928   2.180   1.822   4.913  0.2744 -0.1868  0.3199
   54MOL   O10312929   2.015   1.679   4.967  0.2029 -0.0397  0.2154
   54MOL   H10412930   1.896   1.598   4.769  1.3598 -1.0186  1.0405
   54MOL   H10512931   1.945   1.560   4.613  1.3673 -1.6258  2.2316
   54MOL   H10612932   2.216   1.719   4.550  1.6755 -1.5913  1.6897
   54MOL   H10712933   2.255   1.821   4.689 -0.3618  0.1847  0.5876
   54MOL   H10812934   2.111   1.846   4.591 -0.6482  0.4063  2.1736
   54MOL   H10912935   2.025   1.718   5.052 -4.0065  1.3639  0.1997
   54MOL   C11012936   2.171   1.532   4.726 -0.1398  0.3045  0.5362
   54MOL   C11112937   2.317   1.496   4.773  0.7798 -0.4731  0.2610
   54MOL   C11212938   2.422   1.594   4.729  0.1087 -0.7340 -0.9948
   54MOL   C11312939   2.317   1.483   4.930 -0.6759  0.3796  0.2947
   54MOL   O11412940   2.394   1.529   5.012  1.2073 -0.1693  0.1893
   54MOL   O11512941   2.209   1.413   4.968  0.3547  0.1986  0.0849
   54MOL   H11612942   2.105   1.449   4.754 -0.1181 -0.1490 -0.7366
   54MOL   H11712943   2.168   1.525   4.618  0.1526  0.9210  0.4900
   54MOL   H11812944   2.523   1.556   4.746 -0.0964 -1.3334 -1.0866
   54MOL   H11912945   2.407   1.687   4.784  4.2530 -1.4149  1.4725
   54MOL   H12012946   2.422   1.612   4.621  1.0406 -0.8174 -1.0139
   54MOL   H12112947   2.216   1.397   5.060 -1.7987  2.2090  0.6624
   54MOL   C12212948   2.336   1.357   4.703  0.0402  0.4371  0.4543
   54MOL   C12312949   2.474   1.282   4.694 -0.0973  0.4827  0.2049
   54MOL   C12412950   2.554   1.288   4.825  0.0663 -0.1161  0.0039
   54MOL   C12512951   2.442   1.131   4.684  0.5620  0.1318  0.3172
   54MOL   O12612952   2.466   1.048   4.772  0.1349 -0.1360 -0.5851
   54MOL   O12712953   2.386   1.111   4.566 -0.6198  0.3835 -0.2151
   54MOL   H12812954   2.258   1.293   4.743  1.4889 -0.2525  2.2521
   54MOL   H12912955   2.306   1.364   4.598 -0.0242 -2.1700  0.2717
   54MOL   H13012956   2.637   1.220   4.837  0.2130 -0.3715 -2.2607
   54MOL   H13112957   2.487   1.260   4.907 -1.5072 -1.5710 -1.7347
   54MOL   H13212958   2.577   1.392   4.848 -1.8361  0.5881 -1.1377
   54MOL   H13312959   2.381   1.018   4.550  1.4155 -0.2279  2.3737
   54MOL   C13412960   2.563   1.332   4.572 -0.1519 -0.7302 -0.6270
   54MOL   C13512961   2.716   1.305   4.549  0.2877  0.1440 -0.2909
   54MOL   C13612962   2.809   1.373   4.652 -0.3612 -0.4872 -0.3233
   54MOL   C13712963   2.744   1.147   4.544 -0.5957  0.5954  0.0043
   54MOL   O13812964   2.811   1.087   4.630 -0.3058  0.0649  0.0975
   54MOL   O13912965   2.692   1.082   4.437  0.3644  0.8996 -0.9309
   54MOL   H14012966   2.516   1.287   4.485  0.4773 -0.8041 -0.9300
   54MOL   H14112967   2.553   1.440   4.566  2.1761 -0.4699 -0.3027
   54MOL   H14212968   2.770   1.472   4.677 -0.1529 -1.0980  2.5089
   54MOL   H14312969   2.913   1.375   4.619 -0.7355  0.5181 -1.5082
   54MOL   H14412970   2.814   1.321   4.747  0.8550  0.5366  0.1823
   54MOL   H14512971   2.716   0.991   4.446  0.7034  0.9568 -1.2275
   54MOL   C14612972   2.750   1.357   4.402  0.0720  0.1371 -0.5032
   54MOL   C14712973   2.892   1.373   4.337  0.2785  0.3310 -0.1474
   54MOL   C14812974   2.940   1.522   4.354  0.0849  0.3440 -0.2058
   54MOL   C14912975   3.001   1.273   4.397  0.0774 -0.5506 -0.1835
   54MOL   O15012976   3.078   1.300   4.485 -0.0954  0.0412 -0.1906
   54MOL   O15112977   2.981   1.147   4.352 -0.2920 -0.3546  0.4580
   54MOL   H15212978   2.684   1.306   4.332 -0.0121  1.0029 -1.0641
   54MOL   H15312979   2.701   1.454   4.396  2.2713  1.2680 -1.0913
   54MOL   H15412980   2.958   1.549   4.458 -1.4585 -0.1154  0.1898
   54MOL   H15512981   2.878   1.597   4.307  0.0624  0.1400 -0.5020
   54MOL   H15612982   3.038   1.534   4.308  0.4470 -0.0829  0.4448
   54MOL   H15712983   3.046   1.090   4.390  0.6447  1.3279  1.4005
   54MOL   C15812984   2.888   1.339   4.183  0.4008  0.0909 -0.1054
   54MOL   C15912985   2.812   1.425   4.066 -0.3085  0.1330  0.2473
   54MOL   C16012986   2.668   1.466   4.114  0.4739 -0.6845  0.3172
   54MOL   C16112987   2.882   1.551   4.016  0.4466 -0.9248 -0.0346
   54MOL   O16212988   2.830   1.635   3.944 -0.7533  0.0858  0.2279
   54MOL   O16312989   3.014   1.548   4.049 -0.0796  0.1732 -0.5663
   54MOL   H16412990   2.984   1.312   4.139  1.0318 -0.7497  1.7555
   54MOL   H16512991   2.827   1.249   4.178  0.9593 -0.3479  0.8067
   54MOL   H16612992   2.628   1.526   4.032 -3.7287 -2.1751  1.1856
   54MOL   H16712993   2.664   1.538   4.196  1.7063  2.6277 -2.3874
   54MOL   H16812994   2.599   1.383   4.124 -0.8861  0.6561  2.3092
   54MOL   H16912995   3.038   1.472   4.099  0.4638  1.0938  0.6068
   54MOL   C17012996   2.792   1.334   3.937  0.1890  0.0202 -0.2226
   54MOL   C17112997   2.897   1.250   3.866  0.3684 -0.6750 -0.1083
   54MOL   C17212998   3.028   1.328   3.833 -0.0152 -0.2316 -0.4761
   54MOL   C17312999   2.928   1.119   3.946 -0.2479  0.2843  0.0367
   54MOL   O17413000   2.837   1.060   3.998  0.5782  0.0717 -0.5018
   54MOL   O17513001   3.065   1.087   3.958  0.6779  0.2004 -0.1333
   54MOL   H17613002   2.709   1.267   3.958  1.0111 -1.0198 -0.2229
   54MOL   H17713003   2.754   1.392   3.853  2.1552  0.4723 -0.8151
   54MOL   H17813004   3.011   1.426   3.789  2.5735  1.0098  1.1229
   54MOL   H17913005   3.094   1.277   3.763 -1.2749 -1.0740 -1.0699
   54MOL   H18013006   3.080   1.352   3.926  2.1371  2.7054 -2.3261
   54MOL   H18113007   3.077   1.027   4.030  2.4893 -0.9628 -1.3670
   54MOL   C18213008   2.853   1.192   3.725 -0.2476  0.0189  0.2358
   54MOL   C18313009   2.827   1.275   3.590  0.0424  0.0734  0.0317
   54MOL   C18413010   2.710   1.371   3.611  0.4943 -0.1742  0.4278
   54MOL   C18513011   2.956   1.350   3.543 -0.3567  0.0042 -0.2291
   54MOL   O18613012   2.967   1.474   3.520 -0.2820  0.2909  0.0222
   54MOL   O18713013   3.062   1.267   3.521 -0.0327 -1.0257 -0.1528
   54MOL   H18813014   2.923   1.111   3.703  1.2942  1.4542 -0.3087
   54MOL   H18913015   2.764   1.138   3.754  0.1015 -0.2423  0.8256
   54MOL   H19013016   2.636   1.329   3.679  0.3416 -1.0271 -0.2616
   54MOL   H19113017   2.653   1.389   3.520 -0.4040  1.4869  1.2844
   54MOL   H19213018   2.740   1.463   3.661  0.6399  0.8491 -1.4860
   54MOL   H19313019   3.138   1.311   3.486  0.9962 -1.0639  1.9388
   54MOL   C19413020   2.784   1.166   3.484 -0.2727  0.3275  0.3126
   54MOL   C19513021   2.769   1.184   3.331 -0.3658  0.4001  0.0828
   54MOL   C19613022   2.732   1.329   3.284 -0.2147 -0.0854 -0.1520
   54MOL   C19713023   2.914   1.142   3.273  0.4559 -0.6478 -0.1136
   54MOL   O19813024   2.990   1.222   3.219 -0.4508 -0.0794  0.2414
   54MOL   O19913025   2.942   1.014   3.288  0.3077  0.1820  0.3207
   54MOL   H20013026   2.856   1.086   3.498  0.4867  1.5035  3.5121
   54MOL   H20113027   2.693   1.114   3.516 -0.9799 -0.1134 -2.2685
   54MOL   H20213028   2.786   1.413   3.328 -1.3410 -0.8620  2.8537
   54MOL   H20313029   2.625   1.344   3.294 -0.1745 -0.0875  0.3168
   54MOL   H20413030   2.750   1.344   3.178  2.0611 -0.8426  0.0896
   54MOL   H20513031   3.033   1.008   3.262  0.1025  1.5931 -0.7973
   54MOL   C20613032   2.650   1.090   3.273 -0.0678  0.5300  0.0405
   54MOL   C20713033   2.593   1.087   3.131  0.2944 -0.4484 -0.2444
   54MOL   C20813034   2.715   1.087   3.026  0.6896 -0.4588  0.0078
   54MOL   C20913035   2.515   0.953   3.119 -0.2357 -0.5422  0.3917
   54MOL   O21013036   2.525   0.870   3.027 -0.0258  0.2010  0.7120
   54MOL   O21113037   2.437   0.935   3.227  0.4214 -0.1846 -0.1215
   54MOL   H21213038   2.687   0.990   3.298  3.1829  2.0300  1.5123
   54MOL   H21313039   2.567   1.115   3.339 -0.2234 -0.0546  0.0756
   54MOL   H21413040   2.749   1.188   3.001  0.0994 -0.3198 -0.2430
   54MOL   H21513041   2.688   1.037   2.933 -1.6188  0.1437  0.3161
   54MOL   H21613042   2.801   1.033   3.065  0.7864 -0.2265  0.1196
   54MOL   H21713043   2.369   0.870   3.214  1.2072 -1.2351  0.8832
   54MOL   C21813044   2.501   1.211   3.099  0.7358 -0.7623  0.1385
   54MOL   C21913045   2.404   1.217   2.977  0.1702  0.4839 -1.3307
   54MOL   C22013046   2.488   1.179   2.847  0.4401 -0.3516  0.5170
   54MOL   C22113047   2.279   1.126   2.991  0.6867  0.3796  0.4961
   54MOL   O22213048   2.230   1.063   2.904 -0.8118  0.3124  0.0770
   54MOL   O22313049   2.217   1.148   3.110 -0.2898 -0.5873  0.1721
   54MOL   H22413050   2.439   1.227   3.187 -2.7774 -0.6836 -2.2339
   54MOL   H22513051   2.561   1.302   3.096 -1.0990  0.4492 -0.1742
   54MOL   H22613052   2.506   1.072   2.851 -2.6127 -0.8902  0.9078
   54MOL   H22713053   2.582   1.232   2.832  0.9725 -1.1203  1.1441
   54MOL   H22813054   2.428   1.195   2.757  1.8952  0.3869 -0.3587
   54MOL   H22913055   2.141   1.093   3.123 -0.3682 -0.0669  2.1200
   54MOL   C23013056   2.356   1.369   2.961  0.6600 -0.0011 -0.1388
   54MOL   C23113057   2.231   1.410   2.882 -0.1255  0.2081  0.2548
   54MOL   C23213058   2.191   1.553   2.916 -0.0592  0.6997 -0.2815
   54MOL   C23313059   2.257   1.389   2.725  0.5907  0.3954  0.5158
   54MOL   O23413060   2.342   1.447   2.657 -0.5071  0.4653  0.7387
   54MOL   O23513061   2.169   1.299   2.666  0.6449  0.6373 -0.5956
   54MOL   H23613062   2.330   1.408   3.059  2.5014 -0.6384  0.6242
   54MOL   H23713063   2.445   1.423   2.927  0.5669  1.2233  1.5107
   54MOL   H23813064   2.125   1.555   3.003  0.9856  1.3288  0.5071
   54MOL   H23913065   2.138   1.592   2.830  0.5546 -0.1368 -1.0467
   54MOL   H24013066   2.274   1.619   2.940  3.2260 -3.5215  0.7350
   54MOL   H24113067   2.193   1.282   2.576  1.8950 -1.9225  0.1538
   54MOL   H24213068   2.159   1.334   2.914 -0.7044  0.7874  0.3528
   55MOL     C113069   4.844   3.329   6.300  0.0224 -0.2287 -0.1470
   55MOL     C213070   4.712   3.375   6.375 -0.2903  0.2777  0.3365
   55MOL     C313071   4.623   3.255   6.425  0.1429  0.4356  0.4357
   55MOL     C413072   4.766   3.450   6.497  0.4843 -0.2926  0.0433
   55MOL     O513073   4.742   3.417   6.614 -0.2044 -0.3273  0.3004
   55MOL     O613074   4.864   3.539   6.466  0.0107 -0.2574 -0.1755
   55MOL     H713075   4.819   3.236   6.251  1.4193 -0.0723 -1.1860
   55MOL     H813076   4.925   3.302   6.368  1.0679  2.1200 -0.3863
   55MOL     H913077   4.542   3.294   6.487  0.8555  3.7170 -0.5740
   55MOL    H1013078   4.676   3.185   6.490  0.1433 -0.2515 -0.3009
   55MOL    H1113079   4.568   3.202   6.347 -2.0902  2.2918  0.7035
   55MOL    H1213080   4.892   3.537   6.375 -0.9776  1.7487 -0.5331
   55MOL    H1313081   4.881   3.402   6.227  0.0627  1.6773  1.7022
   55MOL    C1413082   4.637   3.468   6.280 -0.0790  0.2663  0.3318
   55MOL    C1513083   4.500   3.543   6.300 -0.5137  0.9338 -0.1582
   55MOL    C1613084   4.389   3.437   6.312 -0.5225 -0.0722 -0.3116
   55MOL    C1713085   4.500   3.633   6.423  0.7144 -0.6448 -0.2037
   55MOL    O1813086   4.399   3.651   6.492 -0.4684 -0.1058 -0.0168
   55MOL    O1913087   4.608   3.716   6.426  0.4087 -0.2119 -0.1822
   55MOL    H2013088   4.711   3.542   6.250  0.1869  0.2210  0.8773
   55MOL    H2113089   4.616   3.403   6.195 -2.2024 -0.8947  1.7110
   55MOL    H2213090   4.294   3.475   6.274 -0.0243  0.0839 -1.4446
   55MOL    H2313091   4.370   3.403   6.413  0.3658  1.5469  0.4119
   55MOL    H2413092   4.397   3.341   6.261 -0.9498 -0.0083 -0.5087
   55MOL    H2513093   4.603   3.788   6.488 -0.0715  0.6797 -1.2406
   55MOL    C2613094   4.466   3.640   6.179  0.4148 -0.0380 -0.3472
   55MOL    C2713095   4.448   3.597   6.032  0.2627  0.1370 -0.1113
   55MOL    C2813096   4.590   3.582   5.964  0.1152 -0.3441 -0.5819
   55MOL    C2913097   4.361   3.467   6.015  0.0033  0.4943 -0.8821
   55MOL    O3013098   4.240   3.458   6.018  0.3869  0.4303  0.2107
   55MOL    O3113099   4.439   3.358   5.990  0.6355  0.3530  0.0720
   55MOL    H3213100   4.369   3.683   6.203  1.9607  3.3098  0.1242
   55MOL    H3313101   4.527   3.730   6.182  1.2145 -0.5168 -1.6212
   55MOL    H3413102   4.663   3.538   6.032  0.9023  2.4677  0.4889
   55MOL    H3513103   4.628   3.679   5.930  0.8158 -0.2456  0.4790
   55MOL    H3613104   4.587   3.505   5.887  0.6365  0.0881 -1.0390
   55MOL    H3713105   4.385   3.287   5.960 -0.6755  1.6396 -0.7245
   55MOL    C3813106   4.371   3.712   5.962  0.2265 -0.0370  0.4537
   55MOL    C3913107   4.335   3.722   5.807  0.5380 -0.2685  0.0957
   55MOL    C4013108   4.438   3.670   5.703  0.0990 -0.4084  0.2838
   55MOL    C4113109   4.200   3.645   5.780  0.0769 -0.3384 -0.1587
   55MOL    O4213110   4.193   3.559   5.691  0.6835  0.3600  0.1850
   55MOL    O4313111   4.095   3.689   5.850 -0.1318  0.3052 -0.3298
   55MOL    H4413112   4.287   3.731   6.028  1.4633  0.4611  1.8881
   55MOL    H4513113   4.429   3.802   5.978 -1.9037  1.5060 -0.2163
   55MOL    H4613114   4.404   3.686   5.601 -0.3725 -1.4267  0.2744
   55MOL    H4713115   4.463   3.565   5.713  0.2890 -0.4844 -0.9045
   55MOL    H4813116   4.522   3.739   5.709 -0.9719  1.1614 -1.9124
   55MOL    H4913117   4.020   3.637   5.824  0.1223 -0.5796  0.6633
   55MOL    C5013118   4.288   3.868   5.777  0.6638  0.4002 -0.6733
   55MOL    C5113119   4.360   4.004   5.797  0.0129 -0.6390 -0.1444
   55MOL    C5213120   4.389   4.040   5.945  0.2466  0.1055  0.3226
   55MOL    C5313121   4.496   3.984   5.736  0.5659 -0.4909  1.0425
   55MOL    O5413122   4.602   3.967   5.795 -0.1344  0.6802 -0.0213
   55MOL    O5513123   4.491   3.986   5.598  0.2522 -0.2879  0.0845
   55MOL    H5613124   4.264   3.867   5.670 -0.0708 -0.5860 -0.5035
   55MOL    H5713125   4.189   3.888   5.819  0.4940  0.9594 -1.3163
   55MOL    H5813126   4.473   3.996   5.999 -0.2977 -1.9441 -0.4438
   55MOL    H5913127   4.298   4.037   6.005 -0.8968  2.3878 -1.2062
   55MOL    H6013128   4.416   4.145   5.937  1.6155 -0.3720 -1.8684
   55MOL    H6113129   4.406   3.976   5.558  0.9218 -0.3682 -1.3446
   55MOL    C6213130   4.288   4.128   5.726 -0.0175  0.2753 -0.6945
   55MOL    C6313131   4.137   4.158   5.727  0.9079 -0.1011 -0.0519
   55MOL    C6413132   4.071   4.079   5.613  0.7392 -0.3238 -0.4854
   55MOL    C6513133   4.065   4.116   5.863 -0.3174  0.2085 -0.0771
   55MOL    O6613134   3.980   4.028   5.876 -0.8264 -0.4505 -0.0327
   55MOL    O6713135   4.114   4.183   5.977  0.0032  0.3094  0.0426
   55MOL    H6813136   4.347   4.219   5.737  0.9194 -0.4073  0.0193
   55MOL    H6913137   4.309   4.121   5.620 -2.6172  1.4318 -1.3153
   55MOL    H7013138   3.962   4.083   5.608  0.7761  3.1396  0.4113
   55MOL    H7113139   4.093   3.973   5.626  0.7950 -0.2722 -0.1503
   55MOL    H7213140   4.115   4.116   5.520  4.3604 -0.2567  1.1909
   55MOL    H7313141   4.083   4.150   6.060  1.0498 -0.4009  0.1605
   55MOL    C7413142   4.114   4.316   5.705  0.2424  0.3266  0.0486
   55MOL    C7513143   3.985   4.388   5.653 -0.3323 -0.3299  0.0101
   55MOL    C7613144   3.971   4.358   5.498  0.0630  0.1813 -0.1359
   55MOL    C7713145   3.859   4.354   5.734 -0.0893  0.2693 -0.1949
   55MOL    O7813146   3.856   4.358   5.858 -0.1383  0.3590 -0.1017
   55MOL    O7913147   3.749   4.349   5.656 -0.3152  0.6659 -0.5402
   55MOL    H8013148   4.140   4.357   5.803 -0.2526 -3.3237  1.8096
   55MOL    H8113149   4.194   4.351   5.640  2.5664  0.7130  3.0148
   55MOL    H8213150   3.915   4.430   5.437  0.2885  0.8205  0.4078
   55MOL    H8313151   3.915   4.265   5.489  0.5468 -0.1656  0.4827
   55MOL    H8413152   4.072   4.354   5.457  0.2250  2.7548 -0.1132
   55MOL    H8513153   3.778   4.346   5.566  1.4770  1.9862 -0.0349
   55MOL    C8613154   4.020   4.544   5.653 -0.2504  0.7645 -0.1428
   55MOL    C8713155   3.921   4.671   5.660 -0.1104  0.0520  1.0054
   55MOL    C8813156   3.812   4.657   5.553 -0.2190  0.6921  0.3027
   55MOL    C8913157   3.854   4.682   5.797 -0.2218 -0.4234 -0.3732
   55MOL    O9013158   3.740   4.730   5.800  0.2377 -0.6872 -0.3271
   55MOL    O9113159   3.912   4.612   5.901  0.1424  0.4168  0.0816
   55MOL    H9213160   4.093   4.554   5.733 -0.0607 -0.1874 -0.1869
   55MOL    H9313161   4.085   4.568   5.569  0.5776  1.9363  0.8151
   55MOL    H9413162   3.744   4.576   5.577 -0.3386  0.4568 -0.8123
   55MOL    H9513163   3.863   4.646   5.457  3.1854 -1.0918  2.1936
   55MOL    H9613164   3.751   4.747   5.550  0.4336  1.1024 -2.0631
   55MOL    H9713165   3.849   4.620   5.971 -2.2415 -2.3391 -1.6241
   55MOL    C9813166   3.996   4.806   5.618 -0.0432  0.3728 -0.5392
   55MOL    C9913167   4.102   4.884   5.709 -0.4736  0.5157  0.2108
   55MOL   C10013168   4.041   4.931   5.847  0.0361 -0.2673  0.6660
   55MOL   C10113169   4.224   4.796   5.743  0.1997 -0.1631 -0.7157
   55MOL   O10213170   4.294   4.730   5.665 -0.0770  0.5179 -0.5611
   55MOL   O10313171   4.280   4.834   5.861 -0.0503  0.0749 -0.1051
   55MOL   H10413172   4.043   4.782   5.523 -1.0577 -0.2515 -0.8937
   55MOL   H10513173   3.911   4.873   5.602 -0.3480  0.1453  0.0877
   55MOL   H10613174   4.106   4.997   5.904  0.9137 -1.0334  0.5811
   55MOL   H10713175   4.020   4.849   5.917  0.8376 -0.3443  0.8236
   55MOL   H10813176   3.942   4.967   5.821 -1.3275 -2.6092  2.3342
   55MOL   H10913177   4.361   4.791   5.884  0.6179  0.4699 -1.6646
   55MOL   C11013178   4.133   5.008   5.616 -0.1000 -0.1508  0.5902
   55MOL   C11113179   4.248   5.112   5.637 -0.4533  0.1441  0.5606
   55MOL   C11213180   4.213   5.193   5.771  0.0686 -0.3291 -0.1699
   55MOL   C11313181   4.384   5.043   5.635  0.3594  0.3756  0.0206
   55MOL   O11413182   4.473   5.055   5.722 -0.3880 -0.5877 -0.3656
   55MOL   O11513183   4.395   4.978   5.518 -0.3607  0.0715 -0.2228
   55MOL   H11613184   4.143   4.972   5.513  0.6435  2.0518 -0.1438
   55MOL   H11713185   4.041   5.063   5.601  0.7614  1.8682  2.3939
   55MOL   H11813186   4.246   5.297   5.778  2.1580 -1.1325  2.7740
   55MOL   H11913187   4.262   5.141   5.853  0.3781 -0.1334 -0.2309
   55MOL   H12013188   4.109   5.221   5.793  0.6295  2.3152 -0.6534
   55MOL   H12113189   4.485   4.950   5.517  0.6164  3.0120 -2.3552
   55MOL   C12213190   4.233   5.216   5.520 -0.2391 -0.5375 -0.1231
   55MOL   C12313191   4.338   5.328   5.475 -0.6799  0.2340 -0.0338
   55MOL   C12413192   4.279   5.403   5.348  0.0802  0.3843 -0.1128
   55MOL   C12513193   4.362   5.428   5.594 -0.9021 -0.2596 -0.5807
   55MOL   O12613194   4.457   5.428   5.679  0.3946 -0.0659 -0.0063
   55MOL   O12713195   4.251   5.504   5.609  0.1372 -0.0133 -0.0374
   55MOL   H12813196   4.201   5.163   5.430 -0.1349 -2.6771  1.0730
   55MOL   H12913197   4.140   5.268   5.540  0.3354 -0.2435  1.8758
   55MOL   H13013198   4.265   5.354   5.251 -0.0124 -0.8331  0.5107
   55MOL   H13113199   4.334   5.496   5.331 -2.1607  1.4573 -1.8557
   55MOL   H13213200   4.182   5.445   5.375  1.6686  1.9791  3.3842
   55MOL   H13313201   4.256   5.554   5.689  0.3856  0.2064 -0.1903
   55MOL   C13413202   4.475   5.265   5.430 -0.2676  0.7797 -0.1721
   55MOL   C13513203   4.574   5.326   5.325 -0.1258  0.1350  0.4106
   55MOL   C13613204   4.515   5.328   5.180  0.8803  0.1131  0.4561
   55MOL   C13713205   4.618   5.467   5.354  0.5089 -0.7734 -0.1412
   55MOL   O13813206   4.592   5.528   5.458 -0.5210  0.0245  0.3309
   55MOL   O13913207   4.687   5.525   5.256  0.1172 -0.1630  0.6232
   55MOL   H14013208   4.535   5.244   5.518  0.0182 -0.8194 -0.7274
   55MOL   H14113209   4.440   5.181   5.370 -1.2528  0.4399  0.8657
   55MOL   H14213210   4.440   5.402   5.151  0.7954 -0.4006 -0.6623
   55MOL   H14313211   4.467   5.236   5.147  1.9804  0.0377 -0.9995
   55MOL   H14413212   4.593   5.346   5.106  2.1268 -3.0447  0.9375
   55MOL   H14513213   4.691   5.615   5.284 -2.0396  0.3898 -0.7990
   55MOL   C14613214   4.704   5.236   5.306  0.5137 -0.2190  0.1475
   55MOL   C14713215   4.804   5.196   5.426 -0.0590  0.0214 -0.4056
   55MOL   C14813216   4.869   5.317   5.497  0.2039  0.1274  0.3147
   55MOL   C14913217   4.736   5.097   5.532 -0.2820  0.4607 -0.6513
   55MOL   O15013218   4.686   4.991   5.497 -0.0706  0.1801 -0.0703
   55MOL   O15113219   4.734   5.149   5.655 -0.0035  0.1037  0.2479
   55MOL   H15213220   4.664   5.142   5.270  2.1125 -1.3500  1.2334
   55MOL   H15313221   4.757   5.276   5.219  0.0752 -0.5537 -0.2732
   55MOL   H15413222   4.786   5.384   5.521 -0.7046 -1.1554  0.7981
   55MOL   H15513223   4.934   5.371   5.428  0.2563 -1.8216 -1.2010
   55MOL   H15613224   4.926   5.290   5.586  0.2307  1.3064  0.6748
   55MOL   H15713225   4.667   5.109   5.708 -0.9812 -2.2238 -2.6317
   55MOL   C15813226   4.914   5.115   5.357 -0.8139 -0.7058 -0.4032
   55MOL   C15913227   5.047   5.057   5.412 -0.3379  0.1139 -0.1734
   55MOL   C16013228   5.113   4.976   5.306  0.2154 -0.6319  0.2422
   55MOL   C16113229   5.139   5.178   5.447 -0.6825  0.5771 -0.3378
   55MOL   O16213230   5.160   5.214   5.561  0.3739 -0.4142  0.0823
   55MOL   O16313231   5.182   5.241   5.334 -0.4472 -0.6027  0.6915
   55MOL   H16413232   4.869   5.024   5.316  1.5293 -2.5503  1.0298
   55MOL   H16513233   4.950   5.186   5.282 -0.4141 -2.0515 -1.5096
   55MOL   H16613234   5.217   4.949   5.324  0.9302  1.2190 -0.9583
   55MOL   H16713235   5.109   5.034   5.214 -0.0560 -1.9096 -0.5749
   55MOL   H16813236   5.055   4.885   5.289  0.2934 -0.6393  0.0120
   55MOL   H16913237   5.222   5.326   5.346  0.8451 -1.1276  0.2518
   55MOL   C17013238   5.027   4.967   5.544 -0.2620  0.1786  0.2153
   55MOL   C17113239   5.124   4.852   5.602  0.1890  0.6078  0.2740
   55MOL   C17213240   5.097   4.717   5.531 -0.1692 -0.2326 -0.0482
   55MOL   C17313241   5.276   4.882   5.572  0.1757  0.5168  0.6842
   55MOL   O17413242   5.355   4.815   5.511 -0.4067  0.4439  0.1213
   55MOL   O17513243   5.308   5.000   5.620 -0.7125 -0.1553 -0.5031
   55MOL   H17613244   5.003   5.032   5.629 -2.3157 -0.8664  0.4748
   55MOL   H17713245   4.940   4.910   5.511 -0.8895  0.2302  1.7031
   55MOL   H17813246   5.163   4.637   5.566  2.2207  1.7173  0.1025
   55MOL   H17913247   5.109   4.711   5.423  0.2612  2.2544 -0.1627
   55MOL   H18013248   4.998   4.680   5.554 -0.3833  0.7611  0.6611
   55MOL   H18113249   5.240   5.053   5.657 -0.1553 -0.8780  1.6185
   55MOL   C18213250   5.116   4.854   5.758  0.1274 -0.5398 -0.7118
   55MOL   C18313251   4.999   4.794   5.856  0.1825  0.2060 -0.2784
   55MOL   C18413252   5.035   4.847   5.998  0.2026  0.4686 -0.4394
   55MOL   C18513253   4.862   4.852   5.815 -0.1003 -0.1130  0.2731
   55MOL   O18613254   4.803   4.930   5.889 -0.2686 -0.5241  0.2977
   55MOL   O18713255   4.811   4.805   5.698  0.6493  0.0623  0.1917
   55MOL   H18813256   5.205   4.799   5.788 -0.7719 -3.0442 -2.5212
   55MOL   H18913257   5.142   4.953   5.795 -1.6079 -0.5929  0.7424
   55MOL   H19013258   4.960   4.815   6.071  0.9514  0.1008  0.1689
   55MOL   H19113259   5.045   4.955   6.005  0.2892  0.6402 -2.9693
   55MOL   H19213260   5.121   4.796   6.041  1.5458 -0.2399 -3.8240
   55MOL   H19313261   4.725   4.841   5.680  0.9870  1.0673  0.5429
   55MOL   C19413262   5.024   4.631   5.858 -0.1734  0.6848 -0.2661
   55MOL   C19513263   4.917   4.522   5.886 -0.0053 -0.0257  0.4709
   55MOL   C19613264   4.829   4.572   6.002  0.3365 -0.2746  0.0392
   55MOL   C19713265   4.827   4.519   5.764  0.2295  0.1228  0.0481
   55MOL   O19813266   4.702   4.528   5.764 -0.1603  0.0986 -0.1228
   55MOL   O19913267   4.902   4.482   5.653 -0.2085  0.0087 -0.2730
   55MOL   H20013268   5.069   4.625   5.759 -1.5082  0.4015 -0.8691
   55MOL   H20113269   5.110   4.605   5.919 -0.5291 -0.3021 -0.1798
   55MOL   H20213270   4.730   4.526   5.998  1.1462 -2.0205 -0.2252
   55MOL   H20313271   4.810   4.679   5.993 -0.1115 -0.3875 -0.3451
   55MOL   H20413272   4.870   4.560   6.103  1.7010 -1.2468 -0.6168
   55MOL   H20513273   4.846   4.480   5.577 -0.1956 -0.7509 -0.2649
   55MOL   C20613274   4.968   4.379   5.922  0.0896 -0.7565  0.5563
   55MOL   C20713275   4.882   4.259   5.927  0.0847 -0.4361  0.0166
   55MOL   C20813276   4.766   4.270   6.034 -0.4856 -0.0603  0.1862
   55MOL   C20913277   4.813   4.221   5.795 -0.3354 -0.1324 -0.4133
   55MOL   O21013278   4.696   4.244   5.774  0.2583  0.8164  0.3580
   55MOL   O21113279   4.904   4.183   5.696 -0.2852 -0.1693 -0.2703
   55MOL   H21213280   5.045   4.358   5.848  0.2597  1.4544  0.1011
   55MOL   H21313281   5.027   4.387   6.013 -0.9924  2.0407  1.0282
   55MOL   H21413282   4.711   4.180   6.060  0.1305 -0.3974  0.3104
   55MOL   H21513283   4.689   4.338   5.997 -0.1790 -0.1281 -0.5855
   55MOL   H21613284   4.795   4.320   6.126  1.7009  1.1057 -1.0882
   55MOL   H21713285   4.867   4.147   5.617  0.5208  0.9202 -1.1498
   55MOL   C21813286   4.966   4.125   5.965 -0.2697 -0.4003 -0.2227
   55MOL   C21913287   5.044   4.092   6.100  0.2740 -0.2521 -0.0900
   55MOL   C22013288   5.166   4.185   6.137 -1.0103  0.1471 -0.2151
   55MOL   C22113289   4.937   4.087   6.217 -0.2122  0.1766  0.5247
   55MOL   O22213290   4.842   4.009   6.210  0.0997 -0.2068  0.1425
   55MOL   O22313291   4.957   4.175   6.319 -0.1795 -0.1530  0.1618
   55MOL   H22413292   4.900   4.039   5.955  0.0633 -0.5094 -1.4705
   55MOL   H22513293   5.038   4.125   5.884 -0.2885  1.6489 -0.2734
   55MOL   H22613294   5.219   4.154   6.227  0.7938 -0.7395 -1.5622
   55MOL   H22713295   5.143   4.291   6.148 -1.2618  0.3413 -2.3397
   55MOL   H22813296   5.229   4.177   6.049  0.1667 -1.1395  0.7387
   55MOL   H22913297   4.882   4.163   6.375 -1.1914  1.4877 -0.7955
   55MOL   C23013298   5.096   3.940   6.104  0.5495 -0.3074  0.6469
   55MOL   C23113299   5.003   3.818   6.058  0.0144  0.2847 -0.1446
   55MOL   C23213300   5.055   3.748   5.923 -0.1060 -0.0386 -0.2208
   55MOL   C23313301   4.982   3.713   6.175 -0.2190 -0.5691 -0.0577
   55MOL   O23413302   5.067   3.622   6.193 -0.9418 -0.0931 -0.2598
   55MOL   O23513303   4.874   3.721   6.256  0.1473  0.4320 -0.2875
   55MOL   H23613304   5.170   3.937   6.024 -2.9256  0.5281 -2.7706
   55MOL   H23713305   5.143   3.923   6.201  0.0240  1.9590  1.3388
   55MOL   H23813306   4.979   3.676   5.895 -1.6726  1.2119  0.6895
   55MOL   H23913307   5.156   3.709   5.933  0.6385  1.7876 -0.4100
   55MOL   H24013308   5.065   3.816   5.838 -2.2465 -2.0222 -2.1200
   55MOL   H24113309   4.824   3.799   6.238 -1.4992 -1.0486 -2.4209
   55MOL   H24213310   4.901   3.849   6.034  0.2249 -0.0922 -1.5894
   56MOL     C113311   6.192   6.803   6.547 -0.0467  0.3166  0.1477
   56MOL     C213312   6.101   6.737   6.645  0.3833 -0.3761 -0.1137
   56MOL     C313313   6.155   6.594   6.654 -0.1004 -0.2310 -0.4661
   56MOL     C413314   6.116   6.807   6.785  0.2861 -0.5482 -0.5773
   56MOL     O513315   6.177   6.913   6.805 -0.1950  0.0904  0.3870
   56MOL     O613316   6.051   6.738   6.886  0.0601  0.0104 -0.0585
   56MOL     H713317   6.184   6.748   6.453 -2.2870 -1.8559  1.5531
   56MOL     H813318   6.297   6.787   6.570 -0.5733 -2.2016  0.9554
   56MOL     H913319   6.141   6.557   6.552  2.0592 -2.6444  0.0584
   56MOL    H1013320   6.090   6.535   6.718  0.3153 -0.2062 -0.0200
   56MOL    H1113321   6.262   6.580   6.674 -0.1111  0.2633 -0.0646
   56MOL    H1213322   6.037   6.792   6.963 -2.9294  0.7011 -1.0028
   56MOL    H1313323   6.185   6.911   6.539  0.6469  0.4159  0.9063
   56MOL    C1413324   5.950   6.742   6.611  0.1549 -0.3180 -0.0608
   56MOL    C1513325   5.880   6.861   6.538  0.5624  0.5031  0.2222
   56MOL    C1613326   5.916   7.000   6.593 -0.2713  0.5020  0.1892
   56MOL    C1713327   5.905   6.848   6.387 -0.5034 -0.2506  0.1042
   56MOL    O1813328   5.962   6.758   6.328  0.0324  0.0887  0.8000
   56MOL    O1913329   5.864   6.961   6.322  0.3373  0.3361 -0.1412
   56MOL    H2013330   5.924   6.654   6.552  1.1212 -0.0495 -0.9041
   56MOL    H2113331   5.905   6.731   6.710 -2.3370  1.0410 -0.9978
   56MOL    H2213332   5.880   7.088   6.539  1.6122  1.6663  0.7511
   56MOL    H2313333   6.024   7.012   6.608 -0.1788  0.8309 -0.6871
   56MOL    H2413334   5.885   7.015   6.697  1.0081 -0.0290  0.6603
   56MOL    H2513335   5.885   6.952   6.230  2.5951 -0.2501  0.4211
   56MOL    C2613336   5.722   6.855   6.564  0.1311 -0.4282 -1.0280
   56MOL    C2713337   5.619   6.767   6.487  0.2666  0.3986 -0.2469
   56MOL    C2813338   5.593   6.828   6.348 -0.1632 -0.2653  0.0331
   56MOL    C2913339   5.671   6.623   6.478  0.6129  0.7681 -0.5168
   56MOL    O3013340   5.683   6.551   6.578  0.2398  0.4428 -0.2375
   56MOL    O3113341   5.704   6.581   6.351 -0.3655  0.2880  0.5816
   56MOL    H3213342   5.712   6.832   6.670 -0.9677  0.7982 -0.8558
   56MOL    H3313343   5.694   6.960   6.553 -0.9771 -0.7294 -1.1363
   56MOL    H3413344   5.517   6.771   6.294 -1.5674  0.2092  1.4730
   56MOL    H3513345   5.675   6.818   6.277 -0.7144  2.0366 -0.9670
   56MOL    H3613346   5.561   6.931   6.365 -4.2549 -1.5522  0.7950
   56MOL    H3713347   5.753   6.500   6.351  1.0050  1.0378 -3.0928
   56MOL    C3813348   5.493   6.772   6.578  0.2348  0.1511 -0.3608
   56MOL    C3913349   5.350   6.753   6.528  0.0785  1.0877 -0.0281
   56MOL    C4013350   5.303   6.880   6.459  0.1472 -0.4423  0.0222
   56MOL    C4113351   5.335   6.634   6.428 -0.0385  0.1348 -0.2725
   56MOL    O4213352   5.283   6.651   6.319  0.5695 -0.3993 -0.1139
   56MOL    O4313353   5.380   6.511   6.476  0.0374  0.4254  0.0700
   56MOL    H4413354   5.507   6.701   6.659 -2.1793 -1.5332 -1.3565
   56MOL    H4513355   5.494   6.865   6.635 -0.1377 -0.3145  0.4196
   56MOL    H4613356   5.296   6.965   6.527 -1.2021 -0.6262  0.1276
   56MOL    H4713357   5.204   6.881   6.414 -0.4752  2.3996  1.3167
   56MOL    H4813358   5.353   6.903   6.365 -0.8252  0.3953 -0.2962
   56MOL    H4913359   5.367   6.440   6.415 -2.4236  0.2004  0.8035
   56MOL    C5013360   5.261   6.729   6.657  0.0861 -0.8253 -0.7007
   56MOL    C5113361   5.109   6.694   6.671 -0.3541 -0.4290  0.0955
   56MOL    C5213362   5.025   6.784   6.576 -0.1049  0.5236 -0.1481
   56MOL    C5313363   5.078   6.550   6.625  0.2648  0.2979  0.2669
   56MOL    O5413364   4.978   6.513   6.558 -0.9365 -0.2773 -0.4119
   56MOL    O5513365   5.158   6.462   6.678  0.5907  0.6194  0.0712
   56MOL    H5613366   5.311   6.658   6.723 -1.9477 -1.1371  0.5789
   56MOL    H5713367   5.270   6.827   6.702  1.3535 -1.0458 -0.4706
   56MOL    H5813368   5.048   6.759   6.472  1.7566 -0.6141  0.5008
   56MOL    H5913369   5.046   6.889   6.594 -0.3002  0.5180  0.1093
   56MOL    H6013370   4.920   6.758   6.589  0.6108 -3.6594 -1.7067
   56MOL    H6113371   5.132   6.372   6.664 -4.5883  1.7923  1.2562
   56MOL    C6213372   5.076   6.720   6.822  0.2254  1.1479  0.7318
   56MOL    C6313373   4.934   6.755   6.877 -0.3261 -0.8484  0.0775
   56MOL    C6413374   4.885   6.899   6.833 -0.1104  0.8031  0.0152
   56MOL    C6513375   4.831   6.648   6.835 -0.0307 -0.1038  0.2749
   56MOL    O6613376   4.852   6.532   6.852 -0.4380  0.3222  0.1544
   56MOL    O6713377   4.711   6.688   6.800  0.1320  0.0117  0.1153
   56MOL    H6813378   5.104   6.633   6.881  0.9253  1.8649  1.4616
   56MOL    H6913379   5.138   6.803   6.855  0.0400  1.1565  1.0632
   56MOL    H7013380   4.808   6.934   6.901  0.9414  1.3139  0.9597
   56MOL    H7113381   4.848   6.906   6.731  0.7895  4.0181 -0.1521
   56MOL    H7213382   4.970   6.964   6.812 -1.3405  2.1297 -0.9237
   56MOL    H7313383   4.708   6.781   6.780 -0.6678 -0.1737 -0.6612
   56MOL    C7413384   4.934   6.736   7.034 -0.0919  0.1779  0.1838
   56MOL    C7513385   5.019   6.823   7.141  0.5351 -0.4555 -0.3434
   56MOL    C7613386   5.168   6.774   7.139 -0.9745 -0.1891 -0.9238
   56MOL    C7713387   5.005   6.972   7.114  0.2367  0.3606  0.0716
   56MOL    O7813388   5.104   7.034   7.079 -0.2272 -0.1866 -0.6541
   56MOL    O7913389   4.878   7.014   7.129  1.3908  0.0652  0.0614
   56MOL    H8013390   4.829   6.750   7.059  0.0494  2.8206 -0.6104
   56MOL    H8113391   4.958   6.631   7.051 -2.0362 -0.5983 -1.6675
   56MOL    H8213392   5.183   6.669   7.164 -0.2750  0.4408  1.4518
   56MOL    H8313393   5.231   6.837   7.201 -0.0178 -1.6467 -0.3665
   56MOL    H8413394   5.217   6.783   7.042  1.4083  1.8953  0.4197
   56MOL    H8513395   4.862   7.103   7.103  0.5429 -0.5357 -1.5310
   56MOL    C8613396   4.958   6.798   7.289 -0.6507 -0.1533  0.2011
   56MOL    C8713397   5.023   6.827   7.432  0.3257 -0.0996  0.8754
   56MOL    C8813398   5.099   6.700   7.466  0.4910 -0.6184 -0.0394
   56MOL    C8913399   5.129   6.943   7.426  0.1350  0.0996  0.1071
   56MOL    O9013400   5.251   6.935   7.442  0.1957 -0.6362 -0.1019
   56MOL    O9113401   5.061   7.057   7.405 -0.5274  0.1483  0.5354
   56MOL    H9213402   4.854   6.831   7.288 -0.2395  1.1769  0.6455
   56MOL    H9313403   4.956   6.690   7.274  0.1931 -0.3504  1.4695
   56MOL    H9413404   5.034   6.622   7.505  1.1907 -1.6310 -0.9094
   56MOL    H9513405   5.180   6.718   7.537 -1.7761  0.3613  2.4428
   56MOL    H9613406   5.139   6.659   7.374  1.4217 -0.8084  0.4384
   56MOL    H9713407   5.118   7.131   7.393 -1.7583  0.8548 -1.2354
   56MOL    C9813408   4.911   6.871   7.545  0.9778 -0.6510  0.9651
   56MOL    C9913409   4.934   6.952   7.676 -0.4293 -0.6172  0.1003
   56MOL   C10013410   5.075   6.929   7.734 -0.6899  0.1309  0.3654
   56MOL   C10113411   4.913   7.107   7.655 -0.0792  0.3054 -0.2455
   56MOL   O10213412   4.854   7.150   7.563 -0.4140 -0.4476 -0.0412
   56MOL   O10313413   4.960   7.190   7.749  0.2767  0.5242 -0.5055
   56MOL   H10413414   4.834   6.922   7.487  1.7001 -0.2408  0.3474
   56MOL   H10513415   4.872   6.774   7.575  0.4908 -1.3759 -1.9163
   56MOL   H10613416   5.109   6.825   7.727 -2.7449 -0.4164 -3.0736
   56MOL   H10713417   5.090   6.954   0.071  2.5163 -1.7189  0.4264
   56MOL   H10813418   5.156   6.979   7.682  1.5974  0.8943  4.4803
   56MOL   H10913419   4.927   7.277   7.736 -1.7604  0.0576  1.2212
   56MOL   C11013420   4.837   6.909   0.024 -0.1565  0.1960 -0.5760
   56MOL   C11113421   4.678   6.878   0.016  0.0909 -0.4843 -0.3581
   56MOL   C11213422   4.604   6.973   7.692 -0.8571 -0.2318 -0.2672
   56MOL   C11313423   4.642   6.727   7.747  0.1349  0.7742 -0.6846
   56MOL   O11413424   4.723   6.635   7.746  0.4295  0.2542  0.2645
   56MOL   O11513425   4.513   6.722   7.713  0.3947  0.0315  0.2203
   56MOL   H11613426   4.875   6.811   0.055 -1.2284  0.1468  0.6169
   56MOL   H11713427   4.861   6.968   0.112  0.7190 -2.2565  0.8982
   56MOL   H11813428   4.496   6.954   7.690 -1.3715  1.8469  3.4732
   56MOL   H11913429   4.632   6.959   7.587 -1.4325  0.2480 -0.4954
   56MOL   H12013430   4.622   7.077   7.722  1.8218 -0.4586 -0.9785
   56MOL   H12113431   4.491   6.634   7.684  0.9197  0.1259 -0.4764
   56MOL   C12213432   4.627   6.926   0.166  0.0888  0.3969 -0.3350
   56MOL   C12313433   4.484   6.890   0.233 -0.1986 -0.4727  0.3961
   56MOL   C12413434   4.360   6.916   0.136  0.6673  0.2093  0.1752
   56MOL   C12513435   4.483   6.743   0.283  0.1137 -1.3932  0.2733
   56MOL   O12613436   4.575   6.671   0.304  0.1844  0.5068  0.0818
   56MOL   O12713437   4.357   6.699   0.315  0.0097 -0.0463  0.3719
   56MOL   H12813438   4.700   6.883   0.235  0.3036  1.0900 -0.1291
   56MOL   H12913439   4.630   7.034   0.174  1.8038  0.2683  1.0217
   56MOL   H13013440   4.360   6.853   0.047  0.2657 -1.6750  1.4986
   56MOL   H13113441   4.354   7.015   0.091  1.6980  1.4503  2.6722
   56MOL   H13213442   4.269   6.891   0.191  0.5854 -1.3445 -0.6274
   56MOL   H13313443   4.289   6.765   0.317 -1.0777 -1.1705  1.7391
   56MOL   C13413444   4.445   6.987   0.355  0.4309  0.1326  0.5870
   56MOL   C13513445   4.508   7.011   0.500 -0.4557 -0.3159 -0.2614
   56MOL   C13613446   4.463   6.889   0.584 -0.0746  0.2655  0.7255
   56MOL   C13713447   4.661   7.004   0.484  0.3177 -0.3026 -0.4089
   56MOL   O13813448   4.726   7.094   0.433 -0.7062  0.1799 -0.1939
   56MOL   O13913449   4.721   6.882   0.502 -0.2772 -0.5037  0.5781
   56MOL   H14013450   4.439   7.086   0.310  0.1607  0.4442  1.2901
   56MOL   H14113451   4.340   6.961   0.372  0.8215 -0.3377  2.3698
   56MOL   H14213452   4.455   6.798   0.525 -0.5755  0.3901  0.6031
   56MOL   H14313453   4.365   6.892   0.631 -0.9467  1.6168 -1.1096
   56MOL   H14413454   4.534   6.871   0.665  1.4041  1.3618 -0.3044
   56MOL   H14513455   4.810   6.887   0.470 -0.1363 -0.7620  0.9319
   56MOL   C14613456   4.456   7.142   0.565 -0.3912  0.3982  0.0109
   56MOL   C14713457   4.485   7.181   0.715  0.2084 -1.0321  0.7559
   56MOL   C14813458   4.429   7.080   0.817  0.3243 -0.5230  0.9619
   56MOL   C14913459   4.633   7.189   0.741 -0.1874 -0.2799  0.4770
   56MOL   O15013460   4.691   7.098   0.804 -0.5051 -0.8303 -0.1878
   56MOL   O15113461   4.696   7.288   0.676  0.0101  0.0049  0.5945
   56MOL   H15213462   4.485   7.224   0.499 -0.7367  1.4498  1.1399
   56MOL   H15313463   4.347   7.131   0.568 -0.2665 -0.4246  2.8765
   56MOL   H15413464   4.486   6.987   0.827  0.8181 -0.2010  1.1551
   56MOL   H15513465   4.331   7.054   0.779 -1.4025  2.4454  3.1662
   56MOL   H15613466   4.405   7.122   0.915  1.6428 -1.0251  1.5156
   56MOL   H15713467   4.789   7.274   0.686  0.6323  3.4936  0.1925
   56MOL   C15813468   4.409   7.324   0.742  0.2667  0.4140  0.0812
   56MOL   C15913469   4.378   7.390   0.884  0.5645  0.0052 -0.0452
   56MOL   C16013470   4.324   7.536   0.856 -0.2649 -0.1919 -0.5270
   56MOL   C16113471   4.253   7.320   0.944  0.1969 -0.0740 -0.4007
   56MOL   O16213472   4.183   7.238   0.881 -0.2151  0.3463 -0.1531
   56MOL   O16313473   4.218   7.367   1.068 -0.1205 -0.0273  0.4057
   56MOL   H16413474   4.474   7.393   0.688 -0.4735  1.3169  0.3541
   56MOL   H16513475   4.315   7.325   0.686  0.1567 -0.3952  0.2417
   56MOL   H16613476   4.296   7.549   0.751  0.2284 -4.7622 -1.3119
   56MOL   H16713477   4.396   7.616   0.874  0.6246 -1.2875  0.8011
   56MOL   H16813478   4.236   7.567   0.914  0.2776 -0.9500  0.7115
   56MOL   H16913479   4.160   7.306   1.111 -2.1736 -0.3027 -2.5953
   56MOL   C17013480   4.512   7.393   0.970  1.1346  0.4856 -0.1817
   56MOL   C17113481   4.529   7.440   1.118  0.5919  0.1951 -0.3996
   56MOL   C17213482   4.443   7.567   1.149 -0.3265  0.7700 -0.1596
   56MOL   C17313483   4.494   7.327   1.225 -0.0362  0.5420  0.6347
   56MOL   O17413484   4.465   7.214   1.196  0.6705 -0.1605 -0.1521
   56MOL   O17513485   4.518   7.363   1.357 -0.3572 -0.7478 -0.0225
   56MOL   H17613486   4.561   7.296   0.966 -0.3176 -0.2108 -1.8837
   56MOL   H17713487   4.573   7.465   0.915  0.2777  0.9801 -0.4843
   56MOL   H17813488   4.336   7.550   1.155 -0.0060 -1.5568 -0.7348
   56MOL   H17913489   4.464   7.649   1.081 -3.2498  1.5131 -0.2324
   56MOL   H18013490   4.462   7.601   1.251  0.6842 -1.7457  0.5325
   56MOL   H18113491   4.499   7.289   1.413  1.3197 -0.8988  0.3676
   56MOL   C18213492   4.673   7.498   1.143  1.0406  0.2455 -0.5220
   56MOL   C18313493   4.809   7.416   1.125 -0.2609  0.0072 -0.4975
   56MOL   C18413494   4.804   7.257   1.145 -0.5454 -0.1206  0.6585
   56MOL   C18513495   4.856   7.442   0.982 -0.2405 -0.1425 -0.1778
   56MOL   O18613496   4.896   7.355   0.906  0.4859  0.4696  0.5068
   56MOL   O18713497   4.871   7.575   0.954  0.0527  0.2109  0.2828
   56MOL   H18813498   4.673   7.593   1.089 -1.0386 -1.0004 -2.8299
   56MOL   H18913499   4.663   7.534   1.245 -0.1375 -1.3080 -0.0817
   56MOL   H19013500   4.731   7.216   1.075 -2.6982  0.3393  2.5762
   56MOL   H19113501   4.771   7.228   1.244 -0.7610 -1.6747  0.1467
   56MOL   H19213502   4.900   7.213   1.117 -0.5301 -0.1384  0.7437
   56MOL   H19313503   4.902   7.589   0.866  2.3541  0.8013  1.1525
   56MOL   C19413504   4.914   7.478   1.230  0.3479 -0.8402  0.7124
   56MOL   C19513505   5.061   7.425   1.269  0.0043  0.0999 -0.2653
   56MOL   C19613506   5.045   7.300   1.353  0.0997 -0.3588 -0.3025
   56MOL   C19713507   5.150   7.402   1.140 -0.2417 -0.2128 -0.7789
   56MOL   O19813508   5.191   7.489   1.060 -0.0779  0.3108  0.0959
   56MOL   O19913509   5.176   7.271   1.118 -0.1350  0.2438 -0.2814
   56MOL   H20013510   4.921   7.580   1.192  1.0801 -1.1496  0.0144
   56MOL   H20113511   4.855   7.498   1.320 -1.5035  0.5482 -0.7768
   56MOL   H20213512   5.139   7.285   1.406 -0.9511  0.9739  2.0316
   56MOL   H20313513   5.020   7.214   1.291  0.4522 -0.5625 -0.1655
   56MOL   H20413514   4.972   7.315   1.432  0.6924 -0.2108  0.2185
   56MOL   H20513515   5.242   7.260   1.051  2.1386  0.0164  1.9260
   56MOL   C20613516   5.119   7.543   1.357  0.8031  0.4978  0.4933
   56MOL   C20713517   5.269   7.574   1.386  0.0013 -0.6399  0.0995
   56MOL   C20813518   5.341   7.443   1.436 -0.0349 -0.1198  0.1375
   56MOL   C20913519   5.347   7.623   1.258  0.1313  0.3050  0.0987
   56MOL   O21013520   5.457   7.572   1.234  0.2155 -0.0603  1.2351
   56MOL   O21113521   5.294   7.733   1.207 -0.2759 -0.5017  0.3914
   56MOL   H21213522   5.074   7.641   1.337  0.7984  0.5772  0.8846
   56MOL   H21313523   5.072   7.521   1.452 -1.3839 -1.7724 -1.0566
   56MOL   H21413524   5.450   7.454   1.438 -0.2130  1.5782  1.2020
   56MOL   H21513525   5.324   7.368   1.359 -0.9996 -0.8790  1.0862
   56MOL   H21613526   5.301   7.397   1.527 -0.1033 -1.3177 -0.4811
   56MOL   H21713527   5.362   0.004   1.154  0.3360  0.9287  2.1454
   56MOL   C21813528   5.275   7.690   1.501  0.6312 -0.0840 -0.1319
   56MOL   C21913529   5.404   7.752   1.564 -0.6257  0.1229 -0.3774
   56MOL   C22013530   5.348   0.070   1.682 -0.1867 -0.6721  0.6439
   56MOL   C22113531   5.492   7.639   1.633  0.7587 -0.2501  0.5484
   56MOL   O22213532   5.605   7.607   1.601 -0.4911 -0.3251  0.2902
   56MOL   O22313533   5.428   7.568   1.731  0.0089 -0.2799  0.8621
   56MOL   H22413534   5.215   0.006   1.462  0.5349 -0.5602 -1.0154
   56MOL   H22513535   5.211   7.657   1.582 -0.2269  0.9689 -0.3626
   56MOL   H22613536   5.422   0.110   1.752 -1.1618 -1.0963  1.9335
   56MOL   H22713537   5.286   0.006   1.744  0.1490  0.9436  2.6946
   56MOL   H22813538   5.281   0.149   1.648  0.4691 -0.1194  0.5987
   56MOL   H22913539   5.481   7.501   1.772 -1.2707  0.5874  4.0803
   56MOL   C23013540   5.486   0.060   1.465  0.1973  0.5974  0.0011
   56MOL   C23113541   5.598   0.158   1.508 -0.2904 -0.2057  0.8099
   56MOL   C23213542   5.712   0.187   1.400 -0.1725  0.0995 -0.2509
   56MOL   C23313543   5.545   0.290   1.578  0.2814  0.9453 -0.0545
   56MOL   O23413544   5.458   0.362   1.537 -0.0676  0.5839 -0.1676
   56MOL   O23513545   5.599   0.294   1.703  0.3797 -0.1475 -0.5685
   56MOL   H23613546   5.533   7.753   1.400 -0.8445  1.9386 -2.3210
   56MOL   H23713547   5.417   0.103   1.392  0.6672  1.2565 -0.0571
   56MOL   H23813548   5.746   0.099   1.345  0.0481  1.1051 -1.7695
   56MOL   H23913549   5.801   0.232   1.443 -0.2950  0.4390 -0.3490
   56MOL   H24013550   5.664   0.252   1.327 -0.1834  0.1543 -0.1943
   56MOL   H24113551   5.552   0.356   1.757 -1.2596 -1.8404  0.0054
   56MOL   H24213552   5.649   0.098   1.584  0.1007  0.0820  0.7761
   57MOL     C113553   2.969   4.962   3.216  0.6464 -0.0093 -0.2576
   57MOL     C213554   2.993   4.833   3.304 -0.0595  0.3098  0.3522
   57MOL     C313555   3.136   4.847   3.368 -0.3987 -0.3800  0.0222
   57MOL     C413556   2.895   4.835   3.432 -0.1484  0.0521 -0.6895
   57MOL     O513557   2.805   4.916   3.443  0.5066  0.7756  0.0465
   57MOL     O613558   2.918   4.735   3.517 -0.0223 -0.1026  0.0706
   57MOL     H713559   3.037   4.971   3.132  1.4371  0.1356  0.3953
   57MOL     H813560   2.988   5.058   3.265 -0.3513  0.9304 -1.6474
   57MOL     H913561   3.165   4.765   3.434 -0.7128 -0.3571  0.1920
   57MOL    H1013562   3.141   4.943   3.419 -0.2518  0.0009 -0.7108
   57MOL    H1113563   3.206   4.853   3.285  0.5116  1.6854  0.9119
   57MOL    H1213564   2.862   4.749   3.591 -0.5026  2.8377 -0.7636
   57MOL    H1313565   2.868   4.978   3.178  0.4617  1.8753  0.9305
   57MOL    C1413566   2.998   4.702   3.215 -0.1594  0.8886  0.6760
   57MOL    C1513567   2.876   4.662   3.120  0.3583 -0.4464 -0.0769
   57MOL    C1613568   2.750   4.657   3.211 -0.0342 -0.0099 -0.5190
   57MOL    C1713569   2.849   4.771   3.009  0.1141 -0.0137  0.2412
   57MOL    O1813570   2.751   4.841   2.995  1.0238  0.1985 -0.9599
   57MOL    O1913571   2.947   4.779   2.921 -0.5125 -0.2049  0.1881
   57MOL    H2013572   3.085   4.696   3.151 -0.8170 -1.9924 -0.0047
   57MOL    H2113573   3.009   4.623   3.289 -1.2249  0.9373  0.8979
   57MOL    H2213574   2.664   4.617   3.156  1.7930 -1.9620 -2.0600
   57MOL    H2313575   2.724   4.758   3.244  2.9577  0.9038 -0.8466
   57MOL    H2413576   2.764   4.588   3.294  0.4612 -0.0059 -0.5982
   57MOL    H2513577   2.924   4.838   2.851 -2.4584 -1.4974 -0.3048
   57MOL    C2613578   2.908   4.527   3.046 -0.7700  0.6906  0.5050
   57MOL    C2713579   2.808   4.434   2.969  0.6463  0.1461 -0.4317
   57MOL    C2813580   2.716   4.363   3.077 -1.1648  0.1616 -0.0381
   57MOL    C2913581   2.706   4.514   2.878  0.4626  0.1823  0.2781
   57MOL    O3013582   2.585   4.507   2.897 -0.1608  0.0993 -0.3696
   57MOL    O3113583   2.766   4.579   2.771  0.1970  0.2359  0.3543
   57MOL    H3213584   2.983   4.548   2.970 -1.0861 -0.3394 -0.0921
   57MOL    H3313585   2.963   4.462   3.115  0.6851 -1.1296 -2.2575
   57MOL    H3413586   2.780   4.322   3.155 -0.5414  2.2091  0.5503
   57MOL    H3513587   2.673   4.272   3.035 -0.0919 -1.4805  2.3718
   57MOL    H3613588   2.639   4.422   3.127 -1.0374  1.1548 -0.9951
   57MOL    H3713589   2.725   4.642   2.714  0.9049 -0.4491 -0.9145
   57MOL    C3813590   2.869   4.320   2.879 -0.2613 -0.2481  0.2047
   57MOL    C3913591   3.002   4.327   2.791 -0.0251 -0.2625 -0.4267
   57MOL    C4013592   3.012   4.455   2.694  0.0339  0.6490 -0.6110
   57MOL    C4113593   3.129   4.334   2.885 -0.2145 -0.6404 -0.5800
   57MOL    O4213594   3.225   4.410   2.860  0.1594 -0.3143 -0.3002
   57MOL    O4313595   3.132   4.248   2.992 -0.2800 -0.4238  0.2124
   57MOL    H4413596   2.902   4.234   2.938  0.6427 -1.0597 -1.4359
   57MOL    H4513597   2.788   4.283   2.816  0.0203 -0.9467  0.2377
   57MOL    H4613598   2.937   4.464   2.615 -0.3662  0.6923 -0.2283
   57MOL    H4713599   3.108   4.457   2.644 -0.2181  3.0707 -1.0632
   57MOL    H4813600   3.008   4.549   2.750 -1.4267 -0.0798  0.5488
   57MOL    H4913601   3.208   4.264   3.046 -1.1767 -0.5406  1.5372
   57MOL    C5013602   3.028   4.202   2.693 -0.1298 -0.5700  0.3655
   57MOL    C5113603   2.919   4.140   2.608 -0.3976  0.7425 -0.3653
   57MOL    C5213604   2.824   4.244   2.533 -0.3311 -0.7021  0.7328
   57MOL    C5313605   2.988   4.064   2.486 -0.2021  0.1305 -0.7374
   57MOL    O5413606   2.937   4.045   2.375 -0.0349  0.1090 -0.1543
   57MOL    O5513607   3.108   4.010   2.512  0.1340  0.0968 -0.2704
   57MOL    H5613608   3.104   4.237   2.623 -0.5281  0.8941  0.6485
   57MOL    H5713609   3.076   4.123   2.750  0.0283 -0.5271  0.2923
   57MOL    H5813610   2.762   4.296   2.606 -0.6657  2.8317 -1.9427
   57MOL    H5913611   2.763   4.199   2.455  2.6477  1.1588 -2.8370
   57MOL    H6013612   2.884   4.322   2.488 -0.2672 -1.3325 -0.2947
   57MOL    H6113613   3.149   3.958   2.444  1.5395 -1.2784  1.5806
   57MOL    C6213614   2.823   4.045   2.696  0.4180  0.0857 -0.4627
   57MOL    C6313615   2.842   3.895   2.727  0.1084 -0.1888 -0.0920
   57MOL    C6413616   2.802   3.807   2.604  0.0824 -0.3022  0.1315
   57MOL    C6513617   2.991   3.852   2.761 -0.0803 -0.0550  0.1596
   57MOL    O6613618   3.052   3.763   2.700  0.5130  0.6457 -0.0371
   57MOL    O6713619   3.034   3.919   2.868  0.2963 -0.5732 -0.4319
   57MOL    H6813620   2.823   4.092   2.795  0.9721  1.2939 -1.0383
   57MOL    H6913621   2.722   4.035   2.656 -0.1571  0.9113  0.7405
   57MOL    H7013622   2.806   3.700   2.624  2.1125 -0.0624  1.1049
   57MOL    H7113623   2.859   3.828   2.513  0.2868  0.7535  0.5000
   57MOL    H7213624   2.699   3.836   2.584  0.4787  1.3560  0.4522
   57MOL    H7313625   3.127   3.904   2.878  0.5084  1.2142  0.5297
   57MOL    C7413626   2.754   3.862   2.846  0.5354 -0.2557 -0.0196
   57MOL    C7513627   2.712   3.714   2.899 -0.8382  0.1069 -0.4543
   57MOL    C7613628   2.585   3.678   2.813 -0.0585  0.5823 -0.5225
   57MOL    C7713629   2.827   3.606   2.876 -0.5416  0.2135  0.0927
   57MOL    O7813630   2.813   3.504   2.809  0.0127  0.0071  0.5020
   57MOL    O7913631   2.935   3.635   2.957  0.1579  0.7373  0.1767
   57MOL    H8013632   2.787   3.932   2.923 -1.0412  0.0099  0.4322
   57MOL    H8113633   2.659   3.913   2.831  0.7242  0.8476  2.4006
   57MOL    H8213634   2.576   3.570   2.812 -1.5790  0.6991 -3.1362
   57MOL    H8313635   2.601   3.690   2.706 -0.8662  1.9465 -0.5068
   57MOL    H8413636   2.493   3.726   2.847  0.3731  1.1057 -0.0703
   57MOL    H8513637   3.000   3.567   2.962 -0.5248  0.1200  0.7620
   57MOL    C8613638   2.667   3.733   3.049 -0.6133  0.7219  0.2521
   57MOL    C8713639   2.620   3.613   3.142 -0.0427 -0.1711  0.3689
   57MOL    C8813640   2.562   3.697   3.263  0.8224 -0.3346 -0.5326
   57MOL    C8913641   2.505   3.529   3.080 -0.4376  1.0783  0.1532
   57MOL    O9013642   2.516   3.424   3.017  0.5612 -0.4606 -0.5180
   57MOL    O9113643   2.386   3.592   3.087 -0.0300 -0.1851  0.1514
   57MOL    H9213644   2.750   3.787   3.096  1.2189 -0.6588 -1.3078
   57MOL    H9313645   2.587   3.807   3.056 -0.4835  0.9491 -0.5424
   57MOL    H9413646   2.543   3.648   3.359  1.2552 -0.7458 -0.6567
   57MOL    H9513647   2.470   3.746   3.232  0.1432 -1.2077  0.0522
   57MOL    H9613648   2.630   3.779   3.285  1.9993 -1.2236 -0.7891
   57MOL    H9713649   2.322   3.526   3.065 -0.7380  1.3078 -2.5314
   57MOL    C9813650   2.743   3.527   3.184 -0.1555 -0.7069  0.2812
   57MOL    C9913651   2.754   3.425   3.307 -0.1826 -0.3575  0.1909
   57MOL   C10013652   2.620   3.347   3.325 -0.7108  0.1958  1.1916
   57MOL   C10113653   2.860   3.319   3.264 -0.1711 -0.8185 -0.3939
   57MOL   O10213654   2.951   3.334   3.179  1.6021 -0.4852  0.1401
   57MOL   O10313655   2.856   3.206   3.333 -0.0265 -0.2844 -0.4789
   57MOL   H10413656   2.764   3.475   3.091  2.2182  2.1502 -0.8607
   57MOL   H10513657   2.836   3.581   3.202  1.7640 -3.0604 -2.2097
   57MOL   H10613658   2.572   3.288   3.246  1.8079  1.0560 -1.0824
   57MOL   H10713659   2.536   3.412   3.348  1.0378  2.5169  1.0993
   57MOL   H10813660   2.640   3.271   3.400 -0.8208 -0.3642  0.6664
   57MOL   H10913661   2.911   3.145   3.286  3.1652  1.4783  0.8199
   57MOL   C11013662   2.773   3.506   3.441 -0.1590  0.0246  0.2270
   57MOL   C11113663   2.912   3.509   3.522  0.2989  0.3600  0.4172
   57MOL   C11213664   2.895   3.600   3.645 -0.2285 -0.5954  0.1583
   57MOL   C11313665   2.946   3.375   3.583  0.3424  0.7895  0.1704
   57MOL   O11413666   3.056   3.319   3.582  0.2942  1.0724  0.3925
   57MOL   O11513667   2.834   3.312   3.627  0.3667 -0.0967 -0.6030
   57MOL   H11613668   2.764   3.611   3.415  1.4461  0.1762  0.2036
   57MOL   H11713669   2.694   3.483   3.513 -1.7076  1.2759 -1.0744
   57MOL   H11813670   2.989   3.627   3.693  1.1426 -0.1703 -2.6434
   57MOL   H11913671   2.842   3.549   3.726 -1.9476 -1.4788 -1.4978
   57MOL   H12013672   2.849   3.697   3.626  0.6497 -0.3258 -0.6292
   57MOL   H12113673   2.846   3.233   3.677 -0.2683 -0.8356 -1.6058
   57MOL   C12213674   3.027   3.563   3.434 -0.1645  0.2326  0.7456
   57MOL   C12313675   3.083   3.716   3.417  0.3845  0.2826  0.4956
   57MOL   C12413676   3.161   3.760   3.536 -0.2031  0.1443  0.1170
   57MOL   C12513677   3.188   3.703   3.299 -0.4972  0.2128 -0.3145
   57MOL   O12613678   3.311   3.721   3.318 -0.0534  0.0215  0.1489
   57MOL   O12713679   3.137   3.662   3.181  0.1580 -0.5295  0.2695
   57MOL   H12813680   3.122   3.513   3.449 -0.3098 -0.3398 -0.2123
   57MOL   H12913681   3.011   3.526   3.333 -2.5884 -2.6990  2.1346
   57MOL   H13013682   3.220   3.848   3.512 -1.7845  0.5295 -2.5811
   57MOL   H13113683   3.231   3.686   3.576 -0.1808 -0.1861 -0.5286
   57MOL   H13213684   3.087   3.796   3.608 -0.6511  0.1734 -0.3495
   57MOL   H13313685   3.209   3.651   3.120 -0.7662 -0.7737 -0.8016
   57MOL   C13413686   2.971   3.822   3.384 -0.3150  0.2729 -0.0889
   57MOL   C13513687   2.994   3.974   3.337  0.1110  0.0387  0.4229
   57MOL   C13613688   3.094   3.975   3.221 -0.3369  0.6043 -0.4232
   57MOL   C13713689   2.856   4.023   3.286 -0.1920  0.0683 -0.4927
   57MOL   O13813690   2.834   4.085   3.180 -0.2762  0.1294  0.2939
   57MOL   O13913691   2.752   3.986   3.375 -0.1996 -0.1339  0.6602
   57MOL   H14013692   2.909   3.769   3.311  1.3390 -1.2932 -0.3926
   57MOL   H14113693   2.917   3.843   3.476 -0.5385  1.3475 -0.4496
   57MOL   H14213694   3.071   3.896   3.150  0.2788  0.4156 -0.4117
   57MOL   H14313695   3.194   3.965   3.263 -1.4294  0.6944  2.3523
   57MOL   H14413696   3.093   4.064   3.159  1.5336  0.0623 -1.2633
   57MOL   H14513697   2.669   4.003   3.333  1.0786 -0.8904 -2.2900
   57MOL   C14613698   3.065   4.064   3.446 -0.7125 -1.0997  0.6896
   57MOL   C14713699   3.058   4.217   3.445  0.7722  0.0470  0.2222
   57MOL   C14813700   3.108   4.277   3.300 -0.6728 -0.6601  0.1387
   57MOL   C14913701   2.912   4.275   3.474 -0.2744 -0.6301 -0.3826
   57MOL   O15013702   2.826   4.216   3.536 -0.0991 -0.0551 -0.6390
   57MOL   O15113703   2.894   4.402   3.430 -0.5821  0.0316 -0.9771
   57MOL   H15213704   3.022   4.028   3.540 -2.3565 -1.5309 -0.2239
   57MOL   H15313705   3.170   4.037   3.460 -0.8846 -1.9766  0.2690
   57MOL   H15413706   3.196   4.231   3.255  0.6149  1.3629  0.4761
   57MOL   H15513707   3.143   4.381   3.294 -0.9601 -0.5881 -0.3304
   57MOL   H15613708   3.030   4.282   3.224 -0.4583  1.2796  0.0182
   57MOL   H15713709   2.806   4.433   3.440 -0.7742 -0.1734 -1.9653
   57MOL   C15813710   3.161   4.277   3.543  0.4442 -0.1946  0.6076
   57MOL   C15913711   3.165   4.243   3.696  0.6305  0.5036 -0.1740
   57MOL   C16013712   3.026   4.235   3.760 -0.7082  0.4586  0.5925
   57MOL   C16113713   3.231   4.110   3.712 -0.3825  0.0943  0.0105
   57MOL   O16213714   3.189   4.028   3.798 -0.3108  0.0429  0.1923
   57MOL   O16313715   3.345   4.093   3.641  0.0014  0.0091  0.4220
   57MOL   H16413716   3.262   4.269   3.502 -0.3421 -1.2303 -1.1485
   57MOL   H16513717   3.131   4.381   3.533 -1.7907 -0.5872  2.7461
   57MOL   H16613718   3.026   4.199   3.862 -1.2054  2.6548  1.3839
   57MOL   H16713719   2.976   4.151   3.710  1.1932 -0.2982 -0.1105
   57MOL   H16813720   2.977   4.331   3.744 -1.2698  0.2946  1.3575
   57MOL   H16913721   3.395   4.022   3.679  0.7039  1.7336  2.8666
   57MOL   C17013722   3.266   4.360   3.747  0.0554  0.4351 -0.7201
   57MOL   C17113723   3.280   4.427   3.893  0.1933  0.0763  1.3328
   57MOL   C17213724   3.140   4.456   3.959 -0.1889  0.8334  0.6370
   57MOL   C17313725   3.354   4.330   3.985  0.6946  0.0527  0.1610
   57MOL   O17413726   3.392   4.223   3.960  0.5320  0.1925  0.0601
   57MOL   O17513727   3.366   4.384   4.107  0.1105  0.0874 -0.6483
   57MOL   H17613728   3.369   4.332   3.724  0.6907  2.6248 -0.6739
   57MOL   H17713729   3.258   4.442   3.677 -0.4771 -0.5376 -1.8091
   57MOL   H17813730   3.106   4.371   4.019  1.8487  0.2065  0.9206
   57MOL   H17913731   3.058   4.484   3.892  0.4592 -0.9869 -0.9360
   57MOL   H18013732   3.146   4.542   4.026  1.7227  0.8607  0.4494
   57MOL   H18113733   3.329   4.471   4.106  2.7067  1.2389 -1.9135
   57MOL   C18213734   3.359   4.564   3.882 -0.2561 -0.4471  0.2069
   57MOL   C18313735   3.510   4.593   3.823 -0.0187 -0.3961 -0.0125
   57MOL   C18413736   3.500   4.596   3.670 -0.2872 -0.1942 -0.1810
   57MOL   C18513737   3.561   4.733   3.875  0.2657  0.5937  0.5628
   57MOL   O18613738   3.539   4.766   3.990  0.1029 -0.5459  0.1569
   57MOL   O18713739   3.628   4.808   3.781 -0.0625  0.2865 -0.3094
   57MOL   H18813740   3.284   4.624   3.831 -0.7708 -0.0064  1.4597
   57MOL   H18913741   3.350   4.608   3.981 -1.9334 -0.1477 -0.0771
   57MOL   H19013742   3.429   4.673   3.641 -0.7806  0.2513  2.1244
   57MOL   H19113743   3.456   4.503   3.637 -2.0809  0.4399  0.3847
   57MOL   H19213744   3.594   4.609   3.616 -0.6672 -1.3097 -1.1402
   57MOL   H19313745   3.660   4.890   3.815  0.1586  0.6486 -1.3804
   57MOL   C19413746   3.611   4.489   3.880  0.4868 -0.3973 -0.8220
   57MOL   C19513747   3.769   4.484   3.864  0.0878 -0.0681  0.0475
   57MOL   C19613748   3.841   4.604   3.945 -0.3874 -0.1664  0.2912
   57MOL   C19713749   3.808   4.353   3.929 -0.2100  0.4536  0.5395
   57MOL   O19813750   3.854   4.337   4.044 -0.0049 -0.1278 -0.3344
   57MOL   O19913751   3.779   4.244   3.849 -0.0251 -0.5864 -0.7155
   57MOL   H20013752   3.583   4.488   3.986  0.9504 -0.0447 -0.6976
   57MOL   H20113753   3.570   4.395   3.844  0.8117 -0.5192 -0.8750
   57MOL   H20213754   3.833   4.704   3.902  1.8727  0.0755  0.3669
   57MOL   H20313755   3.940   4.575   3.980 -0.3453 -0.8159 -0.3374
   57MOL   H20413756   3.780   4.620   4.034 -0.2994 -1.0873  0.5238
   57MOL   H20513757   3.815   4.160   3.871 -0.0149 -0.3824  0.0515
   57MOL   C20613758   3.822   4.498   3.712 -0.1742 -0.2962 -0.3121
   57MOL   C20713759   3.964   4.459   3.659 -1.1155  0.5178 -0.3611
   57MOL   C20813760   4.069   4.540   3.749 -0.4254  0.0468  0.3575
   57MOL   C20913761   3.993   4.309   3.660  0.2939  0.1047 -0.1769
   57MOL   O21013762   3.953   4.229   3.572 -0.0573  0.0882 -0.1621
   57MOL   O21113763   4.061   4.271   3.770 -0.3331 -0.3032 -0.3836
   57MOL   H21213764   3.744   4.451   3.650  0.6294 -3.3836  0.9199
   57MOL   H21313765   3.822   4.607   3.709 -0.2202 -0.2616  1.0447
   57MOL   H21413766   4.067   4.502   3.851  0.2000 -0.4041  0.2091
   57MOL   H21513767   4.048   4.645   3.732 -0.1192 -0.0343 -0.5509
   57MOL   H21613768   4.175   4.520   3.731 -0.2719  0.8712  0.3120
   57MOL   H21713769   4.080   4.178   3.773  2.3686  0.2673  1.1519
   57MOL   C21813770   3.974   4.514   3.514 -0.0612  0.0358  0.0801
   57MOL   C21913771   4.112   4.532   3.440 -0.0389  0.5511 -0.3701
   57MOL   C22013772   4.176   4.673   3.489  0.3108 -0.1447 -0.3159
   57MOL   C22113773   4.207   4.409   3.464 -0.0583  0.5401  0.0312
   57MOL   O22213774   4.187   4.299   3.414  0.5152 -0.5520  0.4683
   57MOL   O22313775   4.312   4.436   3.544  0.5469 -0.9843 -0.8195
   57MOL   H22413776   3.898   4.465   3.453  0.5629  1.8438 -2.2111
   57MOL   H22513777   3.929   4.613   3.514  1.2689  0.6700 -2.0867
   57MOL   H22613778   4.214   4.671   3.591  0.9167  2.0999 -0.4864
   57MOL   H22713779   4.106   4.756   3.481  0.0243 -0.3902 -0.4079
   57MOL   H22813780   4.262   4.694   3.426 -1.4387  0.4492 -2.6026
   57MOL   H22913781   4.373   4.365   3.540  0.2661 -1.5365  3.0877
   57MOL   C23013782   4.091   4.527   3.287  0.5616 -0.0410 -0.2853
   57MOL   C23113783   4.212   4.533   3.190  0.4748 -0.0593  0.2326
   57MOL   C23213784   4.227   4.402   3.102  0.3019 -0.6465  0.2133
   57MOL   C23313785   4.201   4.659   3.100  0.1888  0.2411 -0.3543
   57MOL   O23413786   4.248   4.764   3.131 -0.5458  0.2474  0.1927
   57MOL   O23513787   4.127   4.637   2.984  0.8255 -0.0666 -0.1058
   57MOL   H23613788   4.040   4.433   3.267  0.2880  0.1170 -0.3366
   57MOL   H23713789   4.025   4.611   3.265  0.0161 -0.2013  0.7019
   57MOL   H23813790   4.136   4.371   3.050  1.0967 -0.1133 -1.5519
   57MOL   H23913791   4.274   4.317   3.150 -0.9534 -1.9737 -0.8854
   57MOL   H24013792   4.297   4.427   3.022 -1.3718  0.5389 -0.9259
   57MOL   H24113793   4.132   4.709   2.924  0.0046  0.5024  0.5029
   57MOL   H24213794   4.302   4.562   3.244  0.2694  2.0512 -0.5159
   58MOL     C113795   2.726   2.753   1.666  0.0423  0.4512  0.1791
   58MOL     C213796   2.640   2.645   1.609 -0.8536 -0.3501  0.2363
   58MOL     C313797   2.683   2.520   1.680 -0.3798  0.4584  0.0344
   58MOL     C413798   2.489   2.679   1.624  0.6895  0.6387  0.0710
   58MOL     O513799   2.439   2.786   1.596 -0.3135  0.4339  0.1392
   58MOL     O613800   2.411   2.579   1.672  0.2206  0.1406  0.3372
   58MOL     H713801   2.833   2.745   1.646 -0.1726  0.3329 -0.9441
   58MOL     H813802   2.735   2.754   1.775 -1.6476 -0.5216  0.3566
   58MOL     H913803   2.614   2.441   1.651  0.7268 -1.4334  2.3405
   58MOL    H1013804   2.664   2.521   1.788  0.3780  1.0879  0.1670
   58MOL    H1113805   2.789   2.501   1.664 -0.7056 -0.2878 -1.2327
   58MOL    H1213806   2.327   2.621   1.678 -0.4611 -0.8626 -1.7065
   58MOL    H1313807   2.699   2.855   1.640  0.5548  0.4950 -0.1883
   58MOL    C1413808   2.672   2.642   1.457 -0.1032 -0.1440  0.6467
   58MOL    C1513809   2.593   2.556   1.344 -0.0860  0.2262  0.5657
   58MOL    C1613810   2.560   2.409   1.389 -0.5561 -0.0540  0.3077
   58MOL    C1713811   2.462   2.624   1.311 -0.7331  0.7200  0.2474
   58MOL    O1813812   2.365   2.565   1.269 -0.0885 -0.3624  0.1980
   58MOL    O1913813   2.472   2.762   1.314 -0.0693 -0.7323 -0.0330
   58MOL    H2013814   2.671   2.748   1.428 -1.7813  0.0076  1.1970
   58MOL    H2113815   2.774   2.605   1.448 -1.7622 -4.6364 -0.6731
   58MOL    H2213816   2.651   2.353   1.410  1.1514  2.2007 -0.8075
   58MOL    H2313817   2.509   2.372   1.300 -0.7355  1.8796 -0.4186
   58MOL    H2413818   2.491   2.405   1.473 -2.3079  0.1056 -1.0828
   58MOL    H2513819   2.406   2.804   1.261 -2.9941 -3.6894  1.0709
   58MOL    C2613820   2.690   2.562   1.215  0.0209 -1.1960  0.2003
   58MOL    C2713821   2.660   2.501   1.069  0.1498 -0.6636 -0.0846
   58MOL    C2813822   2.625   2.351   1.067 -0.1304  0.1591 -0.1115
   58MOL    C2913823   2.542   2.577   1.004  0.2411  0.0264 -0.0201
   58MOL    O3013824   2.453   2.522   0.940  0.7399 -0.0821 -0.2153
   58MOL    O3113825   2.562   2.707   1.000 -0.0189 -0.7778 -0.0270
   58MOL    H3213826   2.730   2.663   1.207 -0.2528 -0.9780  1.4374
   58MOL    H3313827   2.770   2.498   1.254  2.2922  0.8577 -0.9053
   58MOL    H3413828   2.679   2.300   1.147 -0.4372  1.5385  0.9730
   58MOL    H3513829   2.641   2.309   0.967  0.5711 -0.0688  0.0904
   58MOL    H3613830   2.523   2.328   1.096  0.0392 -0.8253 -0.2675
   58MOL    H3713831   2.530   2.739   0.917 -0.0340 -0.6015  0.0471
   58MOL    C3813832   2.785   2.525   0.961 -1.4144 -0.0188  0.3006
   58MOL    C3913833   2.936   2.486   0.989  0.0692 -0.2977  0.4211
   58MOL    C4013834   3.008   2.587   1.088  0.4800 -0.9324  0.4700
   58MOL    C4113835   2.947   2.337   1.046  0.1735  0.2601  0.0443
   58MOL    O4213836   2.963   2.240   0.968 -0.9164  0.5164  0.0014
   58MOL    O4313837   2.941   2.328   1.176 -0.4765 -0.0033  0.1872
   58MOL    H4413838   2.765   2.470   0.870 -0.8631 -2.9612  1.8996
   58MOL    H4513839   2.778   2.626   0.919 -2.3046 -0.5805 -0.9012
   58MOL    H4613840   3.049   2.664   1.022 -0.5753 -0.8910 -0.1474
   58MOL    H4713841   3.090   2.538   1.139  1.1128  0.8774  1.2545
   58MOL    H4813842   2.953   2.635   1.170  1.7968  0.6849  0.4364
   58MOL    H4913843   2.960   2.237   1.192  0.2382  0.1237  0.1226
   58MOL    C5013844   3.007   2.478   0.845  0.2840 -0.6327  0.4255
   58MOL    C5113845   3.166   2.462   0.813  0.0832 -0.9284  0.2909
   58MOL    C5213846   3.170   2.442   0.656  0.2974  0.0575  0.5532
   58MOL    C5313847   3.246   2.589   0.838  1.2963  0.2933  0.3617
   58MOL    O5413848   3.314   2.600   0.939  0.3389  0.2436  0.0323
   58MOL    O5513849   3.239   2.690   0.743  0.6000  0.2945  0.2048
   58MOL    H5613850   2.960   2.405   0.779  3.0676 -2.9374  0.8948
   58MOL    H5713851   2.985   2.578   0.807  0.2008 -0.3533  1.2050
   58MOL    H5813852   3.154   2.339   0.623 -0.5434  0.6367 -0.9127
   58MOL    H5913853   3.262   2.477   0.609  0.5943 -1.9539 -0.4424
   58MOL    H6013854   3.097   2.502   0.602 -0.8318 -0.7284  1.1982
   58MOL    H6113855   3.292   2.761   0.775  0.4732  2.3748 -3.8198
   58MOL    C6213856   3.225   2.335   0.880 -0.7096  0.3783  0.0660
   58MOL    C6313857   3.375   2.285   0.861  0.2808 -0.9844  0.0905
   58MOL    C6413858   3.429   2.318   0.724  0.3721  0.0151  0.1609
   58MOL    C6513859   3.476   2.358   0.959 -0.4559  0.4315  0.3144
   58MOL    O6613860   3.582   2.402   0.924 -0.1482 -0.0701 -0.1147
   58MOL    O6713861   3.440   2.360   1.084 -0.5490  0.5408 -0.1606
   58MOL    H6813862   3.205   2.343   0.987 -2.3242 -0.2601 -0.1783
   58MOL    H6913863   3.158   2.252   0.856 -1.6743  0.8018  1.2226
   58MOL    H7013864   3.523   2.263   0.716  0.1473 -0.6349  1.6914
   58MOL    H7113865   3.458   2.420   0.697  1.7515 -0.4103  0.0057
   58MOL    H7213866   3.373   2.282   0.638 -0.6919 -0.0672  0.8828
   58MOL    H7313867   3.495   2.418   1.134 -1.5914  1.4711 -0.0654
   58MOL    C7413868   3.372   2.129   0.872  0.0027  0.2215  0.1558
   58MOL    C7513869   3.460   2.034   0.960  0.5109  0.5366  0.8831
   58MOL    C7613870   3.611   2.061   0.921  0.5576 -0.2385  0.0754
   58MOL    C7713871   3.435   2.054   1.109 -0.5324  0.3037  0.6631
   58MOL    O7813872   3.323   2.047   1.160 -0.5619  0.2660  0.2861
   58MOL    O7913873   3.547   2.077   1.184 -0.7923 -0.3092 -0.2036
   58MOL    H8013874   3.272   2.094   0.895 -1.0250  2.3226 -0.9617
   58MOL    H8113875   3.388   2.091   0.771 -0.3894  1.0074 -0.2002
   58MOL    H8213876   3.634   2.159   0.963  1.5363 -0.1599 -0.6102
   58MOL    H8313877   3.625   2.056   0.813 -3.0062 -0.7070 -0.4038
   58MOL    H8413878   3.681   1.986   0.959 -1.1446 -1.2378  1.2676
   58MOL    H8513879   3.514   2.093   1.271  0.0651  0.4475 -0.0053
   58MOL    C8613880   3.413   1.883   0.923  0.0094 -0.5248  0.0061
   58MOL    C8713881   3.458   1.749   0.985 -0.3985  0.3479 -0.1589
   58MOL    C8813882   3.402   1.646   0.887  0.4349 -0.2212  1.0159
   58MOL    C8913883   3.612   1.745   0.991  0.2572  0.0851  0.4139
   58MOL    O9013884   3.665   1.760   1.100 -0.0698 -0.4880  0.0082
   58MOL    O9113885   3.675   1.711   0.879 -0.4891  0.5366  0.0629
   58MOL    H9213886   3.305   1.878   0.911  0.1787  1.4573 -2.7039
   58MOL    H9313887   3.450   1.870   0.822 -0.0216  0.0927 -0.0839
   58MOL    H9413888   3.295   1.632   0.899  0.2049 -0.9045 -1.5134
   58MOL    H9513889   3.455   1.550   0.889 -1.6914 -1.5045 -1.4782
   58MOL    H9613890   3.409   1.672   0.782 -0.4982  0.4524  1.1188
   58MOL    H9713891   3.769   1.719   0.893 -0.7861  2.7277  0.9370
   58MOL    C9813892   3.392   1.725   1.125 -0.1743 -0.0316  0.2631
   58MOL    C9913893   3.376   1.585   1.193 -0.0173  0.0462 -0.1059
   58MOL   C10013894   3.507   1.498   1.178 -0.3289 -0.0109  0.3068
   58MOL   C10113895   3.363   1.626   1.337 -0.1625  0.0966 -0.1056
   58MOL   O10213896   3.257   1.619   1.404 -0.3127  1.1591  0.1698
   58MOL   O10313897   3.477   1.680   1.393  0.1499  1.2683  0.2863
   58MOL   H10413898   3.451   1.791   1.188 -1.9569 -0.3062  2.2717
   58MOL   H10513899   3.288   1.754   1.121  0.4561  2.4636  1.3860
   58MOL   H10613900   3.591   1.560   1.210 -0.9495  0.1685  1.6312
   58MOL   H10713901   3.527   1.449   1.083  2.6982 -1.7277  1.7729
   58MOL   H10813902   3.512   1.421   1.255  2.4902 -0.1112  0.0655
   58MOL   H10913903   3.462   1.690   1.486 -1.2350  1.6789  0.0203
   58MOL   C11013904   3.240   1.515   1.149 -0.1158  0.1438 -0.5170
   58MOL   C11113905   3.186   1.371   1.188 -0.0271 -0.0852  0.2870
   58MOL   C11213906   3.271   1.293   1.290 -0.3136  0.0784 -0.1067
   58MOL   C11313907   3.044   1.391   1.258 -0.5509  0.1138 -0.1935
   58MOL   O11413908   2.939   1.345   1.207 -0.4228 -0.1087 -0.2440
   58MOL   O11513909   3.052   1.463   1.375  0.6883  0.1077 -0.5580
   58MOL   H11613910   3.164   1.587   1.178 -0.1887  0.3057 -1.1212
   58MOL   H11713911   3.232   1.508   1.041 -2.2826 -1.2226 -0.3029
   58MOL   H11813912   3.228   1.197   1.318 -1.4530  0.8297  0.7231
   58MOL   H11913913   3.312   1.349   1.373 -0.7698 -0.2594  0.3460
   58MOL   H12013914   3.363   1.258   1.242 -0.8800  0.2631 -1.3662
   58MOL   H12113915   3.137   1.503   1.382  1.5868 -1.6029 -1.3469
   58MOL   C12213916   3.150   1.267   1.065  0.4295 -1.0330 -1.0657
   58MOL   C12313917   3.246   1.215   0.949  0.0645 -0.4852  0.3779
   58MOL   C12413918   3.325   1.328   0.867 -0.4727  0.5201  0.0634
   58MOL   C12513919   3.352   1.130   1.013 -0.3107  0.4543  0.3175
   58MOL   O12613920   3.472   1.161   1.026  0.2348 -0.0499  0.3081
   58MOL   O12713921   3.307   1.011   1.061 -0.1056 -0.4540 -0.5587
   58MOL   H12813922   3.090   1.184   1.102  0.0369 -1.2416 -2.1587
   58MOL   H12913923   3.076   1.317   1.003 -0.8546 -2.8137 -1.0183
   58MOL   H13013924   3.253   1.404   0.837 -0.5937 -0.0286 -1.0584
   58MOL   H13113925   3.381   1.297   0.778 -1.4809  2.9158 -1.4663
   58MOL   H13213926   3.403   1.378   0.925 -1.5261  2.1435  0.1136
   58MOL   H13313927   3.391   0.972   1.082 -0.9403 -1.1309  1.7000
   58MOL   C13413928   3.164   1.124   0.856  0.8863  0.6083  0.1784
   58MOL   C13513929   3.060   1.163   0.748  0.6211  0.3682  0.3694
   58MOL   C13613930   2.953   1.270   0.791  0.5467 -0.0165 -0.2116
   58MOL   C13713931   3.118   1.217   0.615 -0.6547 -0.6477  0.1048
   58MOL   O13813932   3.241   1.212   0.591 -0.4366  0.0629 -0.0852
   58MOL   O13913933   3.024   1.277   0.529 -0.7632 -0.0002  0.1213
   58MOL   H14013934   3.239   1.061   0.807  2.1589  1.7626  0.6091
   58MOL   H14113935   3.105   1.060   0.921  0.0997  0.1961 -0.9188
   58MOL   H14213936   2.862   1.274   0.731  0.5275  1.8197 -0.0842
   58MOL   H14313937   2.985   1.374   0.790 -0.3919  0.2970  1.1502
   58MOL   H14413938   2.925   1.253   0.895 -0.4755 -1.3774 -0.6882
   58MOL   H14513939   2.938   1.281   0.568  0.6339 -1.7879  3.5983
   58MOL   C14613940   2.974   1.038   0.712 -0.6927 -0.9344 -0.1347
   58MOL   C14713941   3.018   0.898   0.660 -0.4083  0.6227 -1.1097
   58MOL   C14813942   3.137   0.911   0.568 -0.3984 -0.5069  0.1620
   58MOL   C14913943   3.051   0.801   0.775 -0.5309 -0.3915  0.1891
   58MOL   O15013944   3.032   0.822   0.893 -0.5040 -0.0732 -0.2366
   58MOL   O15113945   3.096   0.683   0.721 -0.4718 -0.1704  0.7263
   58MOL   H15213946   2.921   1.010   0.803 -1.9520 -1.3578 -0.9912
   58MOL   H15313947   2.893   1.081   0.654  0.5657 -0.8179 -1.8601
   58MOL   H15413948   3.140   0.824   0.502  0.7909 -1.9840  2.0890
   58MOL   H15513949   3.234   0.917   0.619 -0.0430 -1.6321 -0.3553
   58MOL   H15613950   3.123   0.990   0.494 -0.8628 -0.6757  0.0662
   58MOL   H15713951   3.095   0.619   0.790 -1.8873 -1.9251 -0.8622
   58MOL   C15813952   2.905   0.841   0.563 -0.5100 -0.3805 -0.5372
   58MOL   C15913953   2.763   0.787   0.610 -0.5027 -0.1001  0.7604
   58MOL   C16013954   2.776   0.679   0.719 -0.1642  0.0725 -1.2793
   58MOL   C16113955   2.670   0.910   0.648  0.4055 -0.4514 -0.2932
   58MOL   O16213956   2.676   1.022   0.601 -0.1045 -0.8856 -0.2269
   58MOL   O16313957   2.576   0.870   0.741 -0.3734  0.0372  0.4628
   58MOL   H16413958   2.886   0.923   0.494 -0.1646  0.0178 -0.1569
   58MOL   H16513959   2.946   0.751   0.518  0.6591  0.2814 -0.8113
   58MOL   H16613960   2.859   0.612   0.697  0.0911 -0.7275  1.7906
   58MOL   H16713961   2.681   0.625   0.711 -0.9305  0.9896  1.0616
   58MOL   H16813962   2.787   0.718   0.821 -0.1616  0.5602 -1.4661
   58MOL   H16913963   2.521   0.940   0.772 -0.8205  0.6484 -1.6351
   58MOL   C17013964   2.688   0.710   0.491  0.0398 -0.0701  0.1973
   58MOL   C17113965   2.688   0.739   0.337 -0.4207  0.3171  0.8119
   58MOL   C17213966   2.662   0.889   0.322  0.2902 -0.6374 -0.1869
   58MOL   C17313967   2.828   0.704   0.274 -0.7160  0.4321 -0.1957
   58MOL   O17413968   2.901   0.782   0.215 -0.3746  0.1933  0.1033
   58MOL   O17513969   2.859   0.574   0.287  0.2802  0.8335  0.2920
   58MOL   H17613970   2.701   0.602   0.493  0.7582 -0.0585 -1.9956
   58MOL   H17713971   2.582   0.719   0.514 -0.0192 -0.0645 -0.0701
   58MOL   H17813972   2.570   0.920   0.372  1.2655  0.2570  1.0680
   58MOL   H17913973   2.651   0.897   0.214 -1.1802  1.2525  0.0776
   58MOL   H18013974   2.748   0.952   0.343 -0.4787  0.3693 -0.0318
   58MOL   H18113975   2.923   0.546   0.223  1.4050  0.2322  1.6525
   58MOL   C18213976   2.572   0.648   0.273 -0.0981  0.5722 -0.4248
   58MOL   C18313977   2.504   0.663   0.129 -1.0663 -0.4901 -0.4675
   58MOL   C18413978   2.616   0.683   0.026 -0.8143 -0.4262  0.1306
   58MOL   C18513979   2.426   0.532   0.106  0.0051  0.3625  0.4603
   58MOL   O18613980   2.359   0.478   0.192 -0.0534 -0.0721  0.1914
   58MOL   O18713981   2.432   0.492   7.750 -0.2461  0.3315  0.2007
   58MOL   H18813982   2.607   0.545   0.282 -0.4889  0.3900 -0.9817
   58MOL   H18913983   2.487   0.652   0.341 -0.4206  0.9723 -0.8504
   58MOL   H19013984   2.690   0.603   0.020 -0.0240  0.4663 -3.6985
   58MOL   H19113985   2.665   0.779   0.043 -3.3020  1.0194 -0.6812
   58MOL   H19213986   2.574   0.678   7.693  2.2974 -1.5787 -1.1874
   58MOL   H19313987   2.370   0.422   7.736  1.8076 -1.7925  1.3062
   58MOL   C19413988   2.400   0.778   0.141  0.1389  0.1616  0.3267
   58MOL   C19513989   2.347   0.869   0.018  0.4134  0.1200 -0.1377
   58MOL   C19613990   2.286   0.777   7.676  0.1240 -0.2839  0.6372
   58MOL   C19713991   2.228   0.951   0.081  0.1267 -0.0432  0.2156
   58MOL   O19813992   2.117   0.953   0.040  0.2527  0.2014 -0.2799
   58MOL   O19913993   2.268   1.019   0.185 -0.0306  0.5338 -1.0331
   58MOL   H20013994   2.314   0.733   0.191  2.2634 -2.0426  2.0954
   58MOL   H20113995   2.444   0.839   0.221 -2.4961 -0.6346  2.4493
   58MOL   H20213996   2.216   0.701   7.712 -0.9714 -0.8924 -2.5884
   58MOL   H20313997   2.366   0.727   7.620 -2.5052  0.3227 -3.8850
   58MOL   H20413998   2.231   0.831   7.599 -2.4037 -2.6119  0.7327
   58MOL   H20513999   2.360   0.999   0.189 -0.1229  0.3888  0.5897
   58MOL   C20614000   2.465   0.955   7.713 -0.4948  0.5246 -0.2415
   58MOL   C20714001   2.441   1.094   7.643  0.0195 -0.4234 -0.2246
   58MOL   C20814002   2.428   1.204   7.748  0.4245 -1.0815 -0.5461
   58MOL   C20914003   2.577   1.124   7.574  0.4237  0.3504 -0.2437
   58MOL   O21014004   2.668   1.183   7.629 -0.2488 -0.2555  0.1517
   58MOL   O21114005   2.596   1.060   7.455 -0.4494 -0.3888 -0.5414
   58MOL   H21214006   2.537   0.976   0.025  0.8658  1.1459 -1.6141
   58MOL   H21314007   2.518   0.896   7.639  2.5988  1.7167  0.9099
   58MOL   H21414008   2.477   1.299   7.726 -0.4046 -0.0864  1.7372
   58MOL   H21514009   2.463   1.179   0.081  0.3909 -0.4844 -0.3825
   58MOL   H21614010   2.326   1.233   0.003  0.6701 -0.4913 -0.1844
   58MOL   H21714011   2.674   1.081   7.405  1.4605 -2.8819  1.2371
   58MOL   C21814012   2.321   1.094   7.542  1.0175  0.8357 -0.0406
   58MOL   C21914013   2.279   1.214   7.457 -0.4565  1.4667 -0.6030
   58MOL   C22014014   2.257   1.344   7.544  0.2137 -0.8636 -0.1078
   58MOL   C22114015   2.378   1.245   7.345  0.0591  0.2043 -0.3940
   58MOL   O22214016   2.445   1.346   7.341 -0.4562  0.0426 -0.2130
   58MOL   O22314017   2.371   1.143   7.253  0.0110  0.2399 -0.7025
   58MOL   H22414018   2.345   1.014   7.473 -0.8509  1.9009 -2.0000
   58MOL   H22514019   2.242   1.054   7.606  0.6607 -1.1538 -1.6948
   58MOL   H22614020   2.203   1.331   7.639  1.7007 -1.8411  0.6173
   58MOL   H22714021   2.190   1.413   7.492 -2.2701 -1.1081  2.6101
   58MOL   H22814022   2.350   1.399   7.556 -0.6108  0.9629 -1.7183
   58MOL   H22914023   2.420   1.173   7.178  2.0322  0.0897  0.5125
   58MOL   C23014024   2.134   1.184   7.397  0.6239  0.2173  0.2393
   58MOL   C23114025   2.021   1.151   7.498 -0.4548  0.2203  0.0551
   58MOL   C23214026   1.894   1.225   7.452  0.0131 -0.5235 -0.2318
   58MOL   C23314027   1.993   0.997   7.514  0.6211  0.0427  0.0698
   58MOL   O23414028   2.053   0.916   7.448  0.2519  0.1895  0.0409
   58MOL   O23514029   1.888   0.969   7.598  0.1751 -0.3226 -0.0596
   58MOL   H23614030   2.108   1.271   7.338  2.1008  0.4700 -0.0650
   58MOL   H23714031   2.150   1.100   7.328  0.2838 -0.6807  1.2389
   58MOL   H23814032   1.916   1.331   7.467  2.8183 -1.1590  0.4586
   58MOL   H23914033   1.810   1.190   7.512  2.1921 -3.1422  1.4487
   58MOL   H24014034   1.873   1.204   7.348 -1.2272 -1.2298  0.1499
   58MOL   H24114035   1.891   0.876   7.614  0.8837 -0.1137  1.0902
   58MOL   H24214036   2.057   1.182   7.596 -1.0630 -1.5695  0.8717
   59MOL     C114037   5.527   6.940   5.253 -0.6370 -0.5981 -0.0131
   59MOL     C214038   5.628   6.905   5.375  0.0047  0.0402 -0.4415
   59MOL     C314039   5.560   6.966   5.499 -0.3197 -0.5411 -0.5667
   59MOL     C414040   5.634   6.752   5.394  0.2608  0.2338  0.0511
   59MOL     O514041   5.572   6.666   5.332 -0.1213  0.2918  0.2470
   59MOL     O614042   5.716   6.719   5.497  0.3846 -0.0559  0.1165
   59MOL     H714043   5.429   6.909   5.288 -1.0427  0.3634 -0.2830
   59MOL     H814044   5.557   6.881   5.166  0.2600 -1.0405  0.5875
   59MOL     H914045   5.454   6.941   5.494 -1.1614  2.3470  1.5375
   59MOL    H1014046   5.573   7.073   5.512 -2.6055 -0.2497 -0.3677
   59MOL    H1114047   5.587   6.924   5.596  0.7389  3.0472  0.7723
   59MOL    H1214048   5.708   6.625   5.506  0.0539 -0.3378 -2.7913
   59MOL    H1314049   5.521   7.044   5.223 -0.7825 -0.4340  0.5926
   59MOL    C1414050   5.770   6.967   5.354  0.2570 -0.6743 -0.1235
   59MOL    C1514051   5.860   6.959   5.218  0.2008 -0.2151 -0.1503
   59MOL    C1614052   5.891   6.815   5.176  0.7522 -0.1622  0.2472
   59MOL    C1714053   5.776   7.027   5.106 -0.2789 -0.0393  0.5409
   59MOL    O1814054   5.731   6.968   5.008 -0.2913 -0.0377 -0.3634
   59MOL    O1914055   5.763   7.164   5.129 -0.4281 -0.1046 -0.2480
   59MOL    H2014056   5.771   7.073   5.377  1.8731  0.3144 -4.2804
   59MOL    H2114057   5.837   6.929   5.432 -0.0631 -2.5445 -0.7289
   59MOL    H2214058   5.939   6.761   5.258 -0.1503 -1.8762 -0.3262
   59MOL    H2314059   5.953   6.809   5.087  0.6679  0.2297  0.1610
   59MOL    H2414060   5.796   6.763   5.165  1.2435 -0.9681 -0.1734
   59MOL    H2514061   5.715   7.205   5.059  1.7861  1.3597 -0.9620
   59MOL    C2614062   5.995   7.048   5.237 -0.2019 -0.4553  0.1161
   59MOL    C2714063   6.123   7.036   5.146  0.1836  0.4739 -0.1309
   59MOL    C2814064   6.197   7.159   5.187  0.1618 -0.1047  0.3412
   59MOL    C2914065   6.201   6.913   5.184 -0.2930 -0.3813  0.5858
   59MOL    O3014066   6.200   6.815   5.108 -0.4367 -0.2577  0.1404
   59MOL    O3114067   6.269   6.921   5.302 -0.2713 -0.2942  0.1712
   59MOL    H3214068   5.970   7.153   5.251  0.2396 -0.3581  0.1885
   59MOL    H3314069   6.020   7.022   5.339 -1.5215 -1.4582  0.2008
   59MOL    H3414070   6.301   7.168   5.157 -0.3345  0.7530 -1.1775
   59MOL    H3514071   6.193   7.174   5.295  1.2593 -2.3186  0.7276
   59MOL    H3614072   6.143   7.239   5.137  1.6540  0.1547 -0.8702
   59MOL    H3714073   6.317   6.841   5.313  0.0182  0.0466  1.4580
   59MOL    C3814074   6.094   7.044   4.987  0.0047  0.1854 -0.7109
   59MOL    C3914075   6.182   7.108   4.871  0.0626  0.4430  0.5486
   59MOL    C4014076   6.127   7.253   4.871  1.3198 -0.2161  0.9158
   59MOL    C4114077   6.337   7.116   4.905  0.5767  0.2927  0.3879
   59MOL    O4214078   6.405   7.218   4.888  0.2222 -0.4186 -0.5978
   59MOL    O4314079   6.379   7.001   4.957 -0.2551 -0.0924 -0.1650
   59MOL    H4414080   6.076   6.945   4.944  0.3208 -0.2042  0.0307
   59MOL    H4514081   5.991   7.074   4.974 -0.3291 -0.8329 -0.4722
   59MOL    H4614082   6.152   7.310   4.781  0.1424  0.0322  0.7356
   59MOL    H4714083   6.168   7.322   4.945  3.1327 -1.2691  0.9168
   59MOL    H4814084   6.018   7.253   4.876  1.2210 -1.6012 -0.7081
   59MOL    H4914085   6.473   7.000   4.959 -0.2448 -1.5543 -0.7676
   59MOL    C5014086   6.158   7.037   4.730  0.1269 -0.1243 -0.5026
   59MOL    C5114087   6.230   6.914   4.666 -0.2832  0.2038 -0.2084
   59MOL    C5214088   6.371   6.963   4.629 -0.1203 -0.1124  0.7506
   59MOL    C5314089   6.221   6.790   4.762 -0.3469  0.7751 -0.1121
   59MOL    O5414090   6.321   6.742   4.823  0.1876  0.1320 -0.2380
   59MOL    O5514091   6.096   6.734   4.768 -0.3912  0.1460 -0.5472
   59MOL    H5614092   6.051   7.018   4.728 -0.3327  2.2803  0.1903
   59MOL    H5714093   6.160   7.125   4.666 -0.6896  0.8518  0.7886
   59MOL    H5814094   6.418   6.889   4.564 -0.0258  1.6770 -1.2868
   59MOL    H5914095   6.440   6.965   4.714  0.2028 -1.0128  0.5117
   59MOL    H6014096   6.378   7.063   4.585  0.5825 -0.1502  0.7696
   59MOL    H6114097   6.094   6.655   4.819  0.3260  0.7932  0.4876
   59MOL    C6214098   6.147   6.887   4.536 -0.1936  0.0678 -0.2911
   59MOL    C6314099   6.193   6.797   4.419 -0.0354  0.4342 -0.1161
   59MOL    C6414100   6.270   6.676   4.461 -0.4374  0.5957  0.1722
   59MOL    C6514101   6.065   6.739   4.354 -0.6946 -0.1884 -0.0399
   59MOL    O6614102   6.054   6.625   4.309  0.2859  0.3716 -0.0776
   59MOL    O6714103   5.960   6.820   4.343 -0.0305  0.4298 -0.4129
   59MOL    H6814104   6.051   6.851   4.572  1.0129 -0.8391  2.1137
   59MOL    H6914105   6.123   6.980   4.483 -1.5269 -0.6958 -1.0526
   59MOL    H7014106   6.218   6.609   4.529  0.8050 -0.9252 -0.3338
   59MOL    H7114107   6.373   6.688   4.496  0.1722 -1.0903 -0.9743
   59MOL    H7214108   6.296   6.620   4.371  0.1454  2.0580 -0.5840
   59MOL    H7314109   5.969   6.909   4.371 -0.5503  0.3724 -0.0657
   59MOL    C7414110   6.285   6.883   4.327 -0.4945 -0.5797 -0.4165
   59MOL    C7514111   6.290   6.881   4.169  0.0111 -0.7084 -0.3498
   59MOL    C7614112   6.418   6.964   4.141  0.0964  0.0482 -0.3672
   59MOL    C7714113   6.309   6.730   4.123  0.5367 -1.3189  0.0878
   59MOL    O7814114   6.218   6.663   4.066  0.1627  0.0304  0.0965
   59MOL    O7914115   6.428   6.672   4.159  0.3359 -0.1866 -0.7283
   59MOL    H8014116   6.293   6.988   4.352  2.1208 -0.4869 -1.5088
   59MOL    H8114117   6.387   6.855   4.353  0.3058  1.8052 -0.8684
   59MOL    H8214118   6.416   7.060   4.192 -1.2012  0.3775 -1.0287
   59MOL    H8314119   6.425   6.991   4.036  2.0751  1.4870  0.1130
   59MOL    H8414120   6.510   6.920   4.179  0.2385  1.3815  0.8401
   59MOL    H8514121   6.433   6.582   4.131  2.2156 -0.6297  0.8956
   59MOL    C8614122   6.156   6.948   4.114 -0.4218 -0.2758  0.3963
   59MOL    C8714123   6.143   7.029   3.974 -0.1862  0.0407 -0.4681
   59MOL    C8814124   6.211   7.173   3.985 -0.8051  0.1816 -0.0507
   59MOL    C8914125   6.211   6.953   3.861 -0.4515 -0.3153 -0.2724
   59MOL    O9014126   6.312   6.993   3.806 -0.2770  0.7257 -0.1708
   59MOL    O9114127   6.150   6.835   3.832 -0.3590 -0.5459 -0.0677
   59MOL    H9214128   6.079   6.871   4.115 -1.0107  0.2600 -1.4898
   59MOL    H9314129   6.125   7.022   4.189 -0.5927  1.2278 -1.1291
   59MOL    H9414130   6.213   7.211   3.883  1.5580  0.8995  0.2473
   59MOL    H9514131   6.306   7.169   4.037  0.3489  0.0558 -2.1062
   59MOL    H9614132   6.150   7.244   4.041 -1.5684 -0.7888  0.3718
   59MOL    H9714133   6.078   6.810   3.888  1.2066 -0.4858  2.0516
   59MOL    C9814134   5.994   7.051   3.945 -0.3073  0.0863  0.1495
   59MOL    C9914135   5.922   7.135   3.832  0.1685  0.2028  0.3379
   59MOL   C10014136   5.772   7.119   3.862  0.3251  0.5051  0.4812
   59MOL   C10114137   5.949   7.286   3.847 -0.4612  0.0134  0.8259
   59MOL   O10214138   5.869   7.359   3.907 -0.2998  0.1318 -0.1103
   59MOL   O10314139   6.057   7.322   3.774 -0.2382  0.2787 -0.0678
   59MOL   H10414140   5.951   6.952   3.956 -1.6062  0.5646 -0.5691
   59MOL   H10514141   5.961   7.113   4.028 -0.9755  0.3844 -0.3347
   59MOL   H10614142   5.747   7.125   3.967  1.2282  2.2652  0.6320
   59MOL   H10714143   5.735   7.023   3.827  0.1470 -0.4824  3.3336
   59MOL   H10814144   5.712   7.198   3.816 -1.7024 -1.6149 -0.5797
   59MOL   H10914145   6.063   7.417   3.776  2.0026  0.1734 -0.4441
   59MOL   C11014146   5.948   7.087   3.683 -0.4925 -0.7683 -0.2225
   59MOL   C11114147   5.853   7.122   3.556  0.7572 -0.5751 -0.9048
   59MOL   C11214148   5.942   7.083   3.446 -0.1194 -1.2917  0.4236
   59MOL   C11314149   5.726   7.033   3.567 -0.0521  0.0774  0.1741
   59MOL   O11414150   5.618   7.074   3.608  0.0891 -0.0601  0.0952
   59MOL   O11514151   5.752   6.903   3.544 -0.2317  0.5881 -0.1854
   59MOL   H11614152   6.049   7.121   3.662 -0.3808 -1.3016 -0.5521
   59MOL   H11714153   5.957   6.978   3.694 -1.2185 -0.6559  1.8756
   59MOL   H11814154   5.968   6.977   3.451  2.4885 -0.9639 -4.0248
   59MOL   H11914155   6.036   7.137   3.438 -0.5281 -0.6576 -0.1421
   59MOL   H12014156   5.892   7.094   3.350  1.1072 -1.1120 -0.2117
   59MOL   H12114157   5.672   6.853   3.552 -0.6878  1.4176  0.4842
   59MOL   C12214158   5.817   7.272   3.542 -0.4770 -0.3685 -0.6380
   59MOL   C12314159   5.780   7.341   3.403  1.3752  0.4935 -0.2587
   59MOL   C12414160   5.902   7.359   3.312 -0.3947 -0.3055 -0.2643
   59MOL   C12514161   5.670   7.254   3.333  0.2614 -0.3013 -0.0485
   59MOL   O12614162   5.675   7.198   3.225  0.3954  0.1373 -0.0732
   59MOL   O12714163   5.555   7.253   3.412  0.3308  0.1328  0.2015
   59MOL   H12814164   5.745   7.310   3.615  1.9449  1.9186  0.6537
   59MOL   H12914165   5.903   7.331   3.577 -1.5286  0.7711  0.0768
   59MOL   H13014166   5.876   7.426   3.231  0.1519 -0.4515 -0.5620
   59MOL   H13114167   5.935   7.267   3.262 -1.7023 -1.8332  1.6054
   59MOL   H13214168   5.990   7.393   3.367 -0.6777 -2.6863  1.7563
   59MOL   H13314169   5.495   7.192   3.373  0.5022  0.5793 -0.7631
   59MOL   C13414170   5.713   7.487   3.434 -0.2195 -0.0979  0.0095
   59MOL   C13514171   5.791   7.611   3.494 -0.1094 -0.4150  0.6370
   59MOL   C13614172   5.678   7.721   3.510 -0.9059 -0.1441  0.3117
   59MOL   C13714173   5.849   7.577   3.637 -0.9124  0.5527 -0.0652
   59MOL   O13814174   5.970   7.576   3.664 -0.0913 -0.1481  0.3874
   59MOL   O13914175   5.758   7.542   3.729  0.4126  0.0878  0.7214
   59MOL   H14014176   5.644   7.525   3.359  1.3051  0.6591 -1.0476
   59MOL   H14114177   5.631   7.460   3.499 -0.3018 -1.7782 -0.7507
   59MOL   H14214178   5.595   7.685   3.572  0.4438  0.2505  2.3913
   59MOL   H14314179   5.634   0.004   3.424  0.5357 -0.5194 -0.6468
   59MOL   H14414180   5.709   0.043   3.564 -1.8403  1.5756 -1.9241
   59MOL   H14514181   5.800   7.534   3.813 -0.7187 -2.5290  1.0762
   59MOL   C14614182   5.911   7.670   3.403 -0.0966  0.0867  0.0748
   59MOL   C14714183   5.968   0.049   3.402  0.0579 -0.2622 -0.2907
   59MOL   C14814184   6.103   0.038   3.328  0.5724 -0.2679  0.1713
   59MOL   C14914185   5.880   0.134   3.314 -0.5288 -0.4056 -0.1118
   59MOL   O15014186   5.793   0.209   3.353  0.0630 -0.0226 -0.1556
   59MOL   O15114187   5.899   0.112   3.181  0.2201  0.6586 -0.2445
   59MOL   H15214188   5.997   7.610   3.432  0.7370  0.1582 -2.1150
   59MOL   H15314189   5.879   7.661   3.299 -0.2059  2.0331 -0.0751
   59MOL   H15414190   6.099   7.727   3.252  2.1418 -1.1834  1.0127
   59MOL   H15514191   6.184   0.005   3.393  0.4228  0.6369  0.8161
   59MOL   H15614192   6.127   0.134   3.283 -3.0311  1.3712  1.5521
   59MOL   H15714193   5.846   0.176   3.135 -0.1644 -0.3952 -1.3222
   59MOL   C15814194   5.988   0.101   3.553  0.4397  0.2830 -0.1694
   59MOL   C15914195   6.035   0.247   3.601  0.1555 -0.1772  0.7977
   59MOL   C16014196   6.145   0.302   3.513  0.2433  0.1499 -0.3558
   59MOL   C16114197   5.924   0.355   3.604 -0.1836  0.6380 -0.0470
   59MOL   O16214198   5.951   0.475   3.584 -1.0581 -0.1993  0.0984
   59MOL   O16314199   5.805   0.297   3.646 -0.6821 -0.0663  0.1749
   59MOL   H16414200   5.895   0.077   3.605  0.1156 -0.3029 -1.0075
   59MOL   H16514201   6.048   0.016   3.585 -1.5088 -1.5696 -1.3478
   59MOL   H16614202   6.233   0.244   3.487  0.4441 -0.1174  0.8528
   59MOL   H16714203   6.201   0.376   3.570 -0.1641  0.1663  0.0287
   59MOL   H16814204   6.107   0.351   3.424 -0.9898  2.1841  1.2371
   59MOL   H16914205   5.738   0.364   3.644 -0.0741  0.6647  2.5295
   59MOL   C17014206   6.081   0.239   3.754 -0.0403 -0.0812 -0.4090
   59MOL   C17114207   6.223   0.174   3.794  0.6784  0.2437 -0.5295
   59MOL   C17214208   6.280   0.063   3.713  0.3248 -0.3130  0.0943
   59MOL   C17314209   6.322   0.296   3.796  0.1559  0.3092  0.3251
   59MOL   O17414210   6.299   0.396   3.864  0.0500  0.2036  0.0748
   59MOL   O17514211   6.421   0.296   3.706 -0.9043  0.3183 -0.3724
   59MOL   H17614212   6.083   0.336   3.804 -0.5804 -0.8764  1.1689
   59MOL   H17714213   5.997   0.186   3.799 -0.2384  1.5799  1.2649
   59MOL   H17814214   6.384   0.045   3.741  0.8773 -0.3907 -1.9487
   59MOL   H17914215   6.298   0.075   3.607  3.8055 -0.1281  0.6449
   59MOL   H18014216   6.225   7.736   3.718 -0.3618  0.0990  0.4084
   59MOL   H18114217   6.458   0.383   3.713 -1.9547  0.6208  1.9464
   59MOL   C18214218   6.219   0.127   3.943  0.1852  0.4433  0.0130
   59MOL   C18314219   6.149   7.757   3.992  0.5132  0.2687 -0.6178
   59MOL   C18414220   6.002   7.748   3.951  0.2832 -0.6392 -0.4891
   59MOL   C18514221   6.226   7.628   3.949 -0.6051 -0.1898 -0.2226
   59MOL   O18614222   6.175   7.524   3.909  0.2394  0.0552  0.3218
   59MOL   O18714223   6.363   7.624   3.967 -0.3446 -0.1939  0.1310
   59MOL   H18814224   6.325   0.109   3.961  0.3412  1.1735 -0.1467
   59MOL   H18914225   6.189   0.214   4.001 -2.9058  1.7756 -3.3864
   59MOL   H19014226   5.940   7.677   4.005 -0.5263  0.6929  0.3580
   59MOL   H19114227   6.010   7.721   3.845 -0.5649  0.0673 -0.7385
   59MOL   H19214228   5.947   0.075   3.948  0.6907 -0.2939  2.0240
   59MOL   H19314229   6.385   7.535   3.945 -1.6724 -0.2007 -1.2604
   59MOL   C19414230   6.160   0.004   4.147 -0.1749 -0.5603 -0.2252
   59MOL   C19514231   6.143   7.663   4.261 -0.3559  0.3663 -0.0235
   59MOL   C19614232   6.121   7.750   4.387 -0.3660  0.4332 -0.0971
   59MOL   C19714233   6.010   7.579   4.240 -0.2319  0.0987 -0.4166
   59MOL   O19814234   5.903   7.617   4.297  0.3280 -0.2416 -0.7350
   59MOL   O19914235   6.032   7.464   4.166  0.4497  0.2878 -0.3517
   59MOL   H20014236   6.235   0.074   4.186 -0.9946 -0.1977  0.7141
   59MOL   H20114237   6.071   0.063   4.166 -0.9301 -1.9682  0.6771
   59MOL   H20214238   6.060   0.072   4.371  1.2154  1.8850  1.8132
   59MOL   H20314239   6.216   0.012   4.431 -0.0739 -2.3688  1.2213
   59MOL   H20414240   6.083   7.688   4.468 -0.2477  2.7245  1.7514
   59MOL   H20514241   5.953   7.414   4.150 -0.0001  0.8295  0.1405
   59MOL   C20614242   6.279   7.579   4.274 -0.2112  0.6112 -0.2356
   59MOL   C20714243   6.313   7.480   4.398  0.2136  0.2638 -0.3482
   59MOL   C20814244   6.327   7.558   4.535  0.0910 -0.0789  0.4547
   59MOL   C20914245   6.202   7.378   4.413  0.0081  0.1677  0.0918
   59MOL   O21014246   6.118   7.374   4.502  0.5536  0.2300  0.3060
   59MOL   O21114247   6.201   7.297   4.309 -0.6118 -0.1292 -0.1157
   59MOL   H21214248   6.286   7.512   4.188 -0.2744  0.4075 -0.0796
   59MOL   H21314249   6.362   7.649   4.265 -0.3944  0.7786 -0.6705
   59MOL   H21414250   6.372   7.655   4.515 -0.4260  0.0759  0.0369
   59MOL   H21514251   6.363   7.515   4.628 -0.3161  2.3619  1.7801
   59MOL   H21614252   6.227   7.580   4.573 -0.8732 -1.9643 -0.8925
   59MOL   H21714253   6.118   7.256   4.293 -0.0148 -1.3045 -0.2728
   59MOL   C21814254   6.442   7.397   4.383  0.3511 -0.3076 -0.2564
   59MOL   C21914255   6.587   7.451   4.351 -0.2602 -0.5958 -0.6573
   59MOL   C22014256   6.596   7.521   4.212 -0.9190 -0.4096  0.0951
   59MOL   C22114257   6.661   7.541   4.455  0.5132  0.5393  0.0689
   59MOL   O22214258   6.612   7.577   4.560 -0.5825  0.5624 -0.0482
   59MOL   O22314259   6.784   7.585   4.420 -0.8255 -0.6339  0.1509
   59MOL   H22414260   6.448   7.335   4.472  0.8960 -2.8393 -1.9933
   59MOL   H22514261   6.427   7.334   4.295 -0.1877  0.0203 -0.4053
   59MOL   H22614262   6.548   7.467   4.131 -2.6784  0.4106  0.5825
   59MOL   H22714263   6.697   7.543   4.175  0.8677 -2.2486  3.5902
   59MOL   H22814264   6.550   7.619   4.208 -0.7584 -0.3674 -0.8666
   59MOL   H22914265   6.826   7.636   4.487  0.9926 -3.1697  1.0070
   59MOL   C23014266   6.677   7.326   4.325 -0.1041  0.3546  0.6022
   59MOL   C23114267   6.702   7.226   4.443  0.1139 -0.0039 -0.2096
   59MOL   C23214268   6.667   7.082   4.398  0.0756  0.0982 -0.7166
   59MOL   C23314269   6.844   7.230   4.505  0.1026 -0.2159 -0.5580
   59MOL   O23414270   6.947   7.166   4.474 -0.2173  0.8482 -0.0606
   59MOL   O23514271   6.845   7.310   4.614  0.4247 -0.5979 -0.5839
   59MOL   H23614272   6.641   7.283   4.232 -1.9809 -0.1299  1.5449
   59MOL   H23714273   6.772   7.367   4.290  0.1609 -0.7117  0.0551
   59MOL   H23814274   6.670   7.015   4.484  0.4417 -0.1752 -0.9360
   59MOL   H23914275   6.729   7.044   4.316  2.3700  1.9042  0.1236
   59MOL   H24014276   6.564   7.076   4.365 -0.5723 -0.2865  1.3388
   59MOL   H24114277   6.933   7.322   4.644 -0.0415  1.8754 -0.0951
   59MOL   H24214278   6.635   7.248   4.526 -2.8459 -1.8210 -2.0460
   60MOL     C114279   3.936   0.286   0.976 -0.2035 -0.6328  0.4018
   60MOL     C214280   4.035   0.400   0.939 -0.3921  0.2777  0.4723
   60MOL     C314281   4.025   0.405   0.787 -0.5532 -0.1568 -0.1721
   60MOL     C414282   3.991   0.539   0.985  0.0498 -0.1430 -0.0853
   60MOL     O514283   4.046   0.647   0.959  0.1995 -0.2316 -0.1455
   60MOL     O614284   3.869   0.530   1.046 -0.0382 -0.0766  0.3001
   60MOL     H714285   3.838   0.294   0.930 -0.2749 -0.1680  0.6310
   60MOL     H814286   3.928   0.274   1.084 -1.7731  1.3294  0.5221
   60MOL     H914287   3.923   0.430   0.758 -0.9979 -1.1699  0.4783
   60MOL    H1014288   4.037   0.308   0.739 -0.9717 -0.4340  0.2746
   60MOL    H1114289   4.097   0.473   0.743  0.7018  0.2750  2.4985
   60MOL    H1214290   3.834   0.617   1.060 -1.9850 -0.7718 -0.1030
   60MOL    H1314291   3.962   0.191   0.930  0.9335  0.3928 -1.1567
   60MOL    C1414292   4.178   0.365   0.986 -0.3848 -0.7335 -0.6799
   60MOL    C1514293   4.214   0.321   1.133  0.6492 -0.1611 -0.3235
   60MOL    C1614294   4.132   0.396   1.246 -0.3788  0.0522 -0.0446
   60MOL    C1714295   4.188   0.169   1.141  0.5649  0.1280  0.7614
   60MOL    O1814296   4.159   0.117   1.252  0.2079 -0.4950  0.1818
   60MOL    O1914297   4.223   0.099   1.029 -0.6370  0.1815 -0.2414
   60MOL    H2014298   4.226   0.302   0.911 -0.9078 -1.3151 -0.5271
   60MOL    H2114299   4.233   0.459   0.979 -0.9711 -0.2014  1.5970
   60MOL    H2214300   4.156   0.503   1.249 -1.6209  0.3260  0.4487
   60MOL    H2314301   4.144   0.357   1.347  1.2236 -1.8794 -0.9551
   60MOL    H2414302   4.024   0.387   1.239 -0.1872 -2.9987  0.4845
   60MOL    H2514303   4.232   0.008   1.052  2.4551  0.2339 -1.0033
   60MOL    C2614304   4.373   0.355   1.148  0.3796  0.3977 -0.7680
   60MOL    C2714305   4.469   0.293   1.256  0.3376 -0.0825 -0.0161
   60MOL    C2814306   4.494   0.140   1.231 -0.4624 -0.7028 -0.0952
   60MOL    C2914307   4.606   0.372   1.233  0.6919 -0.2673  0.2954
   60MOL    O3014308   4.717   0.318   1.219 -0.1425  0.1620  0.1694
   60MOL    O3114309   4.593   0.507   1.235 -0.0657 -0.5729  0.3613
   60MOL    H3214310   4.408   0.332   1.047 -0.5580 -2.4213 -0.4997
   60MOL    H3314311   4.374   0.464   1.147 -0.1544  0.3997 -1.0381
   60MOL    H3414312   4.427   0.078   1.290 -0.8806  0.8520  1.0952
   60MOL    H3514313   4.596   0.113   1.258 -0.9333 -2.0581  0.3742
   60MOL    H3614314   4.490   0.121   1.123  2.4477 -0.8279 -0.2103
   60MOL    H3714315   4.673   0.557   1.244 -1.6322  1.8789  1.2460
   60MOL    C3814316   4.417   0.330   1.394 -0.2072  0.0757 -0.1599
   60MOL    C3914317   4.498   0.313   1.527  0.5821 -0.0212  1.5604
   60MOL    C4014318   4.569   0.444   1.566  0.2047 -0.5233  0.4180
   60MOL    C4114319   4.387   0.294   1.640 -0.5876 -0.0468 -0.0447
   60MOL    O4214320   4.367   0.371   1.731 -0.0483 -0.0306  0.0472
   60MOL    O4314321   4.318   0.177   1.628  0.3882 -0.0091 -0.3061
   60MOL    H4414322   4.390   0.434   1.379  1.1698  0.7465  1.7849
   60MOL    H4514323   4.322   0.280   1.417  0.9114 -1.1290  2.0441
   60MOL    H4614324   4.604   0.438   1.669  1.5448 -2.2822 -0.1246
   60MOL    H4714325   4.497   0.526   1.558  1.6675  0.5299 -3.4775
   60MOL    H4814326   4.656   0.448   1.500 -0.3600 -0.7560 -0.3470
   60MOL    H4914327   4.258   0.165   1.700 -1.1216  1.3314 -1.3063
   60MOL    C5014328   4.604   0.199   1.528 -0.1548 -0.0549 -0.0313
   60MOL    C5114329   4.711   0.172   1.642  0.3594 -0.3229 -0.0292
   60MOL    C5214330   4.633   0.164   1.777  0.9049  0.6002 -0.1610
   60MOL    C5314331   4.764   0.030   1.611 -0.1216 -1.0292 -0.4338
   60MOL    O5414332   4.784   7.706   1.691 -0.2286  0.2061 -0.3653
   60MOL    O5514333   4.784   0.017   1.478  0.0897  0.6509  0.3566
   60MOL    H5614334   4.545   0.108   1.522 -1.1121  0.6088 -0.9859
   60MOL    H5714335   4.653   0.207   1.431 -0.0872 -0.7365 -0.0552
   60MOL    H5814336   4.688   0.106   1.851 -0.1169 -0.4453 -0.2158
   60MOL    H5914337   4.541   0.107   1.762  1.6230 -1.4115  2.6085
   60MOL    H6014338   4.610   0.263   1.816  1.0916  1.4172 -2.0681
   60MOL    H6114339   4.801   7.692   1.463  1.4967  1.1358 -1.1652
   60MOL    C6214340   4.834   0.283   1.638 -0.5461 -0.3103  0.3078
   60MOL    C6314341   4.948   0.287   1.749 -1.1678 -0.1468 -0.2933
   60MOL    C6414342   5.006   0.142   1.777 -0.1245 -0.0945  0.4820
   60MOL    C6514343   5.068   0.374   1.690 -0.6950 -0.7119  0.4232
   60MOL    O6614344   5.058   0.447   1.591  0.1657 -0.1742  0.1200
   60MOL    O6714345   5.190   0.352   1.734 -0.2336 -0.0637 -0.9222
   60MOL    H6814346   4.875   0.264   1.539 -0.7832  1.0718 -0.0646
   60MOL    H6914347   4.801   0.386   1.633  1.2839  0.2479 -0.5560
   60MOL    H7014348   5.023   0.089   1.683 -1.3421  3.9875 -2.1794
   60MOL    H7114349   4.931   0.078   1.822  0.4986  0.5528  2.4676
   60MOL    H7214350   5.100   0.132   1.832  1.1392 -2.2537 -1.9230
   60MOL    H7314351   5.253   0.394   1.678  0.9631 -1.4911 -0.6690
   60MOL    C7414352   4.884   0.348   1.883  0.4327 -0.0387  0.1260
   60MOL    C7514353   4.967   0.409   1.999  0.7829 -0.2843 -0.1319
   60MOL    C7614354   5.085   0.312   2.033 -0.0817  0.5952 -0.3310
   60MOL    C7714355   5.022   0.548   1.984 -0.4042 -0.3580 -0.0142
   60MOL    O7814356   5.107   0.592   2.058  0.5933 -0.1154  0.1375
   60MOL    O7914357   4.998   0.600   1.866 -0.0314  0.2592 -0.3035
   60MOL    H8014358   4.798   0.411   1.861  2.2984  2.8809  0.9971
   60MOL    H8114359   4.845   0.255   1.926  1.1794  0.2805  1.5320
   60MOL    H8214360   5.055   0.207   2.029 -2.0203  0.9360  2.8946
   60MOL    H8314361   5.127   0.334   2.132  1.6540  0.0750 -0.9409
   60MOL    H8414362   5.168   0.324   1.965  0.0462  0.3150 -0.2278
   60MOL    H8514363   5.021   0.689   1.846  2.0575 -0.4732 -1.3307
   60MOL    C8614364   4.884   0.413   2.130  0.1751  0.4429 -0.0933
   60MOL    C8714365   4.741   0.491   2.140 -0.1532 -0.4399  0.4251
   60MOL    C8814366   4.735   0.624   2.053 -0.5300 -0.0568  0.3923
   60MOL    C8914367   4.622   0.398   2.105  0.5036  0.1847 -0.6078
   60MOL    O9014368   4.530   0.434   2.036  0.2461  0.1597  0.4241
   60MOL    O9114369   4.628   0.282   2.173  0.0122 -0.1532 -0.6515
   60MOL    H9214370   4.864   0.307   2.149 -0.8039  0.8273  1.0597
   60MOL    H9314371   4.948   0.439   2.214  0.8234 -0.2993 -0.3401
   60MOL    H9414372   4.640   0.674   2.071 -0.7527 -0.1914 -0.4052
   60MOL    H9514373   4.739   0.599   1.947  1.3582  0.0168  0.4371
   60MOL    H9614374   4.814   0.698   2.064 -0.1404 -0.0735 -1.9615
   60MOL    H9714375   4.548   0.236   2.155 -0.1344  0.5459 -1.7987
   60MOL    C9814376   4.712   0.522   2.300 -0.1808  0.5277  0.4821
   60MOL    C9914377   4.765   0.645   2.383 -0.0464  0.1687 -0.3126
   60MOL   C10014378   4.914   0.642   2.369 -0.2590  0.3190  0.5094
   60MOL   C10114379   4.711   0.778   2.330 -0.6230  0.0484  0.5986
   60MOL   O10214380   4.593   0.787   2.300 -0.2841  0.1304  0.0105
   60MOL   O10314381   4.796   0.881   2.318  0.1046  0.2546  0.0342
   60MOL   H10414382   4.604   0.516   2.315 -0.3420 -0.7963 -1.1595
   60MOL   H10514383   4.745   0.428   2.344  1.6270  0.5241 -0.8494
   60MOL   H10614384   4.942   0.545   2.409 -2.4499 -0.6173 -0.1789
   60MOL   H10714385   4.972   0.720   2.420  0.5505  0.2630 -0.3077
   60MOL   H10814386   4.944   0.652   2.265 -1.0929 -1.5794  0.0772
   60MOL   H10914387   4.762   0.949   2.262  2.3226  0.0512 -1.6295
   60MOL   C11014388   4.727   0.629   2.534 -1.2452  0.1142  0.9482
   60MOL   C11114389   4.683   0.733   2.639 -0.4108 -0.0349  0.5230
   60MOL   C11214390   4.782   0.849   2.635 -0.1240  0.1267  0.1156
   60MOL   C11314391   4.544   0.784   2.605  0.2613 -0.0754  0.1874
   60MOL   O11414392   4.515   0.904   2.593 -0.0097  0.3462 -0.1693
   60MOL   O11514393   4.454   0.682   2.568 -0.5131 -0.5741 -0.0751
   60MOL   H11614394   4.654   0.548   2.533 -1.1191  0.0148 -1.0168
   60MOL   H11714395   4.815   0.579   2.576 -2.2747 -0.9436  1.9088
   60MOL   H11814396   4.772   0.906   2.727 -0.5033  0.3775 -0.0813
   60MOL   H11914397   4.756   0.916   2.553  1.8748  0.5276 -0.2101
   60MOL   H12014398   4.884   0.819   2.610 -0.7579 -0.0398 -2.4225
   60MOL   H12114399   4.385   0.714   2.512  0.8613  1.8903 -0.4494
   60MOL   C12214400   4.692   0.653   2.780  0.7148 -0.0793 -0.9501
   60MOL   C12314401   4.624   0.687   2.910 -0.3770 -0.2101 -0.4940
   60MOL   C12414402   4.620   0.839   2.938  0.4723  0.5382 -0.1596
   60MOL   C12514403   4.480   0.634   2.899  0.1074 -0.3160 -0.2417
   60MOL   O12614404   4.451   0.518   2.911 -0.1063  0.2127 -0.0154
   60MOL   O12714405   4.384   0.732   2.865 -0.0400  0.2607 -0.3712
   60MOL   H12814406   4.685   0.545   2.771  2.0862 -0.1911 -0.6881
   60MOL   H12914407   4.795   0.672   2.811  0.2342 -0.4203  0.8823
   60MOL   H13014408   4.724   0.867   2.955  0.8685 -0.1034 -1.4515
   60MOL   H13114409   4.558   0.865   3.024  1.6981  1.1449  0.5573
   60MOL   H13214410   4.575   0.898   2.858 -0.1105  2.6665  1.6583
   60MOL   H13314411   4.297   0.695   2.859 -0.2794  0.5797  0.8071
   60MOL   C13414412   4.695   0.603   3.025 -0.4026 -0.6729 -1.5943
   60MOL   C13514413   4.670   0.635   3.178 -0.3614 -0.4578  0.4815
   60MOL   C13614414   4.519   0.650   3.211 -0.0476 -0.8305  0.8469
   60MOL   C13714415   4.707   0.514   3.265  0.1458 -0.7429  0.4389
   60MOL   O13814416   4.743   0.407   3.214  0.2342 -0.0073  0.7022
   60MOL   O13914417   4.683   0.539   3.400  0.3406 -0.1806 -0.0689
   60MOL   H14014418   4.667   0.498   3.012  0.0231 -1.0265  0.1638
   60MOL   H14114419   4.799   0.613   2.996 -0.9253  2.7914 -2.4324
   60MOL   H14214420   4.488   0.748   3.173 -0.9166 -1.3126  0.3220
   60MOL   H14314421   4.503   0.656   3.319  1.6550  0.1858  1.0641
   60MOL   H14414422   4.455   0.575   3.166 -1.3786  1.4420 -1.1672
   60MOL   H14514423   4.718   0.474   3.460  0.4119  0.0846  0.1774
   60MOL   C14614424   4.742   0.765   3.232 -0.0157 -0.4383  0.1806
   60MOL   C14714425   4.900   0.800   3.243 -0.4214 -0.0257  0.4357
   60MOL   C14814426   4.914   0.913   3.353  0.0832  0.2554 -0.3990
   60MOL   C14914427   4.976   0.677   3.295 -0.4160  0.0226  0.1409
   60MOL   O15014428   5.019   0.652   3.410  0.2824 -0.1941  0.4559
   60MOL   O15114429   4.988   0.577   3.201  0.7512  0.5155  0.0830
   60MOL   H15214430   4.697   0.854   3.186 -1.2381 -0.6705  0.9013
   60MOL   H15314431   4.696   0.790   3.328  0.0627  1.2269 -0.2033
   60MOL   H15414432   4.878   0.884   3.452 -1.2946 -0.9651 -1.2411
   60MOL   H15514433   4.858   1.002   3.324  1.1490  0.6643 -1.2209
   60MOL   H15614434   5.019   0.943   3.354 -0.2420  1.4701  2.3930
   60MOL   H15714435   5.032   0.501   3.235 -0.1748 -0.5222 -0.9810
   60MOL   C15814436   4.958   0.851   3.108 -0.1254 -0.1048  0.1654
   60MOL   C15914437   5.112   0.855   3.064  0.4167  0.3268  0.1603
   60MOL   C16014438   5.201   0.906   3.183  0.5240 -0.6225 -0.3276
   60MOL   C16114439   5.162   0.717   3.028 -0.2956  0.0550 -0.4781
   60MOL   O16214440   5.257   0.660   3.078 -0.0791  0.1707  0.0582
   60MOL   O16314441   5.088   0.662   2.929  0.1794  0.3734 -0.0060
   60MOL   H16414442   4.915   0.779   3.039 -1.3978 -0.6037  1.4324
   60MOL   H16514443   4.921   0.951   3.086  2.9450  1.1873  0.5696
   60MOL   H16614444   5.307   0.917   3.164  0.1827 -0.8884 -2.4858
   60MOL   H16714445   5.190   0.854   3.279 -0.5438  0.5660  0.2144
   60MOL   H16814446   5.185   1.006   3.223 -3.7535 -1.3412  0.0497
   60MOL   H16914447   5.101   0.570   2.916  0.8347  0.6051 -1.0413
   60MOL   C17014448   5.129   0.960   2.947 -0.0201 -0.1027  0.2713
   60MOL   C17114449   5.250   1.000   2.855  0.1406 -0.5759  0.4787
   60MOL   C17214450   5.174   1.097   2.763  0.4548 -0.3512  0.4292
   60MOL   C17314451   5.351   1.079   2.945  0.2553 -0.1054 -0.6473
   60MOL   O17414452   5.456   1.035   2.994  0.7418 -0.7513 -0.3992
   60MOL   O17514453   5.315   1.209   2.963 -0.9626 -0.3717 -0.6752
   60MOL   H17614454   5.047   0.927   2.883 -0.5463  3.0334 -0.7415
   60MOL   H17714455   5.105   1.057   2.990 -1.5099  1.6893 -4.2673
   60MOL   H17814456   5.096   1.049   2.704  0.0412  1.1281 -0.2462
   60MOL   H17914457   5.234   1.155   2.693  2.9114 -1.3240  1.6540
   60MOL   H18014458   5.118   1.178   2.810  0.0900  0.4648 -1.3549
   60MOL   H18114459   5.373   1.252   3.024 -1.8776 -1.1945  0.7800
   60MOL   C18214460   5.316   0.875   2.789  0.2694  0.1812 -0.0754
   60MOL   C18314461   5.393   0.858   2.655 -0.1622  0.7374 -0.2818
   60MOL   C18414462   5.291   0.845   2.541  0.2307 -0.3072 -0.6449
   60MOL   C18514463   5.475   0.984   2.618  0.1559  0.1313 -0.1952
   60MOL   O18614464   5.434   1.066   2.535 -0.1555  0.2647 -0.9834
   60MOL   O18714465   5.592   0.996   2.692 -0.6077 -0.0342  0.3964
   60MOL   H18814466   5.377   0.819   2.860 -1.0408 -2.5853 -1.0542
   60MOL   H18914467   5.230   0.808   2.786  0.1421  0.2178  2.0054
   60MOL   H19014468   5.226   0.757   2.542  1.0137 -0.9249 -1.9630
   60MOL   H19114469   5.325   0.843   2.437  1.2797 -0.9313 -0.2996
   60MOL   H19214470   5.222   0.928   2.537  1.7287  0.9457 -0.9271
   60MOL   H19314471   5.635   1.079   2.675  1.2735 -1.3301 -1.4411
   60MOL   C19414472   5.480   0.729   2.670  0.8945 -0.5671  0.4955
   60MOL   C19514473   5.546   0.645   2.560 -0.2426  0.0401 -0.2594
   60MOL   C19614474   5.632   0.741   2.471 -0.1431  0.1408  0.4676
   60MOL   C19714475   5.641   0.545   2.626 -0.3463  0.6625  0.0769
   60MOL   O19814476   5.620   0.501   2.739 -0.1830  0.6683 -0.6662
   60MOL   O19914477   5.749   0.513   2.547  0.5884 -0.3917  0.2529
   60MOL   H20014478   5.553   0.752   2.748  2.5005 -1.9783 -0.5541
   60MOL   H20114479   5.411   0.660   2.719 -0.5903  2.3225  2.6076
   60MOL   H20214480   5.685   0.690   2.390 -1.3926 -1.3585  0.5696
   60MOL   H20314481   5.702   0.799   2.532  0.0158 -0.7034  1.1166
   60MOL   H20414482   5.576   0.812   2.411  1.8887  0.2417 -1.3737
   60MOL   H20514483   5.808   0.454   2.592  2.8799  0.6761 -1.2969
   60MOL   C20614484   5.439   0.573   2.471  0.6598 -0.2264  0.3288
   60MOL   C20714485   5.457   0.441   2.384  0.4439  0.1282  0.5530
   60MOL   C20814486   5.487   0.317   2.468  0.7859 -0.4049  0.0601
   60MOL   C20914487   5.317   0.428   2.319  0.6837 -0.3728  0.2515
   60MOL   O21014488   5.238   0.338   2.352 -0.2985 -0.4966 -0.6706
   60MOL   O21114489   5.297   0.528   2.228  0.0508  0.4992  0.1384
   60MOL   H21214490   5.367   0.547   2.549  0.2572 -0.8216 -0.2418
   60MOL   H21314491   5.391   0.652   2.413 -0.0950 -1.4033 -0.6602
   60MOL   H21414492   5.450   0.322   2.570  0.8921  0.4541  0.0614
   60MOL   H21514493   5.592   0.308   2.495  0.6283 -0.6916  0.5798
   60MOL   H21614494   5.442   0.221   2.441  2.9881 -1.6619  0.6991
   60MOL   H21714495   5.215   0.537   2.183 -0.2508 -1.9753  0.1621
   60MOL   C21814496   5.561   0.454   2.263  0.1431  0.5340  0.5217
   60MOL   C21914497   5.591   0.334   2.163  0.4541  0.1204  0.4964
   60MOL   C22014498   5.466   0.248   2.119  0.6895  0.0697 -0.0404
   60MOL   C22114499   5.647   0.402   2.029 -0.0915 -0.0129  0.0472
   60MOL   O22214500   5.574   0.442   1.945 -0.6452 -0.1748 -0.3474
   60MOL   O22314501   5.785   0.405   2.005 -0.4757 -0.2798  0.0517
   60MOL   H22414502   5.544   0.543   2.203  0.1852  0.5858  0.5866
   60MOL   H22514503   5.656   0.489   2.304 -1.2281  0.9109  3.4722
   60MOL   H22614504   5.426   0.188   2.202  0.6936  2.5093  1.7758
   60MOL   H22714505   5.485   0.182   2.034  0.0517  1.6417 -1.4283
   60MOL   H22814506   5.388   0.318   2.090 -1.3637 -2.6197 -1.2218
   60MOL   H22914507   5.803   0.429   1.916  1.5044  0.3981  0.6065
   60MOL   C23014508   5.696   0.238   2.226  0.2205 -0.6962  0.1483
   60MOL   C23114509   5.734   0.116   2.139 -0.8096 -0.3727 -0.7647
   60MOL   C23214510   5.887   0.087   2.145  0.4563  0.2305 -0.6671
   60MOL   C23314511   5.667   7.760   2.185 -0.0466  0.2813 -0.9261
   60MOL   O23414512   5.586   7.709   2.112  0.6771 -0.6444 -0.0231
   60MOL   O23514513   5.705   7.724   2.312 -0.4680 -0.8205 -0.0796
   60MOL   H23614514   5.779   0.304   2.247 -1.7123  1.2994  1.7601
   60MOL   H23714515   5.671   0.205   2.327  0.7222  0.8098  0.7823
   60MOL   H23814516   5.940   0.168   2.095 -1.3826  0.8010 -1.7216
   60MOL   H23914517   5.928   7.763   2.100  2.3212  0.3505  0.7124
   60MOL   H24014518   5.913   0.106   2.249 -1.1422 -2.1020  0.2128
   60MOL   H24114519   5.647   7.656   2.342 -0.2784 -0.9861 -0.0905
   60MOL   H24214520   5.712   0.127   2.033  0.4446  0.0722 -0.9780
   61MOL     C114521   1.978   5.271   2.187  0.5657 -0.0649 -0.2664
   61MOL     C214522   2.081   5.269   2.305  0.4371  0.2816  0.4631
   61MOL     C314523   2.221   5.238   2.239  0.0762 -0.2739 -0.0205
   61MOL     C414524   2.083   5.411   2.376 -0.8126 -0.2870 -0.0060
   61MOL     O514525   2.014   5.510   2.338 -0.0410  0.8193 -0.2196
   61MOL     O614526   2.181   5.416   2.472 -0.2145 -0.1029 -0.3213
   61MOL     H714527   2.016   5.341   2.113 -0.1128 -0.1723 -0.7245
   61MOL     H814528   1.879   5.307   2.216  1.5818  1.7199  1.0605
   61MOL     H914529   2.282   5.213   2.325 -0.1556  1.3902  0.6372
   61MOL    H1014530   2.265   5.318   2.180  0.1551  0.2052  0.6809
   61MOL    H1114531   2.227   5.156   2.168 -0.5893 -0.1625 -0.2137
   61MOL    H1214532   2.185   5.500   2.515 -1.3489 -0.1539 -0.0956
   61MOL    H1314533   1.977   5.170   2.145  2.9261 -0.8519  1.4770
   61MOL    C1414534   2.048   5.154   2.415 -0.5702  0.2149 -0.3964
   61MOL    C1514535   1.923   5.147   2.511  0.1947  0.4152 -0.4882
   61MOL    C1614536   1.794   5.176   2.437 -0.7315  0.5247  0.7977
   61MOL    C1714537   1.919   5.003   2.568 -0.1368 -0.3308 -0.3101
   61MOL    O1814538   1.826   4.929   2.548  0.2370 -0.3968  0.0743
   61MOL    O1914539   2.034   4.967   2.627 -0.2332  0.0596 -0.0637
   61MOL    H2014540   2.061   5.057   2.367  3.3775  0.0140  0.9207
   61MOL    H2114541   2.135   5.155   2.480 -0.9478 -0.3916  0.1168
   61MOL    H2214542   1.778   5.281   2.410  0.9755  0.7002  0.4213
   61MOL    H2314543   1.706   5.147   2.495 -0.6417 -0.7569  0.2871
   61MOL    H2414544   1.793   5.130   2.339 -1.6835 -0.0955  1.0910
   61MOL    H2514545   2.024   4.878   2.657  0.6468 -0.6305 -1.7172
   61MOL    C2614546   1.945   5.255   2.619 -0.1446  0.1552  0.3607
   61MOL    C2714547   1.866   5.269   2.747 -0.1095  0.4964  0.3097
   61MOL    C2814548   1.716   5.241   2.738  0.1785  0.5773  0.7596
   61MOL    C2914549   1.929   5.173   2.856 -0.3287 -0.3808 -0.6275
   61MOL    O3014550   1.874   5.076   2.908 -0.1664 -0.0377 -0.3036
   61MOL    O3114551   2.053   5.208   2.897 -0.0980 -0.0192 -0.3569
   61MOL    H3214552   2.050   5.279   2.636  0.0970 -0.1235 -0.7054
   61MOL    H3314553   1.923   5.344   2.560  1.6616 -0.8812 -1.9735
   61MOL    H3414554   1.703   5.135   2.715 -0.1346  0.6283  0.6957
   61MOL    H3514555   1.680   5.296   2.651  2.4132 -1.8802 -1.8183
   61MOL    H3614556   1.654   5.256   2.826  0.0084 -0.0814  0.7578
   61MOL    H3714557   2.095   5.149   2.957  0.5606 -0.3096 -1.1053
   61MOL    C3814558   1.887   5.416   2.803  0.4930 -0.5836 -0.1498
   61MOL    C3914559   1.792   5.538   2.783 -0.6369 -0.4756  0.0348
   61MOL    C4014560   1.761   5.565   2.627  0.2236 -0.2475  0.4742
   61MOL    C4114561   1.664   5.527   2.864  0.7009 -0.1692  0.0544
   61MOL    O4214562   1.557   5.555   2.817 -0.1658 -0.5465  0.0464
   61MOL    O4314563   1.675   5.486   2.991 -0.4857  0.7363  0.1965
   61MOL    H4414564   1.883   5.402   2.911 -0.1603  0.4567 -0.0315
   61MOL    H4514565   1.992   5.441   2.787  0.4188  0.4513  0.8556
   61MOL    H4614566   1.702   5.656   2.617  1.9531  1.0265  1.6290
   61MOL    H4714567   1.693   5.497   2.577 -0.4735  0.8381 -0.0851
   61MOL    H4814568   1.852   5.581   2.568 -1.8449  3.4485 -1.8974
   61MOL    H4914569   1.589   5.498   3.029 -1.2002  1.2447 -1.5453
   61MOL    C5014570   1.854   5.666   2.845  0.3032  1.0617  0.6870
   61MOL    C5114571   2.000   5.720   2.826  0.8603 -0.1991 -0.1876
   61MOL    C5214572   2.093   5.654   2.932  0.6968 -0.1922  0.1470
   61MOL    C5314573   2.048   5.693   2.677  0.3384 -0.1275  0.3156
   61MOL    O5414574   2.131   5.608   2.658  0.1426 -0.0387  0.1215
   61MOL    O5514575   1.991   5.770   2.583  0.1746  0.2854  0.4521
   61MOL    H5614576   1.788   5.744   2.806  0.3805  0.2392 -1.1671
   61MOL    H5714577   1.834   5.673   2.952 -1.5640  1.6784  0.3302
   61MOL    H5814578   2.199   5.671   2.913  1.1023 -1.1113  1.4923
   61MOL    H5914579   2.066   5.549   2.940 -0.6383  0.2050  1.0851
   61MOL    H6014580   2.066   5.700   3.028  1.0418 -0.4604  0.3755
   61MOL    H6114581   2.039   5.769   2.502  1.1504  0.2517  1.0296
   61MOL    C6214582   1.995   5.872   2.856  0.4816 -0.1392 -0.1850
   61MOL    C6314583   2.128   5.971   2.869  0.4928  0.1514  0.6584
   61MOL    C6414584   2.205   5.951   3.006  1.2912 -0.2698 -0.1392
   61MOL    C6514585   2.232   5.945   2.757  0.5747 -0.0763  0.8187
   61MOL    O6614586   2.352   5.925   2.776 -0.0969 -0.3860  0.3445
   61MOL    O6714587   2.176   5.955   2.637 -0.2854 -0.8403  0.3079
   61MOL    H6814588   1.935   5.922   2.780 -2.6203 -0.7266  1.8005
   61MOL    H6914589   1.941   5.876   2.951  0.5526 -2.7881 -0.0066
   61MOL    H7014590   2.135   5.942   3.089  1.5001  1.9181  0.2958
   61MOL    H7114591   2.280   6.028   3.021  1.6398 -0.1827 -2.2100
   61MOL    H7214592   2.256   5.855   3.010 -0.5758 -1.2437  1.7854
   61MOL    H7314593   2.244   5.980   2.575 -0.2204 -0.8501  0.3750
   61MOL    C7414594   2.071   6.118   2.850  0.4882 -0.4402 -0.6737
   61MOL    C7514595   2.013   6.209   2.960 -0.0335 -0.0779 -0.6969
   61MOL    C7614596   2.136   6.258   3.048  0.6076  0.0159 -0.1484
   61MOL    C7714597   1.958   6.329   2.878  0.9171  0.0242 -0.3518
   61MOL    O7814598   2.034   6.420   2.852 -0.1023  0.4939  0.2658
   61MOL    O7914599   1.824   6.318   2.834 -0.2389 -0.3278 -0.4637
   61MOL    H8014600   2.158   6.172   2.813  0.7265 -1.4750 -1.6670
   61MOL    H8114601   2.015   6.113   2.757  0.2676 -1.3172 -0.4973
   61MOL    H8214602   2.176   6.185   3.119 -0.6611 -1.0383 -0.5059
   61MOL    H8314603   2.113   6.347   3.107 -0.9891 -1.7130  1.9295
   61MOL    H8414604   2.221   6.296   2.991  1.4225 -0.0607  0.9811
   61MOL    H8514605   1.799   6.397   2.789  2.3887 -0.3202 -2.0348
   61MOL    C8614606   1.907   6.139   3.050 -0.0058 -0.0710  0.1298
   61MOL    C8714607   1.804   6.203   3.155  0.0946  0.1641 -0.8371
   61MOL    C8814608   1.708   6.084   3.175 -0.8261  0.3581 -0.2123
   61MOL    C8914609   1.877   6.225   3.295 -0.5199 -0.2045 -0.3872
   61MOL    O9014610   1.870   6.148   3.393  0.3918 -0.0127 -0.2496
   61MOL    O9114611   1.953   6.331   3.293 -0.1008 -0.6142  0.1601
   61MOL    H9214612   1.854   6.081   2.974 -0.4152  0.0655  0.3108
   61MOL    H9314613   1.958   6.060   3.105  1.0927 -0.1591 -0.9832
   61MOL    H9414614   1.657   6.078   3.272 -1.9854 -1.1613 -0.8827
   61MOL    H9514615   1.766   5.993   3.191  0.3589  1.1612  0.0906
   61MOL    H9614616   1.642   6.064   3.091 -2.0372 -1.8141  1.1758
   61MOL    H9714617   1.997   6.332   3.376  0.6126  0.3066 -0.2172
   61MOL    C9814618   1.732   6.331   3.099  0.3163  0.5013 -0.2926
   61MOL    C9914619   1.628   6.420   3.172  0.2150 -0.2345 -0.2919
   61MOL   C10014620   1.580   6.516   3.059 -0.0354  0.9560  0.2388
   61MOL   C10114621   1.522   6.319   3.226 -0.3694  0.0231  0.1147
   61MOL   O10214622   1.433   6.275   3.161 -0.1971  0.1251  0.0239
   61MOL   O10314623   1.548   6.274   3.351 -0.5681  0.1338  0.5688
   61MOL   H10414624   1.797   6.412   3.067 -2.0499  3.3811  1.8284
   61MOL   H10514625   1.686   6.288   3.010 -0.2594 -1.0591  0.7300
   61MOL   H10614626   1.565   6.465   2.964 -0.4167 -0.5239  1.0761
   61MOL   H10714627   1.645   6.601   3.041  0.0740  0.4286 -2.0017
   61MOL   H10814628   1.481   6.550   3.091 -1.0711 -0.0860 -1.7999
   61MOL   H10914629   1.495   6.197   3.360  2.7826 -2.1437  1.7098
   61MOL   C11014630   1.690   6.508   3.286  0.2924 -0.3567 -0.3057
   61MOL   C11114631   1.619   6.622   3.366  0.2384 -0.6925  0.3078
   61MOL   C11214632   1.737   6.683   3.452  0.4674 -0.3030 -0.2073
   61MOL   C11314633   1.572   6.731   3.272  0.2784  0.1576 -0.1425
   61MOL   O11414634   1.454   6.750   3.241 -0.0563  0.6336 -0.2632
   61MOL   O11514635   1.664   6.805   3.209 -0.2613 -0.2052  0.5451
   61MOL   H11614636   1.719   6.439   3.365  2.3929 -1.0466 -1.6340
   61MOL   H11714637   1.783   6.550   3.246  0.6050 -0.6918  0.0612
   61MOL   H11814638   1.704   6.777   3.496 -1.6807 -1.4125  0.6580
   61MOL   H11914639   1.825   6.702   3.390  0.0970 -0.0157 -0.6494
   61MOL   H12014640   1.750   6.619   3.539 -0.2691  1.9953  1.6418
   61MOL   H12114641   1.609   6.865   3.161  0.3531 -0.3293 -0.3345
   61MOL   C12214642   1.493   6.581   3.452 -0.3626 -0.0887  0.1507
   61MOL   C12314643   1.416   6.660   3.566  0.5224 -0.4724 -0.0482
   61MOL   C12414644   1.294   6.570   3.595 -0.0678  0.7027 -0.1490
   61MOL   C12514645   1.495   6.659   3.699  0.4800  0.5146 -0.2372
   61MOL   O12614646   1.500   6.570   3.782 -0.1168  0.1649 -0.1973
   61MOL   O12714647   1.577   6.765   3.695  0.5712 -0.6456 -0.4597
   61MOL   H12814648   1.417   6.546   3.382  0.4368  1.0489 -1.3080
   61MOL   H12914649   1.530   6.492   3.502  2.7817 -0.6492 -3.0054
   61MOL   H13014650   1.319   6.465   3.612 -1.0745  0.5466  0.3710
   61MOL   H13114651   1.218   6.571   3.517  0.9744  0.3536 -1.1819
   61MOL   H13214652   1.246   6.592   3.690  0.2610 -0.2449  0.2462
   61MOL   H13314653   1.632   6.745   3.769  1.2236 -2.1787 -1.3270
   61MOL   C13414654   1.373   6.798   3.516 -0.5506 -0.1662 -0.1378
   61MOL   C13514655   1.307   6.916   3.600  0.2277 -0.1749 -0.1094
   61MOL   C13614656   1.158   6.930   3.560  0.6390 -0.0282  0.0963
   61MOL   C13714657   1.303   6.884   3.758 -0.4355  0.2880  0.1188
   61MOL   O13814658   1.386   6.934   3.834  0.0594  0.0390 -0.6016
   61MOL   O13914659   1.209   6.795   3.799 -0.7664 -0.1683  0.3632
   61MOL   H14014660   1.468   6.842   3.484 -0.1893 -1.1313 -0.4175
   61MOL   H14114661   1.316   6.788   3.424 -1.2522  1.1012  0.1489
   61MOL   H14214662   1.136   6.945   3.454  0.3268  1.8642  0.4195
   61MOL   H14314663   1.122   7.020   3.609  0.4016 -1.0784  1.9002
   61MOL   H14414664   1.101   6.840   3.584  1.1299 -1.0216 -2.3384
   61MOL   H14514665   1.210   6.765   3.889  0.8854 -0.8306  0.1386
   61MOL   C14614666   1.381   7.051   3.566 -0.1440 -0.1566 -0.0538
   61MOL   C14714667   1.379   7.132   3.431  0.7978  0.6926  0.5487
   61MOL   C14814668   1.359   7.040   3.306 -0.0998 -0.1744  0.9567
   61MOL   C14914669   1.251   7.225   3.428  0.3398  0.1100 -0.0837
   61MOL   O15014670   1.165   7.227   3.338  0.0255  0.0847 -0.3463
   61MOL   O15114671   1.260   7.325   3.516 -0.0938  0.1372  0.5452
   61MOL   H15214672   1.357   7.129   3.637 -0.4776  0.0259 -0.3644
   61MOL   H15314673   1.485   7.041   3.595 -0.0525 -2.5090 -1.0876
   61MOL   H15414674   1.344   7.102   3.218 -2.9322  0.8829  2.1154
   61MOL   H15514675   1.270   6.977   3.296  0.5070 -1.0460  0.9170
   61MOL   H15614676   1.449   6.984   3.279 -0.6649 -0.4675 -0.3525
   61MOL   H15714677   1.210   7.399   3.486  0.5193 -0.1140 -1.1249
   61MOL   C15814678   1.497   7.234   3.416 -0.2318  0.3264 -0.1038
   61MOL   C15914679   1.624   7.207   3.330  0.0053  0.3191 -0.0403
   61MOL   C16014680   1.694   7.083   3.391 -0.0306 -0.3172 -0.0830
   61MOL   C16114681   1.582   7.197   3.185 -0.3312  0.2777  0.1455
   61MOL   O16214682   1.514   7.278   3.131 -0.2833 -0.3865 -0.1242
   61MOL   O16314683   1.617   7.076   3.133 -0.0591 -0.1477 -0.1760
   61MOL   H16414684   1.458   7.329   3.379 -1.1074 -0.3196 -0.8840
   61MOL   H16514685   1.529   7.253   3.518 -3.7475  0.5404  1.0343
   61MOL   H16614686   1.768   7.038   3.325 -0.7868 -1.4558 -0.1559
   61MOL   H16714687   1.629   6.997   3.407  2.3487 -2.3417 -1.1084
   61MOL   H16814688   1.721   7.094   3.496 -1.8481  0.4790  0.3220
   61MOL   H16914689   1.590   7.066   3.043 -1.0551 -2.8258  0.3716
   61MOL   C17014690   1.710   7.345   3.339 -0.2027  0.0413  0.9035
   61MOL   C17114691   1.861   7.366   3.286 -0.0799 -0.3568 -0.1855
   61MOL   C17214692   1.880   7.301   3.146  0.0441  0.8591  0.1696
   61MOL   C17314693   1.889   7.516   3.268  0.0102  0.1037 -0.5034
   61MOL   O17414694   1.911   7.573   3.375  0.4265 -0.3071  0.2832
   61MOL   O17514695   1.891   7.570   3.145 -0.1277  0.3749  0.7371
   61MOL   H17614696   1.649   7.421   3.290 -2.3755 -0.8374  2.1765
   61MOL   H17714697   1.713   7.373   3.444  0.3188 -0.2306  0.9622
   61MOL   H17814698   1.805   7.333   3.073 -0.4398 -2.4558 -0.8561
   61MOL   H17914699   1.868   7.195   3.166  3.1151  0.5905  0.8302
   61MOL   H18014700   1.980   7.318   3.107 -0.3323  2.1101 -0.2749
   61MOL   H18114701   1.907   7.662   3.159  0.6938  0.1835  1.0517
   61MOL   C18214702   1.953   7.301   3.391 -0.6991  0.4695  0.3411
   61MOL   C18314703   2.105   7.315   3.413 -0.8207 -1.0184 -0.0254
   61MOL   C18414704   2.173   7.299   3.274 -0.5858 -0.4272  0.2566
   61MOL   C18514705   2.143   7.453   3.485 -0.2122  0.8279  0.3663
   61MOL   O18614706   2.094   7.490   3.593 -0.2303  0.2393  0.0633
   61MOL   O18714707   2.265   7.505   3.440  0.9518 -0.1461 -0.5577
   61MOL   H18814708   1.911   7.327   3.488 -0.6559 -0.4072  0.6021
   61MOL   H18914709   1.931   7.195   3.377  1.9148 -0.0445 -0.1560
   61MOL   H19014710   2.281   7.292   3.277 -0.6135 -0.7279  0.6552
   61MOL   H19114711   2.147   7.390   3.221  0.7070 -0.8044 -1.0515
   61MOL   H19214712   2.134   7.213   3.218  0.2133 -0.3214 -0.4627
   61MOL   H19314713   2.289   7.562   3.512  1.4729 -1.8465  0.6717
   61MOL   C19414714   2.133   7.200   3.515 -0.3925 -0.0192  0.4894
   61MOL   C19514715   2.267   7.154   3.586  0.9836  0.1226  0.3011
   61MOL   C19614716   2.381   7.142   3.479 -0.5081 -0.8420 -0.0022
   61MOL   C19714717   2.310   7.256   3.695 -0.2355  0.1308 -0.2942
   61MOL   O19814718   2.416   7.316   3.695  0.2609  0.3007 -0.1296
   61MOL   O19914719   2.220   7.279   3.787  0.5456 -0.3804 -0.1918
   61MOL   H20014720   2.064   7.214   3.598 -2.9450 -0.2652 -1.5115
   61MOL   H20114721   2.104   7.111   3.459 -0.0895  0.8182 -1.0477
   61MOL   H20214722   2.415   7.242   3.452 -0.0844 -0.9791  0.0138
   61MOL   H20314723   2.357   7.098   3.383 -0.0291  0.9959 -0.9777
   61MOL   H20414724   2.473   7.090   3.507  1.1466  1.9326 -0.0738
   61MOL   H20514725   2.232   7.355   3.842 -0.8269 -0.2868  0.0136
   61MOL   C20614726   2.245   7.012   3.634  0.0441 -0.0226 -0.4867
   61MOL   C20714727   2.318   6.934   3.751 -0.2955 -0.5650 -0.7449
   61MOL   C20814728   2.472   6.923   3.719 -0.8710 -0.0584  0.3839
   61MOL   C20914729   2.317   7.000   3.892 -0.3179 -0.4513 -0.1061
   61MOL   O21014730   2.414   7.024   3.967  1.1844 -0.4546 -0.1194
   61MOL   O21114731   2.195   7.033   3.927  0.7994 -0.0618 -0.1739
   61MOL   H21214732   2.137   7.014   3.651  0.4540 -0.0587  2.3685
   61MOL   H21314733   2.245   6.952   3.543 -0.2412 -1.2274  0.3043
   61MOL   H21414734   2.499   6.908   3.614 -1.1121 -0.9797  0.4517
   61MOL   H21514735   2.524   6.852   3.784 -0.5034 -1.2434 -1.1532
   61MOL   H21614736   2.526   7.015   3.739  1.4005 -1.1070 -0.6875
   61MOL   H21714737   2.135   7.029   3.855  1.1669  0.5533 -0.5185
   61MOL   C21814738   2.264   6.784   3.756  0.3580  0.4314  0.2628
   61MOL   C21914739   2.114   6.742   3.755  0.0675 -0.2872  0.8720
   61MOL   C22014740   2.031   6.801   3.875 -1.0707 -0.0693 -0.0784
   61MOL   C22114741   2.038   6.781   3.626 -0.3846 -0.5511  0.1220
   61MOL   O22214742   1.943   6.857   3.626  0.2649  0.3318  0.4485
   61MOL   O22314743   2.098   6.738   3.515  0.2877 -0.4984  0.1684
   61MOL   H22414744   2.316   6.725   3.681 -1.5997 -0.2863 -0.5559
   61MOL   H22514745   2.297   6.733   3.847 -0.7449  1.1626  1.0891
   61MOL   H22614746   2.004   6.906   3.862 -1.6028 -0.2822 -0.7058
   61MOL   H22714747   2.082   6.786   3.970  1.2448 -0.0048 -1.2947
   61MOL   H22814748   1.931   6.760   3.894 -1.8066  2.1026  0.9812
   61MOL   H22914749   2.045   6.771   3.444 -0.2265 -1.4890  0.0821
   61MOL   C23014750   2.104   6.582   3.778  0.7641 -0.2525 -0.0517
   61MOL   C23114751   2.201   6.488   3.689 -0.0937 -0.4492 -0.2776
   61MOL   C23214752   2.328   6.427   3.757 -0.5545  0.2911  0.3020
   61MOL   C23314753   2.117   6.364   3.645 -0.1164  0.0331 -0.6471
   61MOL   O23414754   2.096   6.338   3.527 -0.4644  0.1663 -0.7019
   61MOL   O23514755   2.069   6.296   3.749 -0.3267 -0.1793 -0.0862
   61MOL   H23614756   2.136   6.543   3.874  3.2773  0.1852 -0.6618
   61MOL   H23714757   2.001   6.558   3.756  0.7441 -0.0926 -0.1371
   61MOL   H23814758   2.402   6.490   3.807 -0.2708  0.3318 -0.1637
   61MOL   H23914759   2.373   6.352   3.692  1.4328  2.0605 -0.4399
   61MOL   H24014760   2.309   6.365   3.844 -2.3875  0.3907 -0.0081
   61MOL   H24114761   2.009   6.227   3.723  2.9588 -2.8979 -0.8835
   61MOL   H24214762   2.234   6.543   3.602 -0.2876  1.8922  1.0854
   62MOL     C114763   5.030   7.014   2.953  0.5514 -0.2922  0.6246
   62MOL     C214764   5.140   7.057   3.048  0.1381  0.1878 -0.2672
   62MOL     C314765   5.250   7.120   2.958 -0.5430 -0.0809 -0.4298
   62MOL     C414766   5.083   7.164   3.146  0.5457  1.1436  0.2222
   62MOL     O514767   4.985   7.134   3.215  0.0371  0.0750  0.2531
   62MOL     O614768   5.153   7.279   3.148  0.2791 -0.2077  0.2858
   62MOL     H714769   4.937   6.982   3.002 -0.9293  0.3800 -1.6760
   62MOL     H814770   5.063   6.945   2.876 -0.2351  1.2486 -1.1466
   62MOL     H914771   5.232   7.218   2.913 -0.2902  0.4182  0.5370
   62MOL    H1014772   5.272   7.046   2.882  1.1647 -1.2880  1.1837
   62MOL    H1114773   5.343   7.130   3.015 -0.3962 -0.4213 -0.6086
   62MOL    H1214774   5.098   7.341   3.193 -0.5516  0.0946 -1.0995
   62MOL    H1314775   5.005   7.109   2.904  2.3903 -0.3728 -0.4953
   62MOL    C1414776   5.187   6.923   3.119 -0.2095  0.2172 -0.1425
   62MOL    C1514777   5.301   6.905   3.229  0.1403 -0.4836 -0.0655
   62MOL    C1614778   5.440   6.882   3.153  0.4481 -0.5464 -0.1941
   62MOL    C1714779   5.298   7.034   3.319 -0.3605 -0.0212 -0.4532
   62MOL    O1814780   5.382   7.126   3.304  0.3822 -0.0875  0.3796
   62MOL    O1914781   5.204   7.039   3.409  0.2086 -0.6593 -0.0046
   62MOL    H2014782   5.097   6.873   3.154  0.0477  0.0296  0.2534
   62MOL    H2114783   5.225   6.855   3.043 -1.3837 -1.2197  0.5510
   62MOL    H2214784   5.433   6.797   3.086  0.9332 -0.5314 -0.2608
   62MOL    H2314785   5.519   6.889   3.228 -0.4858  0.3699  0.7295
   62MOL    H2414786   5.462   6.967   3.089 -1.1062  0.3591  0.4454
   62MOL    H2514787   5.239   7.099   3.473  0.3289 -0.2718 -0.4308
   62MOL    C2614788   5.262   6.767   3.300 -0.2325 -0.3939  0.5582
   62MOL    C2714789   5.331   6.682   3.417 -0.5303 -0.3460 -0.1339
   62MOL    C2814790   5.455   6.614   3.362 -0.8159 -0.7129 -0.5138
   62MOL    C2914791   5.371   6.779   3.535 -0.6943  0.1306 -0.1657
   62MOL    O3014792   5.485   6.791   3.574  0.1038  0.4237 -0.3658
   62MOL    O3114793   5.259   6.839   3.590  0.3041  0.3036 -0.1262
   62MOL    H3214794   5.170   6.806   3.344  0.1409  1.6888 -0.4201
   62MOL    H3314795   5.240   6.696   3.221 -0.8828 -1.5568  1.7778
   62MOL    H3414796   5.523   6.692   3.330 -1.0324 -0.8500 -1.3235
   62MOL    H3514797   5.422   6.540   3.289 -1.2075 -0.4694 -0.5850
   62MOL    H3614798   5.509   6.559   3.440  0.5961 -0.6679 -1.4488
   62MOL    H3714799   5.173   6.817   3.559  0.0085  0.0214  0.8907
   62MOL    C3814800   5.232   6.569   3.452 -0.5009  0.1308  0.0385
   62MOL    C3914801   5.244   6.460   3.563  0.5722 -0.0940 -0.3005
   62MOL    C4014802   5.349   6.353   3.512  0.0438 -0.0511  0.4001
   62MOL    C4114803   5.284   6.506   3.700  0.6846 -0.7594  0.0942
   62MOL    O4214804   5.371   6.460   3.763 -0.3679  0.4889 -0.0905
   62MOL    O4314805   5.190   6.592   3.745 -0.4847  0.4352 -0.2706
   62MOL    H4414806   5.143   6.627   3.480 -0.3752 -0.3850  1.5753
   62MOL    H4514807   5.204   6.523   3.358 -1.2023 -0.4926  0.5486
   62MOL    H4614808   5.338   6.258   3.563  4.0057  0.2843  2.0384
   62MOL    H4714809   5.453   6.380   3.530  0.0845  0.3438 -0.3964
   62MOL    H4814810   5.352   6.336   3.404 -0.2349  1.1242  0.1950
   62MOL    H4914811   5.227   6.642   3.816 -0.2686 -1.1320  0.7336
   62MOL    C5014812   5.101   6.379   3.557  0.6386 -0.0195  0.2074
   62MOL    C5114813   5.033   6.288   3.663 -0.6099  0.1052 -0.1868
   62MOL    C5214814   5.136   6.182   3.706  0.3910  0.0275 -0.0417
   62MOL    C5314815   4.981   6.373   3.787  0.0775  0.0736  0.6511
   62MOL    O5414816   4.895   6.465   3.782 -0.4227  0.3991  0.6722
   62MOL    O5514817   5.038   6.324   3.904 -0.3548 -0.0586  0.2293
   62MOL    H5614818   5.018   6.450   3.554 -0.5779 -1.4550 -0.4168
   62MOL    H5714819   5.106   6.326   3.462 -0.4821 -0.7080  0.5322
   62MOL    H5814820   5.084   6.116   3.775 -0.7746  1.0592  0.0860
   62MOL    H5914821   5.225   6.222   3.756  0.8438  0.7401 -1.4011
   62MOL    H6014822   5.168   6.117   3.624  1.8167 -0.0820  0.5755
   62MOL    H6114823   5.102   6.255   3.896 -1.3918 -1.0529  0.2827
   62MOL    C6214824   4.905   6.216   3.593  0.8395  0.3297  0.3349
   62MOL    C6314825   4.783   6.145   3.663  0.3283 -0.9627  0.6139
   62MOL    C6414826   4.827   6.071   3.796 -0.0449 -0.0767 -0.0699
   62MOL    C6514827   4.681   6.247   3.701  0.8672 -0.3293 -1.3719
   62MOL    O6614828   4.630   6.255   3.811 -0.1726  0.6531  0.5805
   62MOL    O6714829   4.641   6.324   3.601  0.5369  0.6363 -0.4475
   62MOL    H6814830   4.862   6.296   3.534  0.7954 -0.2211 -0.3869
   62MOL    H6914831   4.956   6.159   3.516  1.3533  1.0091  0.1662
   62MOL    H7014832   4.910   6.003   3.777  1.4817  2.5569 -3.2123
   62MOL    H7114833   4.757   6.010   3.854 -1.4611  0.4414 -1.2017
   62MOL    H7214834   4.865   6.144   3.867 -1.1287  2.1303 -1.6922
   62MOL    H7314835   4.567   6.381   3.611 -0.5116 -0.7558 -0.1556
   62MOL    C7414836   4.730   6.038   3.563  0.2345 -0.2678  0.6689
   62MOL    C7514837   4.625   5.923   3.589  0.4119  0.6075  0.5771
   62MOL    C7614838   4.686   5.821   3.691 -0.0379 -0.9487  0.3643
   62MOL    C7714839   4.490   5.964   3.644 -0.3947  0.0322  0.1059
   62MOL    O7814840   4.435   6.072   3.631 -0.9975 -0.3193 -0.3002
   62MOL    O7914841   4.418   5.854   3.687 -0.1077  0.0229  0.2552
   62MOL    H8014842   4.686   6.105   3.489 -1.4032  0.1358  1.9801
   62MOL    H8114843   4.821   5.987   3.532  0.4067  0.5623 -0.2128
   62MOL    H8214844   4.681   5.847   3.797 -1.7633  0.0011  0.0672
   62MOL    H8314845   4.785   5.783   3.664  0.4739 -2.1216  3.5719
   62MOL    H8414846   4.632   5.727   3.700  1.2043 -1.6636  0.4642
   62MOL    H8514847   4.330   5.878   3.712  0.0073  1.6389 -0.8063
   62MOL    C8614848   4.617   5.826   3.457  0.9035  0.0821 -0.1400
   62MOL    C8714849   4.558   5.876   3.318 -0.5992 -0.0809  0.2301
   62MOL    C8814850   4.411   5.931   3.333 -0.1386  0.0544  0.5488
   62MOL    C8914851   4.662   5.976   3.256  0.7299  0.6082 -0.3656
   62MOL    O9014852   4.634   6.078   3.210 -0.1451  0.1475 -0.0368
   62MOL    O9114853   4.789   5.924   3.256  0.7982 -0.0387 -0.9858
   62MOL    H9214854   4.718   5.787   3.443  0.6146 -0.6113 -0.3097
   62MOL    H9314855   4.564   5.734   3.480  3.4951 -1.6562 -0.9607
   62MOL    H9414856   4.346   5.884   3.407 -1.7229 -0.3863 -1.0948
   62MOL    H9514857   4.348   5.925   3.244 -1.7563 -0.8467  1.7394
   62MOL    H9614858   4.409   6.036   3.361  1.1121  0.0413  0.7042
   62MOL    H9714859   4.848   5.990   3.223  1.9783  0.7126  2.4309
   62MOL    C9814860   4.553   5.744   3.220 -0.1725  0.6125 -0.4568
   62MOL    C9914861   4.531   5.730   3.066 -0.0624 -0.3815  0.3623
   62MOL   C10014862   4.411   5.815   3.019 -0.1060 -0.1212 -0.5303
   62MOL   C10114863   4.656   5.788   2.993 -0.3855 -0.3917 -0.5041
   62MOL   O10214864   4.769   5.789   3.036  0.4706 -0.0195 -0.4589
   62MOL   O10314865   4.619   5.817   2.861  1.0618 -0.0968  0.1034
   62MOL   H10414866   4.644   5.686   3.233 -0.4023  0.4160  0.3069
   62MOL   H10514867   4.474   5.682   3.264  1.8446 -0.5379  1.6469
   62MOL   H10614868   4.412   5.920   3.050 -3.3401  0.0937 -1.0127
   62MOL   H10714869   4.317   5.772   3.053  0.4001 -1.1469 -0.3955
   62MOL   H10814870   4.394   5.809   2.912  0.1154 -0.2522 -0.5578
   62MOL   H10914871   4.694   5.828   2.805  0.3491  0.9388 -0.6546
   62MOL   C11014872   4.499   5.581   3.016 -0.1833 -0.2155  0.5133
   62MOL   C11114873   4.606   5.465   2.992  0.6236  1.0068  0.4680
   62MOL   C11214874   4.696   5.461   3.109 -0.5666  0.1386  0.0918
   62MOL   C11314875   4.519   5.336   2.990 -0.1853  0.3652 -0.1531
   62MOL   O11414876   4.535   5.239   3.065  0.0727 -0.2015  0.2526
   62MOL   O11514877   4.434   5.333   2.883 -0.2923 -0.5612 -0.2886
   62MOL   H11614878   4.411   5.554   3.075  0.5593  1.0987  2.2579
   62MOL   H11714879   4.456   5.593   2.917  2.7270  0.8915 -0.6876
   62MOL   H11814880   4.759   5.549   3.119  0.2750 -0.4660  0.1330
   62MOL   H11914881   4.747   5.366   3.121 -1.2547 -0.2475 -0.0044
   62MOL   H12014882   4.640   5.470   3.202  2.1610  0.2214  1.7809
   62MOL   H12114883   4.414   5.242   2.871  0.4187 -0.3914 -3.1123
   62MOL   C12214884   4.690   5.484   2.855  0.6021  0.2842  0.0063
   62MOL   C12314885   4.843   5.430   2.842  0.5214  0.5982 -1.0163
   62MOL   C12414886   4.939   5.499   2.948  0.0129 -0.0669 -0.2747
   62MOL   C12514887   4.835   5.272   2.860 -0.6583  0.3826 -0.6920
   62MOL   O12614888   4.911   5.214   2.937  0.2582  0.5429  0.4336
   62MOL   O12714889   4.748   5.214   2.777 -0.0006  0.4616  0.4727
   62MOL   H12814890   4.632   5.438   2.775  1.5422 -0.1525 -0.4307
   62MOL   H12914891   4.691   5.586   2.817 -0.0910  0.8734  1.5414
   62MOL   H13014892   5.047   5.497   2.932  0.1517  3.4192 -0.1273
   62MOL   H13114893   4.935   5.449   3.045  1.9471  1.3507  0.5602
   62MOL   H13214894   4.912   5.603   2.964 -0.3868 -0.0708 -0.8951
   62MOL   H13314895   4.740   5.120   2.780  0.6872  0.3220 -1.3031
   62MOL   C13414896   4.907   5.438   2.702  0.3364  0.0803  0.3183
   62MOL   C13514897   4.919   5.567   2.611  0.1674 -0.2417  0.2498
   62MOL   C13614898   4.787   5.585   2.527 -0.4245 -0.4602 -0.5908
   62MOL   C13714899   4.923   5.692   2.703  0.3298 -0.2330  0.0430
   62MOL   O13814900   4.839   5.782   2.710  0.0183  0.0845  0.2537
   62MOL   O13914901   5.050   5.691   2.763 -0.0878  0.0447  0.3910
   62MOL   H14014902   5.012   5.411   2.709  0.8311  1.4446 -1.3198
   62MOL   H14114903   4.875   5.355   2.639  3.2992 -1.0366  0.2464
   62MOL   H14214904   4.701   5.616   2.586 -0.4169 -1.3062 -0.1369
   62MOL   H14314905   4.753   5.499   2.469  0.2503 -1.7215  0.8726
   62MOL   H14414906   4.815   5.674   2.470 -1.4095  1.2790  1.5652
   62MOL   H14514907   5.067   5.769   2.812 -1.2455  0.2638  0.4651
   62MOL   C14614908   5.044   5.569   2.511 -0.0753  0.1843 -0.5284
   62MOL   C14714909   5.069   5.478   2.389  0.5111  0.6179 -0.5360
   62MOL   C14814910   5.001   5.343   2.408 -0.2374 -0.0074  0.0283
   62MOL   C14914911   5.007   5.550   2.265 -0.1131 -1.2807 -0.1883
   62MOL   O15014912   4.971   5.670   2.261  0.0979  0.0788 -0.3835
   62MOL   O15114913   4.997   5.460   2.165  0.5654  0.2846 -0.2153
   62MOL   H15214914   5.066   5.672   2.482 -0.1770  0.2690 -0.3054
   62MOL   H15314915   5.124   5.544   2.581  0.1442 -1.3020 -1.2930
   62MOL   H15414916   4.892   5.351   2.413 -0.3194 -1.4654  0.9042
   62MOL   H15514917   5.032   5.307   2.506 -0.6821  1.7345  0.8400
   62MOL   H15614918   5.018   5.274   2.325 -0.9686  0.8210 -0.8311
   62MOL   H15714919   4.952   5.489   2.087  1.4647 -1.1329 -1.2979
   62MOL   C15814920   5.219   5.445   2.363  0.1963  0.6045  0.0342
   62MOL   C15914921   5.333   5.542   2.316 -0.4969  0.9492  0.6784
   62MOL   C16014922   5.296   5.608   2.176 -0.3927  0.2899 -0.3965
   62MOL   C16114923   5.368   5.655   2.415 -0.2791  0.6024  0.6623
   62MOL   O16214924   5.310   5.673   2.521 -0.0257  0.2797 -0.3099
   62MOL   O16314925   5.462   5.735   2.361 -0.3848 -0.1075 -0.5741
   62MOL   H16414926   5.261   5.391   2.448 -0.0361 -1.6547 -1.2432
   62MOL   H16514927   5.204   5.367   2.288 -1.5249  1.9239 -1.0075
   62MOL   H16614928   5.235   5.551   2.105 -1.0097  2.4459 -1.6622
   62MOL   H16714929   5.388   5.624   2.120 -0.1428 -0.1347 -0.1064
   62MOL   H16814930   5.241   5.702   2.182  1.1281  1.2313 -0.8792
   62MOL   H16914931   5.499   5.710   2.278  0.1858 -3.7350  0.7225
   62MOL   C17014932   5.465   5.463   2.283  0.0336  0.1252  0.3778
   62MOL   C17114933   5.533   5.362   2.384 -0.4584  0.6708  0.2911
   62MOL   C17214934   5.527   5.429   2.528 -0.3093  0.1937  0.3417
   62MOL   C17314935   5.467   5.221   2.380 -0.1376 -0.3754 -0.5448
   62MOL   O17414936   5.451   5.152   2.282  0.4129  0.0966 -0.1161
   62MOL   O17514937   5.426   5.182   2.501 -0.0731  0.3060  0.3298
   62MOL   H17614938   5.445   5.414   2.188 -0.1552 -0.5293  0.7541
   62MOL   H17714939   5.538   5.538   2.253 -2.4563  2.0905 -0.9467
   62MOL   H17814940   5.595   5.513   2.537 -0.6072  0.4506  0.2082
   62MOL   H17914941   5.558   5.357   2.604 -1.5713 -0.1535  0.5559
   62MOL   H18014942   5.426   5.457   2.560 -1.0803 -0.9291 -1.0425
   62MOL   H18114943   5.366   5.109   2.494  0.4445 -0.1725  0.8733
   62MOL   C18214944   5.687   5.348   2.347 -0.2996 -0.4718 -0.1964
   62MOL   C18314945   5.792   5.243   2.403 -0.1946 -0.1488  0.1310
   62MOL   C18414946   5.802   5.119   2.323  0.0985 -0.4478  0.1493
   62MOL   C18514947   5.934   5.306   2.405  0.3613 -0.1389 -0.5234
   62MOL   O18614948   6.029   5.256   2.343  0.1967  0.1280 -0.3015
   62MOL   O18714949   5.940   5.422   2.480  0.0670 -0.1916  0.4295
   62MOL   H18814950   5.690   5.334   2.239  0.9597 -0.7448 -0.1390
   62MOL   H18914951   5.733   5.447   2.354  0.3976 -0.6467 -2.0065
   62MOL   H19014952   5.711   5.060   2.333  0.2658 -0.5245  1.2910
   62MOL   H19114953   5.891   5.059   2.339  1.2406  0.5815 -2.1331
   62MOL   H19214954   5.814   5.135   2.216  2.6275 -2.9444  0.0165
   62MOL   H19314955   6.029   5.452   2.470  0.4982 -1.9056 -1.3378
   62MOL   C19414956   5.766   5.202   2.550  0.1416 -0.2139 -0.9934
   62MOL   C19514957   5.829   5.083   2.635  0.0696  0.2201  0.0490
   62MOL   C19614958   5.765   4.950   2.586  0.2535  0.0489  0.3395
   62MOL   C19714959   5.986   5.068   2.620  0.1852 -0.6961 -0.2186
   62MOL   O19814960   6.037   4.967   2.571  0.1137  0.0745 -0.3056
   62MOL   O19914961   6.056   5.182   2.652 -0.4184  0.5107  0.1521
   62MOL   H20014962   5.765   5.294   2.608 -0.1418 -0.8566  0.0325
   62MOL   H20114963   5.660   5.177   2.555  0.2237 -0.3379  0.3899
   62MOL   H20214964   5.659   4.971   2.595 -0.2649 -3.3850  3.0210
   62MOL   H20314965   5.800   4.865   2.644  0.3302 -1.9512 -2.4901
   62MOL   H20414966   5.774   4.920   2.481 -1.6013 -1.1424  0.5018
   62MOL   H20514967   6.144   5.165   2.620 -0.6083 -3.0984  1.3360
   62MOL   C20614968   5.776   5.115   2.777 -0.2770  0.4915 -0.1053
   62MOL   C20714969   5.823   5.038   2.913  0.8844  0.5538  0.1203
   62MOL   C20814970   5.846   4.889   2.901 -0.6381  0.7150 -0.5032
   62MOL   C20914971   5.950   5.108   2.966  0.1691 -0.3055  0.3572
   62MOL   O21014972   5.984   5.219   2.933 -0.0002 -0.3495 -0.2951
   62MOL   O21114973   6.028   5.032   3.051  0.5930  0.3570  0.3792
   62MOL   H21214974   5.791   5.222   2.791 -1.5908  1.0423 -2.6083
   62MOL   H21314975   5.668   5.100   2.771 -0.1039 -2.3594  2.5144
   62MOL   H21414976   5.760   4.834   2.864  0.3965 -1.2329 -0.0703
   62MOL   H21514977   5.858   4.862   3.006  0.0679  2.1846 -0.1913
   62MOL   H21614978   5.938   4.857   2.852 -0.1087  1.5830 -0.0884
   62MOL   H21714979   6.104   5.075   3.087  0.7666 -2.4887  3.6324
   62MOL   C21814980   5.711   5.046   3.021 -0.0404 -0.0890  0.1293
   62MOL   C21914981   5.630   5.177   3.064  0.0669 -0.0723 -0.4509
   62MOL   C22014982   5.554   5.136   3.192  0.1766 -0.1554 -0.1303
   62MOL   C22114983   5.731   5.281   3.103  0.6653 -0.1528 -0.2868
   62MOL   O22214984   5.775   5.294   3.216 -0.2682  0.6640  0.1029
   62MOL   O22314985   5.766   5.361   3.004 -0.7540 -0.3289  0.3193
   62MOL   H22414986   5.648   4.957   3.031 -0.1989  0.0972  0.8220
   62MOL   H22514987   5.768   5.031   3.113  0.7765 -1.4457 -0.5853
   62MOL   H22614988   5.616   5.087   3.267 -0.3229 -1.1692 -0.3677
   62MOL   H22714989   5.475   5.065   3.166 -0.2337  0.6381 -1.0904
   62MOL   H22814990   5.519   5.218   3.255  0.9161 -1.4851  2.0783
   62MOL   H22914991   5.841   5.410   3.035 -0.9337 -0.2688  0.6645
   62MOL   C23014992   5.522   5.229   2.963  0.2811  0.0035  0.1792
   62MOL   C23114993   5.421   5.343   2.998 -0.3844  0.5621 -0.1525
   62MOL   C23214994   5.380   5.420   2.866  0.4891 -0.2732 -0.0985
   62MOL   C23314995   5.296   5.300   3.073 -0.1509  0.3028  0.1416
   62MOL   O23414996   5.232   5.201   3.042  0.0415  0.8004 -0.3018
   62MOL   O23514997   5.282   5.369   3.184  0.5894  0.0984  0.0732
   62MOL   H23614998   5.575   5.261   2.873  0.5582  1.2300  0.7716
   62MOL   H23714999   5.460   5.148   2.926  0.0169 -1.3606  3.4308
   62MOL   H23815000   5.308   5.357   2.815  1.2867  0.4283 -2.1146
   62MOL   H23915001   5.473   5.432   2.811  0.2956  1.5263 -0.0772
   62MOL   H24015002   5.336   5.518   2.884  1.3970  0.3223 -1.0700
   62MOL   H24115003   5.202   5.337   3.224 -0.0614  0.7838 -0.6595
   62MOL   H24215004   5.471   5.417   3.060 -0.1086  0.5264 -0.3310
   63MOL     C115005   7.363   4.259   0.458 -0.2491 -0.7946 -0.2630
   63MOL     C215006   7.249   4.344   0.400 -0.3505 -0.0510  0.0884
   63MOL     C315007   7.331   4.406   0.279  0.4106  0.6865  0.5523
   63MOL     C415008   7.134   4.263   0.351 -0.1812 -0.1455  0.1936
   63MOL     O515009   7.019   4.283   0.379 -0.6839  0.5669 -0.0400
   63MOL     O615010   7.180   4.160   0.270  0.0436 -0.9687 -0.1907
   63MOL     H715011   7.325   4.222   0.553  1.4909 -1.9443  0.0066
   63MOL     H815012   7.459   4.306   0.477 -0.1891 -0.3877 -1.5631
   63MOL     H915013   7.274   4.438   0.192  1.0246  0.7235  0.1664
   63MOL    H1015014   7.416   4.345   0.247  0.5310 -0.7229  3.3873
   63MOL    H1115015   7.380   4.499   0.308 -1.5400  2.5712 -1.9454
   63MOL    H1215016   7.113   4.136   0.208  0.3981 -0.5833 -0.7340
   63MOL    H1315017   7.391   4.172   0.399  2.2007 -0.2448  0.0455
   63MOL    C1415018   7.207   4.443   0.511 -0.4482  0.5857  0.3455
   63MOL    C1515019   7.136   4.584   0.482 -0.3266  0.0142 -0.4517
   63MOL    C1615020   7.050   4.589   0.351 -0.5204 -0.2064 -0.1435
   63MOL    C1715021   7.030   4.603   0.588  0.2197  0.1525  0.6176
   63MOL    O1815022   7.004   4.704   0.648 -0.1626 -0.0061  0.6783
   63MOL    O1915023   6.964   4.486   0.610 -0.0994 -0.0944 -0.7576
   63MOL    H2015024   7.166   4.383   0.592  0.8756 -1.4283 -0.4348
   63MOL    H2115025   7.307   4.465   0.547  1.0935 -0.9831 -2.6882
   63MOL    H2215026   6.950   4.546   0.356 -0.5075 -0.5308 -2.1489
   63MOL    H2315027   7.099   4.544   0.265  1.9069  2.7201 -0.3755
   63MOL    H2415028   7.027   4.685   0.305  1.6430 -0.0866 -1.0145
   63MOL    H2515029   6.897   4.509   0.673 -1.5924 -0.7968 -2.0438
   63MOL    C2615030   7.240   4.708   0.488  0.0948  0.2008  0.2892
   63MOL    C2715031   7.339   4.750   0.602 -0.0460  0.0550 -0.0580
   63MOL    C2815032   7.330   4.907   0.607  0.0240 -0.6123 -0.0413
   63MOL    C2915033   7.302   4.695   0.750 -0.1979 -0.2523  0.0234
   63MOL    O3015034   7.310   4.575   0.778  0.3966  0.4104  0.3976
   63MOL    O3115035   7.243   4.786   0.835  0.1564 -0.1407 -0.6396
   63MOL    H3215036   7.300   4.682   0.401  0.1555  0.4651  0.2524
   63MOL    H3315037   7.188   4.798   0.457 -1.6827 -0.1816  2.0574
   63MOL    H3415038   7.228   4.944   0.589  0.2900 -0.4905 -1.3855
   63MOL    H3515039   7.391   4.943   0.525 -1.1394 -1.3547 -1.2598
   63MOL    H3615040   7.365   4.949   0.701 -3.0431  1.0791  0.4362
   63MOL    H3715041   7.223   4.744   0.918 -1.2876  0.3987 -0.7023
   63MOL    C3815042   7.483   4.689   0.557  0.2925  0.0460  0.3851
   63MOL    C3915043   7.613   4.710   0.648  0.0093  0.1017 -0.3540
   63MOL    C4015044   7.610   4.846   0.718 -0.6136 -0.0111 -0.2453
   63MOL    C4115045   7.628   4.597   0.746  0.2076 -0.0694  0.5398
   63MOL    O4215046   7.573   4.488   0.736  0.0327  0.0906  0.6095
   63MOL    O4315047   7.710   4.622   0.850  0.4396 -0.2888  0.0647
   63MOL    H4415048   7.469   4.582   0.544 -1.8681  0.1300  1.6428
   63MOL    H4515049   7.508   4.737   0.463 -1.8497  0.1559 -0.1526
   63MOL    H4615050   7.541   4.847   0.803 -0.9969 -0.8605 -0.5395
   63MOL    H4715051   7.576   4.925   0.652 -0.1114 -0.2946 -0.8432
   63MOL    H4815052   7.704   4.873   0.765  0.1397 -1.7141 -0.7569
   63MOL    H4915053   7.704   4.550   0.911 -1.4955  1.7530  2.4182
   63MOL    C5015054   7.739   4.713   0.563  0.6596 -0.5220  0.2912
   63MOL    C5115055   0.029   4.591   0.477  0.1182  0.1829 -0.0009
   63MOL    C5215056   7.686   4.504   0.399 -0.1475  0.4880  0.2853
   63MOL    C5315057   0.108   4.660   0.364  0.0029  0.1533  0.5688
   63MOL    O5415058   0.088   4.658   0.245 -0.1331  0.0723  0.1093
   63MOL    O5515059   0.205   4.730   0.426  0.3992  0.1483 -0.2687
   63MOL    H5615060   7.725   4.800   0.499 -3.5779 -0.5027  1.0957
   63MOL    H5715061   0.052   4.743   0.631 -0.2673 -1.0681  1.6463
   63MOL    H5815062   7.729   4.439   0.324 -0.4658 -0.9369  1.3127
   63MOL    H5915063   7.604   4.558   0.352 -0.3065 -1.5616 -1.9017
   63MOL    H6015064   7.625   4.440   0.464 -0.8910  0.5748 -0.3218
   63MOL    H6115065   0.266   4.768   0.366  1.1747 -2.0475 -0.9175
   63MOL    C6215066   0.116   4.491   0.565  0.4698  0.2012 -1.1409
   63MOL    C6315067   0.184   4.360   0.521 -0.5919 -0.9139  0.1280
   63MOL    C6415068   0.263   4.302   0.643  0.3207 -0.4073  0.5840
   63MOL    C6515069   0.071   4.251   0.496 -0.6666  0.0016 -0.4486
   63MOL    O6615070   0.055   4.206   0.387  0.3581  0.2038  0.7889
   63MOL    O6715071   7.765   4.223   0.607  0.1216  0.2677  0.2392
   63MOL    H6815072   0.202   4.549   0.598 -0.5928  1.0299  0.1938
   63MOL    H6915073   0.055   4.470   0.652 -1.0022 -0.1969 -2.2533
   63MOL    H7015074   0.348   4.367   0.662 -0.4020  0.5474  0.5926
   63MOL    H7115075   0.290   4.196   0.641 -0.1462 -0.5210  0.3499
   63MOL    H7215076   0.207   4.312   0.736 -0.9802  1.9046 -0.4022
   63MOL    H7315077   7.697   4.163   0.583  0.1453  0.0451  0.7383
   63MOL    C7415078   0.275   4.380   0.395 -0.3429 -0.1641  1.4923
   63MOL    C7515079   0.406   4.293   0.370 -0.3211  0.2959  0.0869
   63MOL    C7615080   0.512   4.301   0.476 -0.6264  0.0338  0.8537
   63MOL    C7715081   0.357   4.146   0.364 -0.2406  0.2635  0.2231
   63MOL    O7815082   0.384   4.060   0.450  0.3300 -0.0972  0.0430
   63MOL    O7915083   0.296   4.124   0.241 -0.7165 -0.0725 -0.2683
   63MOL    H8015084   0.212   4.380   0.306 -0.0828  1.5699  1.2850
   63MOL    H8115085   0.299   4.486   0.396 -1.5011  0.1352 -0.3325
   63MOL    H8215086   0.615   4.284   0.445 -0.8399  2.4646 -1.3959
   63MOL    H8315087   0.497   4.233   0.560  0.0668 -1.1924 -0.0054
   63MOL    H8415088   0.525   4.396   0.528 -0.4350  0.2024  0.5001
   63MOL    H8515089   0.284   4.032   0.224  0.9382 -0.5487  0.9729
   63MOL    C8615090   0.472   4.338   0.234 -0.5153 -0.2042  0.5787
   63MOL    C8715091   0.559   4.461   0.205 -0.0817  0.2684 -0.8422
   63MOL    C8815092   0.504   4.587   0.283  0.4305  0.0254  0.3520
   63MOL    C8915093   0.702   4.432   0.248 -0.6954  0.2809 -0.3381
   63MOL    O9015094   0.768   4.341   0.196 -0.5228 -0.0050  0.4348
   63MOL    O9115095   0.747   4.514   0.348  0.5598  0.1862  0.0978
   63MOL    H9215096   0.532   4.252   0.206  0.2753  0.9419 -1.3684
   63MOL    H9315097   0.395   4.333   0.157 -0.3330 -2.9440  0.5197
   63MOL    H9415098   0.575   4.668   0.266  0.3062  0.7270  2.9086
   63MOL    H9515099   0.517   4.560   0.388  2.0405  0.0214  0.1547
   63MOL    H9615100   0.401   4.606   0.253 -0.1235 -0.8718  1.6270
   63MOL    H9715101   0.834   4.486   0.373  0.2083  0.1458  1.3262
   63MOL    C9815102   0.562   4.486   0.051  0.3530  1.2471 -0.4165
   63MOL    C9915103   0.464   4.580   7.735 -0.4345  0.3522 -0.4819
   63MOL   C10015104   0.309   4.542   7.763 -0.3320 -0.3112 -0.0768
   63MOL   C10115105   0.489   4.727   7.766 -0.6659  0.9585  0.0533
   63MOL   O10215106   0.408   4.805   0.052  0.2984 -0.0530  0.3757
   63MOL   O10315107   0.615   4.759   7.740 -0.4967  0.6457  0.1462
   63MOL   H10415108   0.665   4.514   0.028 -0.3512  1.6172 -3.4399
   63MOL   H10515109   0.571   4.388   0.005  1.9716  0.7395  0.9268
   63MOL   H10615110   0.299   4.437   7.735 -2.1130 -0.6848  1.8548
   63MOL   H10715111   0.232   4.608   7.724  0.0186  2.2902  3.3397
   63MOL   H10815112   0.287   4.557   0.102 -1.7848 -1.3028 -0.2219
   63MOL   H10915113   0.637   4.845   0.006  0.1707 -0.6158  3.1500
   63MOL   C11015114   0.494   4.553   7.577 -0.0516  0.8134 -0.4174
   63MOL   C11115115   0.439   4.637   7.450 -0.4621 -0.1503 -0.0228
   63MOL   C11215116   0.292   4.676   7.475 -0.0015 -0.0666 -0.1110
   63MOL   C11315117   0.532   4.759   7.447  0.8596 -0.3827 -0.7009
   63MOL   O11415118   0.491   4.874   7.462 -0.0646  0.1603 -0.0211
   63MOL   O11515119   0.662   4.731   7.407  0.0309  0.4509 -0.1528
   63MOL   H11615120   0.602   4.555   7.570 -0.1203  0.0793 -1.7941
   63MOL   H11715121   0.458   4.451   7.570 -1.9906  1.5009 -0.8977
   63MOL   H11815122   0.238   4.720   7.391  0.6679 -1.4042 -1.2586
   63MOL   H11915123   0.290   4.753   7.552 -1.7264  1.4892 -1.6795
   63MOL   H12015124   0.231   4.587   7.496 -0.2871 -0.2523 -1.6515
   63MOL   H12115125   0.708   4.812   7.389 -1.8380  1.3848 -0.8171
   63MOL   C12215126   0.453   4.536   7.326  0.6239 -0.5372  0.0065
   63MOL   C12315127   0.385   4.569   7.188  0.1232  0.1812  0.9691
   63MOL   C12415128   0.396   4.713   7.147 -0.5965 -1.2067 -0.4146
   63MOL   C12515129   0.467   4.495   7.084  0.3900  0.0554 -0.0750
   63MOL   O12615130   0.431   4.394   7.025  0.3341  0.1561  0.0173
   63MOL   O12715131   0.594   4.547   7.068 -0.5826 -0.2481  0.7830
   63MOL   H12815132   0.558   4.517   7.304  0.5457 -0.2168 -0.6605
   63MOL   H12915133   0.407   4.440   7.348  0.3018 -0.7906 -1.7559
   63MOL   H13015134   0.340   4.735   7.055 -0.9515 -1.8847 -0.3628
   63MOL   H13115135   0.502   4.736   7.148 -0.8360 -0.0223 -1.3852
   63MOL   H13215136   0.346   4.786   7.210  0.3374  0.4770 -1.5662
   63MOL   H13315137   0.642   4.489   7.012 -0.0617  0.3561  0.5995
   63MOL   C13415138   0.233   4.520   7.187  0.5336  0.0837  0.5466
   63MOL   C13515139   0.122   4.577   7.084  0.0548 -0.3221 -0.5511
   63MOL   C13615140   0.010   4.465   7.099  0.0095 -0.2161 -0.3921
   63MOL   C13715141   0.053   4.702   7.149  0.4752 -0.2132 -0.1443
   63MOL   O13815142   7.738   4.693   7.245  0.2586 -0.2634  0.0444
   63MOL   O13915143   0.096   4.819   7.096  0.4951 -0.5078 -0.2768
   63MOL   H14015144   0.239   4.412   7.179  1.0764  0.1627 -0.2131
   63MOL   H14115145   0.194   4.536   7.288  1.1872  2.0133  0.5325
   63MOL   H14215146   0.058   4.370   7.075  0.9140  0.5545 -1.6927
   63MOL   H14315147   7.688   4.472   7.037 -0.3165  0.8502  0.1887
   63MOL   H14415148   7.747   4.448   7.203  0.0303 -2.0050 -0.6671
   63MOL   H14515149   0.047   4.888   7.139 -1.3759 -1.0290 -1.5103
   63MOL   C14615150   0.164   4.594   6.933  0.1868 -0.2574 -0.1255
   63MOL   C14715151   0.085   4.552   6.801 -0.2636  0.0084  0.5853
   63MOL   C14815152   0.102   4.397   6.783  0.6074  0.4506  0.3073
   63MOL   C14915153   7.705   4.592   6.804 -0.3878 -0.1394  0.5525
   63MOL   O15015154   7.650   4.664   6.880 -0.5767 -0.1234  0.2105
   63MOL   O15115155   7.631   4.536   6.700 -0.5724  0.4113 -0.1476
   63MOL   H15215156   0.184   4.700   6.916 -3.6335  0.7509  1.0481
   63MOL   H15315157   0.258   4.541   6.918  0.4826 -0.0465  0.9604
   63MOL   H15415158   0.204   4.376   6.750  1.4969  0.1221  3.1484
   63MOL   H15515159   0.025   4.354   6.719  0.5737 -3.0181  2.5312
   63MOL   H15615160   0.102   4.334   6.872  2.8813  0.8234  0.5927
   63MOL   H15715161   7.544   4.572   6.708 -0.0119  1.6515  0.5117
   63MOL   C15815162   0.163   4.620   6.679 -0.3238 -0.0663 -0.5600
   63MOL   C15915163   0.152   4.762   6.618  0.3578  0.2768 -0.1264
   63MOL   C16015164   0.031   4.770   6.525 -0.3033  0.1608 -1.3210
   63MOL   C16115165   0.135   4.876   6.728  0.5835  0.8684  0.1129
   63MOL   O16215166   0.026   4.931   6.746 -0.6190  0.4900  0.2875
   63MOL   O16315167   0.248   4.895   6.808  0.4255  0.0632  0.3817
   63MOL   H16415168   0.266   4.600   6.709  0.4824 -1.2759 -3.9325
   63MOL   H16515169   0.144   4.557   6.592  1.0026  0.3325 -1.1392
   63MOL   H16615170   0.015   4.874   6.495  1.8143  1.5935  2.2204
   63MOL   H16715171   7.708   4.739   6.578  0.0418  0.5999 -0.4667
   63MOL   H16815172   0.035   4.707   6.436 -2.4588 -0.9072 -0.7012
   63MOL   H16915173   0.230   4.963   6.871  1.0519 -1.1787  1.9454
   63MOL   C17015174   0.288   4.786   6.535  0.0212  0.4168 -0.3764
   63MOL   C17115175   0.316   4.895   6.429  0.4067 -0.5736 -0.8495
   63MOL   C17215176   0.461   4.881   6.385 -0.8442  0.8960 -0.2560
   63MOL   C17315177   0.232   4.862   6.303  0.2654  0.3741 -0.0253
   63MOL   O17415178   0.132   4.925   6.266 -0.0455 -0.0206 -0.1976
   63MOL   O17515179   0.279   4.754   6.232 -0.5484  0.4271  0.0068
   63MOL   H17615180   0.367   4.792   6.609 -0.8859 -0.2778  0.6561
   63MOL   H17715181   0.312   4.693   6.483  0.6283  0.1263  0.4186
   63MOL   H17815182   0.489   4.780   6.356 -2.5247  0.0498  0.9846
   63MOL   H17915183   0.528   4.886   6.470 -0.7993 -1.6592 -0.0982
   63MOL   H18015184   0.484   4.949   6.303 -3.2079  0.9542 -0.9244
   63MOL   H18115185   0.224   4.732   6.157 -2.5911 -1.9690  2.1017
   63MOL   C18215186   0.302   5.041   6.499 -0.1103 -0.7873  0.1373
   63MOL   C18315187   0.364   5.172   6.443  0.1210  0.2676 -0.1744
   63MOL   C18415188   0.309   5.281   6.538 -0.8729  0.3195 -0.1323
   63MOL   C18515189   0.513   5.182   6.459  0.1306 -0.2949 -0.6887
   63MOL   O18615190   0.564   5.212   6.565 -0.5288 -0.2095 -0.2690
   63MOL   O18715191   0.589   5.153   6.350  0.2180 -0.0498  0.5072
   63MOL   H18815192   0.195   5.060   6.494  0.0671 -0.0377 -0.9750
   63MOL   H18915193   0.338   5.023   6.600 -1.6244 -0.1969  0.7814
   63MOL   H19015194   0.201   5.294   6.527 -1.1834 -0.4819  1.7751
   63MOL   H19115195   0.361   5.377   6.541 -1.2095  0.4646  1.2898
   63MOL   H19215196   0.317   5.236   6.636  1.9506 -0.4603 -0.6864
   63MOL   H19315197   0.680   5.143   6.371  0.2109 -1.8011 -0.2604
   63MOL   C19415198   0.304   5.201   6.297  0.6714  0.0469 -0.0315
   63MOL   C19515199   0.352   5.318   6.199 -0.1792  0.4419 -0.6349
   63MOL   C19615200   0.374   5.456   6.267  0.5670  0.0655 -0.0721
   63MOL   C19715201   0.487   5.294   6.119  0.1145 -0.3350 -0.1634
   63MOL   O19815202   0.579   5.372   6.099  0.6818  0.0805 -0.4773
   63MOL   O19915203   0.495   5.162   6.082  0.7493 -0.1722  0.0040
   63MOL   H20015204   0.306   5.110   6.236 -0.6652 -0.5414  0.7911
   63MOL   H20115205   0.197   5.218   6.306  0.6817  1.1981 -1.7794
   63MOL   H20215206   0.288   5.472   6.332 -1.2503 -4.0795 -1.2730
   63MOL   H20315207   0.398   5.539   6.200 -3.7141  0.1122 -1.6432
   63MOL   H20415208   0.460   5.451   6.334  0.6063 -0.8589 -0.1814
   63MOL   H20515209   0.415   5.113   6.089  0.9881 -0.5179  0.3315
   63MOL   C20615210   0.236   5.359   6.091 -0.0097  0.0259  0.1507
   63MOL   C20715211   0.180   5.281   5.975 -0.2253  0.1227 -0.5176
   63MOL   C20815212   0.278   5.294   5.858 -0.4732  0.4822  0.1941
   63MOL   C20915213   0.170   5.138   6.015 -0.0817  0.4752  0.3829
   63MOL   O21015214   0.258   5.059   5.981  0.2785 -0.3608  0.2582
   63MOL   O21115215   0.061   5.115   6.096 -0.6327  0.2981 -0.1784
   63MOL   H21215216   0.155   5.390   6.156 -0.4715 -1.3697  0.2540
   63MOL   H21315217   0.271   5.452   6.044  2.0276 -0.3573  0.8626
   63MOL   H21415218   0.252   5.383   5.800 -0.0672 -0.1641 -0.9744
   63MOL   H21515219   0.272   5.212   5.788 -1.6352  0.8365 -0.1414
   63MOL   H21615220   0.382   5.303   5.887 -0.8000  0.1858  1.4807
   63MOL   H21715221   0.062   5.030   6.138  0.2825 -0.6635 -2.0879
   63MOL   C21815222   0.043   5.350   5.928 -0.1880 -0.3062 -0.1322
   63MOL   C21915223   7.712   5.308   5.804 -0.5005  0.7020 -0.4875
   63MOL   C22015224   7.645   5.446   5.768  0.0221 -0.3168  0.2955
   63MOL   C22115225   0.016   5.264   5.676  0.2371  0.5659 -0.6894
   63MOL   O22215226   0.056   5.335   5.585  0.2889 -0.0816 -0.3121
   63MOL   O22315227   0.032   5.127   5.672 -0.7451 -0.1804  0.0288
   63MOL   H22415228   7.758   5.368   6.022 -0.6491 -0.2415 -0.4006
   63MOL   H22515229   0.061   5.457   5.920 -0.3203 -0.2475  0.3231
   63MOL   H22615230   7.573   5.479   5.842  0.6880 -1.2104  1.3462
   63MOL   H22715231   7.578   5.435   5.682 -0.3155 -1.2111  0.6652
   63MOL   H22815232   7.719   5.524   5.752  1.9865 -2.3011 -0.6894
   63MOL   H22915233   0.079   5.114   5.592  2.8952  0.5558  1.9573
   63MOL   C23015234   7.606   5.201   5.858  0.6518  0.3790 -0.4333
   63MOL   C23115235   7.485   5.152   5.770 -0.4338 -0.5153 -0.1880
   63MOL   C23215236   7.424   5.020   5.817  0.0190  0.2524 -0.0558
   63MOL   C23315237   7.377   5.266   5.759 -0.3917  0.2699  0.6092
   63MOL   O23415238   7.349   5.338   5.854 -0.5315  0.2628  0.3985
   63MOL   O23515239   7.312   5.272   5.643 -0.0475 -0.1233  0.1681
   63MOL   H23615240   7.657   5.108   5.884  2.0792  1.6437  1.4461
   63MOL   H23715241   7.563   5.224   5.956  2.9100 -2.1921  1.2529
   63MOL   H23815242   7.323   4.997   5.781  0.1862  0.4930 -0.6803
   63MOL   H23915243   7.421   5.011   5.926  0.8725 -1.6306 -0.1694
   63MOL   H24015244   7.480   4.942   5.766  0.6686  1.2904 -0.9346
   63MOL   H24115245   7.266   5.353   5.654  1.6855  1.2461 -2.2668
   63MOL   H24215246   7.515   5.149   5.666 -0.2948  1.1172 -0.2025
   64MOL     C115247   1.259   1.447   5.387  0.4693  0.5765 -0.2791
   64MOL     C215248   1.236   1.452   5.542 -0.7398  0.0707 -0.3122
   64MOL     C315249   1.258   1.603   5.579 -0.6195 -0.7567  0.6676
   64MOL     C415250   1.087   1.406   5.569 -0.1126 -0.2671  0.4242
   64MOL     O515251   1.023   1.326   5.503 -0.0193 -0.2502  0.2971
   64MOL     O615252   1.030   1.461   5.676  0.4255 -0.0412  0.1516
   64MOL     H715253   1.204   1.522   5.330 -1.3704 -0.6219 -0.1572
   64MOL     H815254   1.210   1.356   5.352 -2.1701  2.1074 -0.7743
   64MOL     H915255   1.347   1.655   5.543  0.4679 -3.2777 -0.4420
   64MOL    H1015256   1.259   1.620   5.687  0.4936 -1.5737  0.7966
   64MOL    H1115257   1.170   1.658   5.546 -0.9670 -2.1202 -0.7473
   64MOL    H1215258   0.959   1.403   5.700 -0.9154  0.7862 -1.6870
   64MOL    H1315259   1.364   1.438   5.362  0.8737 -2.0387  2.1641
   64MOL    C1415260   1.345   1.356   5.601 -0.3218 -0.4430 -0.0154
   64MOL    C1515261   1.398   1.353   5.750  0.5228 -0.0174  0.1091
   64MOL    C1615262   1.504   1.234   5.763 -0.7526  0.2403  0.2645
   64MOL    C1715263   1.473   1.478   5.795 -0.3725  0.0218  0.2000
   64MOL    O1815264   1.441   1.569   5.873 -0.4621  0.6298  0.5205
   64MOL    O1915265   1.586   1.478   5.716  0.3251  0.4470  0.0995
   64MOL    H2015266   1.317   1.254   5.575  1.1379 -0.7500 -0.4275
   64MOL    H2115267   1.437   1.375   5.546 -0.4412 -0.7335 -0.3118
   64MOL    H2215268   1.559   1.238   5.856  0.7644 -0.8937 -0.5603
   64MOL    H2315269   1.583   1.229   5.688 -0.6596  1.4495  0.2773
   64MOL    H2415270   1.462   1.133   5.756  0.3242 -0.6068  4.6020
   64MOL    H2515271   1.635   1.556   5.737 -1.2191  1.5368 -0.2590
   64MOL    C2615272   1.276   1.315   5.847  0.3708 -0.3860 -0.1136
   64MOL    C2715273   1.295   1.264   5.998 -0.2603 -0.1275  0.2801
   64MOL    C2815274   1.155   1.260   6.051  0.1464  0.0687 -0.2552
   64MOL    C2915275   1.356   1.116   5.999  0.7668  0.7387  0.4317
   64MOL    O3015276   1.470   1.099   6.029  0.2055 -0.2249 -0.0214
   64MOL    O3115277   1.283   1.026   5.933  0.3398 -0.1405 -0.6283
   64MOL    H3215278   1.226   1.412   5.855 -0.9779 -1.1596  1.2839
   64MOL    H3315279   1.207   1.256   5.786  0.5218 -0.6236 -0.0561
   64MOL    H3415280   1.153   1.227   6.154  1.8656  1.8598  0.3756
   64MOL    H3515281   1.094   1.187   5.997  0.9022  0.2561 -1.3825
   64MOL    H3615282   1.104   1.356   6.057 -3.2054 -1.7478  2.2358
   64MOL    H3715283   1.312   0.937   5.948 -1.4498 -0.4963  1.0341
   64MOL    C3815284   1.382   1.353   6.083 -0.2066 -0.4232  0.2052
   64MOL    C3915285   1.387   1.355   6.246  0.8546 -0.6901  0.7521
   64MOL    C4015286   1.281   1.460   6.301 -0.0432 -0.6869 -0.7993
   64MOL    C4115287   1.367   1.222   6.324 -1.0325 -0.3606  0.1169
   64MOL    O4215288   1.286   1.209   6.410 -0.1123  0.0387  0.5060
   64MOL    O4315289   1.459   1.131   6.286 -0.1457  0.1830 -0.4245
   64MOL    H4415290   1.482   1.336   6.043  0.3299 -1.7690  2.0862
   64MOL    H4515291   1.360   1.458   6.060 -2.3125 -1.1763 -1.4399
   64MOL    H4615292   1.300   1.560   6.261 -0.2389 -0.7872 -1.1401
   64MOL    H4715293   1.275   1.471   6.409 -0.6307  1.2320 -1.0034
   64MOL    H4815294   1.183   1.423   6.274 -0.2727  0.3478 -1.4120
   64MOL    H4915295   1.496   1.148   6.201  0.0238 -0.7112 -0.5329
   64MOL    C5015296   1.530   1.415   6.273  0.7750  0.0137  0.0835
   64MOL    C5115297   1.606   1.416   6.415 -1.0484  0.1211 -0.1511
   64MOL    C5215298   1.511   1.460   6.530 -0.2156 -0.7939  0.0545
   64MOL    C5315299   1.679   1.280   6.443  0.0060 -0.1824  0.7758
   64MOL    O5415300   1.688   1.241   6.558 -0.0350 -0.4619  0.2656
   64MOL    O5515301   1.718   1.222   6.331 -0.0718 -0.1303 -0.1855
   64MOL    H5615302   1.598   1.367   6.203  1.9061  1.5839  0.1050
   64MOL    H5715303   1.523   1.516   6.233 -0.4236 -1.3732 -3.4404
   64MOL    H5815304   1.460   1.552   6.501  0.3252 -0.5978 -0.2701
   64MOL    H5915305   1.555   1.473   6.629 -0.0930  1.0957 -0.2270
   64MOL    H6015306   1.431   1.388   6.549 -0.6428 -0.2553  0.3418
   64MOL    H6115307   1.757   1.141   6.359 -1.0997  0.0356  1.8517
   64MOL    C6215308   1.724   1.523   6.424  0.3825  0.5723 -0.1604
   64MOL    C6315309   1.811   1.581   6.305 -0.5863 -0.2565  0.6021
   64MOL    C6415310   1.906   1.470   6.242  0.5245  0.1271  0.3813
   64MOL    C6515311   1.718   1.645   6.197  0.4663 -0.0595 -0.3737
   64MOL    O6615312   1.710   1.608   6.081  0.1522 -0.1322  0.9531
   64MOL    O6715313   1.638   1.746   6.244 -0.0197  0.0330 -0.1344
   64MOL    H6815314   1.669   1.612   6.454 -1.7576 -0.2040 -1.7389
   64MOL    H6915315   1.788   1.515   6.512  0.8814 -3.2075 -0.7987
   64MOL    H7015316   1.993   1.435   6.297  0.9354 -1.5195 -1.2712
   64MOL    H7115317   1.946   1.519   6.153  2.4628  0.0896  1.2037
   64MOL    H7215318   1.841   1.395   6.196 -2.0378  3.5778 -1.9225
   64MOL    H7315319   1.576   1.776   6.179 -0.6948  3.7263  2.0908
   64MOL    C7415320   1.896   1.692   6.369 -0.2126 -0.0047  0.3122
   64MOL    C7515321   2.016   1.775   6.297  0.0285 -0.0175 -0.1374
   64MOL    C7615322   2.146   1.688   6.307  0.2417  0.1883 -0.0633
   64MOL    C7715323   1.981   1.804   6.153 -0.4946  0.6576  0.8352
   64MOL    O7815324   2.017   1.733   6.063 -0.2856  0.4490  0.1677
   64MOL    O7915325   1.902   1.907   6.135 -0.0740  0.5179 -0.3897
   64MOL    H8015326   1.823   1.762   6.408  0.0301  0.8969 -0.8371
   64MOL    H8115327   1.936   1.658   6.464 -0.3918  0.5744  0.5920
   64MOL    H8215328   2.177   1.658   6.407  1.2237 -0.4677 -0.5490
   64MOL    H8315329   2.232   1.735   6.259  0.9678 -2.0278 -1.0103
   64MOL    H8415330   2.140   1.596   6.249 -0.5468  0.8871 -1.0869
   64MOL    H8515331   1.870   1.905   6.046 -1.2325 -1.0431  0.0281
   64MOL    C8615332   2.012   1.905   6.388 -0.1643 -0.4924  0.0467
   64MOL    C8715333   2.122   2.015   6.412  0.5932  0.0873 -1.1684
   64MOL    C8815334   2.242   1.980   6.511  0.2510 -0.4395 -0.2029
   64MOL    C8915335   2.173   2.031   6.266 -0.0101 -0.2066  0.1050
   64MOL    O9015336   2.107   2.090   6.178 -0.1708  0.1691 -0.0467
   64MOL    O9115337   2.299   1.977   6.239  0.2468  0.4007 -0.2662
   64MOL    H9215338   1.914   1.947   6.363 -0.2843 -2.2166 -2.5365
   64MOL    H9315339   1.999   1.862   6.488 -0.2076 -0.5226  0.0274
   64MOL    H9415340   2.285   1.884   6.482  0.7271 -0.8398  1.7187
   64MOL    H9515341   2.201   1.959   6.610 -1.2089  0.0663 -0.6858
   64MOL    H9615342   2.303   2.070   6.516 -2.9427  1.7224  1.3379
   64MOL    H9715343   2.305   1.982   6.145 -1.2677 -1.9829 -0.5439
   64MOL    C9815344   2.051   2.150   6.447  0.2938  0.3739 -0.1188
   64MOL    C9915345   1.986   2.171   6.594 -0.0406 -0.2493  0.3264
   64MOL   C10015346   1.887   2.057   6.628  0.3202 -0.0883  0.3842
   64MOL   C10115347   2.086   2.170   6.712 -1.0250  0.1066  0.1677
   64MOL   O10215348   2.095   2.083   6.798 -0.7015 -0.4873 -0.5732
   64MOL   O10315349   2.168   2.280   6.721 -0.0024  0.0923  0.4369
   64MOL   H10415350   2.127   2.226   6.428  1.9657 -1.2734 -0.0513
   64MOL   H10515351   1.975   2.155   6.369  0.3539 -2.1167 -0.3787
   64MOL   H10615352   1.936   1.963   6.650  1.3018  0.3936  0.2907
   64MOL   H10715353   1.814   2.045   6.548  0.5433 -1.4871  0.3901
   64MOL   H10815354   1.832   2.078   6.720  1.0617 -0.4008  0.9075
   64MOL   H10915355   2.194   2.282   6.811 -2.7451 -1.9385  1.3451
   64MOL   C11015356   1.891   2.302   6.604 -0.3311 -0.5801 -0.0888
   64MOL   C11115357   1.929   2.458   6.591  0.5363  0.1137 -0.4561
   64MOL   C11215358   1.957   2.519   6.731 -0.3139 -0.3384 -0.6179
   64MOL   C11315359   2.039   2.486   6.485 -0.0738  1.3010  0.1020
   64MOL   O11415360   2.004   2.508   6.370 -0.2435  0.0905 -0.2729
   64MOL   O11515361   2.168   2.480   6.531 -0.0659 -0.1702  0.2021
   64MOL   H11615362   1.812   2.279   6.533  2.0838 -0.3872 -2.9474
   64MOL   H11715363   1.845   2.291   6.702 -3.0629  0.3205 -1.2267
   64MOL   H11815364   1.984   2.624   6.743  2.0360 -0.9598 -0.2106
   64MOL   H11915365   2.039   2.474   6.788 -0.4899  0.4190  0.2559
   64MOL   H12015366   1.875   2.501   6.800  0.0138  1.9173  0.4259
   64MOL   H12115367   2.181   2.477   6.625 -1.8815 -1.0227  0.4472
   64MOL   C12215368   1.797   2.524   6.540  0.7861  0.1155 -0.2410
   64MOL   C12315369   1.762   2.679   6.540 -0.2188  0.1159  1.2025
   64MOL   C12415370   1.665   2.681   6.413 -0.1632  0.2280  0.4952
   64MOL   C12515371   1.673   2.727   6.656 -0.1918  0.6544 -0.7234
   64MOL   O12615372   1.691   2.688   6.771  0.2310  0.4977 -0.0952
   64MOL   O12715373   1.585   2.824   6.622  0.0658  0.3910 -0.5975
   64MOL   H12815374   1.764   2.485   6.444 -1.3018 -0.0736  0.5215
   64MOL   H12915375   1.719   2.478   6.600 -0.7814  1.7406 -0.9843
   64MOL   H13015376   1.577   2.618   6.422  0.5272 -0.7559  0.4286
   64MOL   H13115377   1.723   2.656   6.324  1.4535 -0.6077  1.7666
   64MOL   H13215378   1.626   2.778   6.380  1.4378  0.2830 -1.3619
   64MOL   H13315379   1.551   2.867   6.699  0.9275 -0.2920  0.1625
   64MOL   C13415380   1.885   2.770   6.507 -0.4835 -0.0244 -0.9626
   64MOL   C13515381   1.896   2.923   6.527  0.7805 -0.0995 -0.0787
   64MOL   C13615382   1.788   3.001   6.449 -0.1231 -0.1383  0.3230
   64MOL   C13715383   1.887   2.973   6.675  0.2157  0.6391  0.0067
   64MOL   O13815384   1.809   3.053   6.723 -0.3968  0.2846 -0.3309
   64MOL   O13915385   1.969   2.898   6.756  0.8619 -0.5710 -0.3081
   64MOL   H14015386   1.974   2.730   6.555 -0.9570  1.2903  1.0536
   64MOL   H14115387   1.910   2.753   6.402  0.0238 -0.8811 -0.7111
   64MOL   H14215388   1.781   2.984   6.341  1.5982 -0.2649  0.2146
   64MOL   H14315389   1.788   3.109   6.464  2.5281 -0.1592  0.7232
   64MOL   H14415390   1.693   2.970   6.493 -0.2032 -1.0218 -0.4505
   64MOL   H14515391   1.968   2.935   6.843 -1.8554  1.6996 -1.2505
   64MOL   C14615392   2.035   2.971   6.463  0.2970 -0.3702  0.6395
   64MOL   C14715393   2.070   3.121   6.405  0.0684  0.0787 -0.5426
   64MOL   C14815394   1.994   3.163   6.278  0.4512 -0.5681  0.1382
   64MOL   C14915395   2.046   3.230   6.516 -0.0741 -0.2797 -0.0447
   64MOL   O15015396   2.010   3.350   6.489 -0.0299  0.5094  0.1198
   64MOL   O15115397   2.072   3.196   6.646 -0.1056  0.1137  0.5953
   64MOL   H15215398   2.095   2.925   6.541  0.0513 -0.3608  0.8368
   64MOL   H15315399   2.053   2.909   6.375  2.0192  2.1415 -0.8579
   64MOL   H15415400   2.039   3.242   6.218 -2.6858 -1.6679 -3.8960
   64MOL   H15515401   1.888   3.183   6.294  0.8322  0.2638  1.8116
   64MOL   H15615402   1.993   3.081   6.206  0.5492  0.6144 -1.2208
   64MOL   H15715403   2.078   3.276   6.697  0.6255  0.4177  0.0414
   64MOL   C15815404   2.223   3.114   6.364 -1.0650 -0.1294  0.5686
   64MOL   C15915405   2.355   3.091   6.455  0.2090  0.0018 -0.4709
   64MOL   C16015406   2.454   3.017   6.355 -0.1006  0.3145  0.3545
   64MOL   C16115407   2.416   3.235   6.481  0.5070  0.3154  0.7666
   64MOL   O16215408   2.529   3.265   6.449  0.1555 -0.3533  0.0272
   64MOL   O16315409   2.330   3.314   6.551 -0.4458  0.1853  0.0009
   64MOL   H16415410   2.223   3.039   6.285 -0.2417  0.3084  0.1469
   64MOL   H16515411   2.248   3.208   6.314 -0.9671 -0.2735  0.3442
   64MOL   H16615412   2.429   2.911   6.343  1.6192 -0.3384  2.3560
   64MOL   H16715413   2.559   3.013   6.382 -0.5126 -1.5825  1.8305
   64MOL   H16815414   2.451   3.065   6.257 -1.2833  0.9346  0.6763
   64MOL   H16915415   2.368   3.400   6.563 -3.0251  1.8996 -3.1852
   64MOL   C17015416   2.330   3.014   6.586  0.4036  0.4718 -0.4776
   64MOL   C17115417   2.424   3.009   6.716 -0.0117  0.2662  0.0984
   64MOL   C17215418   2.556   2.973   6.656  0.5179 -0.3543  0.0522
   64MOL   C17315419   2.438   3.146   6.785 -0.7607  1.0225 -0.2835
   64MOL   O17415420   2.548   3.205   6.785  0.1571  0.0044 -0.4399
   64MOL   O17515421   2.321   3.193   6.840  0.1020 -0.4017 -0.7487
   64MOL   H17615422   2.239   3.040   6.640 -0.9384  1.8165 -3.2597
   64MOL   H17715423   2.310   2.910   6.559 -0.6959  0.9189 -1.4336
   64MOL   H17815424   2.590   3.050   6.588 -1.9244  0.8466  0.1335
   64MOL   H17915425   2.554   2.879   6.600  1.2366 -0.3465  0.0059
   64MOL   H18015426   2.628   2.952   6.736  0.2420 -2.4080 -0.1971
   64MOL   H18115427   2.343   3.268   6.893 -0.6346 -0.5547 -0.2200
   64MOL   C18215428   2.363   2.895   6.811 -0.1148  0.3917 -0.1416
   64MOL   C18315429   2.430   2.836   6.950 -0.1014 -0.5797 -0.2806
   64MOL   C18415430   2.490   2.954   7.031  0.2685  0.5061  0.7879
   64MOL   C18515431   2.321   2.780   7.045  0.1689 -0.1149  0.2763
   64MOL   O18615432   2.344   2.740   7.159 -0.3571  0.0141  0.4046
   64MOL   O18715433   2.194   2.770   6.992 -0.1823  1.2461 -0.1994
   64MOL   H18815434   2.269   2.931   6.854 -1.0333 -1.8803 -0.1879
   64MOL   H18915435   2.319   2.814   6.752 -2.3084  0.5588  1.2042
   64MOL   H19015436   2.569   3.001   6.972  0.3082 -1.0061 -0.3899
   64MOL   H19115437   2.522   2.934   7.134 -0.0134 -1.7048  0.4752
   64MOL   H19215438   2.415   3.033   7.030  0.0951  0.3333  0.0941
   64MOL   H19315439   2.133   2.736   7.057 -0.3981 -0.3473 -1.2083
   64MOL   C19415440   2.537   2.724   6.926 -0.4026 -0.2055 -0.3395
   64MOL   C19515441   2.519   2.578   6.875 -0.2057  0.0327 -0.7280
   64MOL   C19615442   2.450   2.486   6.991  0.4628 -0.1310  0.5734
   64MOL   C19715443   2.425   2.574   6.749 -0.3538  0.5062  0.2327
   64MOL   O19815444   2.305   2.531   6.751 -0.3098 -0.6612 -0.0087
   64MOL   O19915445   2.477   2.644   6.644  0.2543  0.1045  0.3568
   64MOL   H20015446   2.614   2.767   6.862 -1.9370  1.7469 -0.9262
   64MOL   H20115447   2.597   2.724   7.018 -0.8664  2.6577  0.0111
   64MOL   H20215448   2.493   2.508   7.089 -0.7064 -0.6617  1.2119
   64MOL   H20315449   2.465   2.382   6.963 -1.5092 -0.3894  0.3724
   64MOL   H20415450   2.345   2.512   7.005 -0.0523 -0.8860 -1.7079
   64MOL   H20515451   2.425   2.638   6.565 -0.9015  0.4949  1.0660
   64MOL   C20615452   2.664   2.515   6.854 -0.7008  0.0241 -0.6702
   64MOL   C20715453   2.711   2.408   6.749  0.0177 -0.3959 -0.1625
   64MOL   C20815454   2.851   2.358   6.797  0.3680 -0.2504 -0.3444
   64MOL   C20915455   2.625   2.273   6.753 -0.3123  0.3883 -0.1544
   64MOL   O21015456   2.586   2.215   6.651 -0.4297 -0.0384 -1.3459
   64MOL   O21115457   2.629   2.222   6.888  0.2252  0.9621 -0.2933
   64MOL   H21215458   2.738   2.596   6.848 -1.2370  0.3814 -2.9982
   64MOL   H21315459   2.695   2.487   6.955  1.4586  1.0771 -1.0146
   64MOL   H21415460   2.841   2.327   6.901  0.5004 -1.1299 -0.5946
   64MOL   H21515461   2.929   2.434   6.795 -0.8023  0.9596 -1.5165
   64MOL   H21615462   2.891   2.274   6.740  3.5669  1.6287 -0.9328
   64MOL   H21715463   2.677   2.276   6.949  1.0635 -1.0563  0.8919
   64MOL   C21815464   2.724   2.449   6.598  0.2881 -0.0766 -0.1560
   64MOL   C21915465   2.826   2.553   6.531 -0.7873  0.3219  0.0180
   64MOL   C22015466   2.837   2.691   6.608 -0.1120 -0.3175 -0.5177
   64MOL   C22115467   2.971   2.496   6.529  0.1120 -0.0242  0.2442
   64MOL   O22215468   3.062   2.551   6.588  0.7822 -0.3010 -0.4486
   64MOL   O22315469   2.985   2.378   6.464  0.7084  0.3178  0.0627
   64MOL   H22415470   2.735   2.356   6.542 -1.1439 -2.2484  3.0027
   64MOL   H22515471   2.623   2.487   6.579 -1.3090 -3.0153  1.9804
   64MOL   H22615472   2.912   2.755   6.562  0.1603 -0.5749 -0.4364
   64MOL   H22715473   2.861   2.691   6.715 -0.1367  1.7750 -0.5016
   64MOL   H22815474   2.740   2.737   6.627 -0.5729 -1.9524  1.2454
   64MOL   H22915475   3.076   2.353   6.470  0.9423  1.1291  0.0626
   64MOL   C23015476   2.779   2.582   6.381 -0.0106 -0.0593  0.5489
   64MOL   C23115477   2.875   2.669   6.288 -0.2058 -0.1116 -0.5764
   64MOL   C23215478   2.890   2.597   6.150  0.3165 -0.6172 -0.0428
   64MOL   C23315479   2.826   2.818   6.273  0.5065 -0.5134  0.1790
   64MOL   O23415480   2.832   2.901   6.366  0.3063 -0.1516  0.2101
   64MOL   O23515481   2.762   2.836   6.150  0.2476  0.0999 -0.0611
   64MOL   H23615482   2.763   2.479   6.347  0.4153 -0.3322  1.1843
   64MOL   H23715483   2.686   2.639   6.379 -0.0214 -0.0696  0.7587
   64MOL   H23815484   2.926   2.669   6.076  1.6702 -1.3448 -0.1022
   64MOL   H23915485   2.792   2.566   6.115  0.6694 -0.7487 -0.9470
   64MOL   H24015486   2.950   2.506   6.155  1.5493  0.1854 -0.0506
   64MOL   H24115487   2.714   2.917   6.150 -1.0534 -0.6248  2.3861
   64MOL   H24215488   2.978   2.677   6.323  0.0216 -0.3858 -1.1784
   65MOL     C115489   5.251   3.923   3.689  0.0420  0.3938 -0.3333
   65MOL     C215490   5.286   3.932   3.542 -0.3061 -0.0646  0.0393
   65MOL     C315491   5.154   3.895   3.468 -0.3855 -0.7711 -0.1337
   65MOL     C415492   5.323   4.078   3.523  0.3205 -0.4622  0.1262
   65MOL     O515493   5.285   4.143   3.422 -0.2371 -0.0912 -0.2283
   65MOL     O615494   5.402   4.128   3.615  0.2018  0.1777 -0.2383
   65MOL     H715495   5.335   3.928   3.758 -1.2492 -1.8267  1.4571
   65MOL     H815496   5.195   3.833   3.713 -1.0441  1.2233  0.2881
   65MOL     H915497   5.068   3.955   3.496 -1.2301 -1.4229 -1.2420
   65MOL    H1015498   5.122   3.792   3.486  2.5736 -1.6458  0.4103
   65MOL    H1115499   5.163   3.912   3.360  0.9158 -1.9835 -0.2390
   65MOL    H1215500   5.436   4.214   3.598  0.9385  0.3228  1.7606
   65MOL    H1315501   5.190   3.999   3.738  1.1336  0.7771  0.4439
   65MOL    C1415502   5.405   3.830   3.514  0.3898  0.3170  0.6871
   65MOL    C1515503   5.460   3.793   3.369  0.2417  0.2502 -0.8024
   65MOL    C1615504   5.585   3.704   3.386  0.1491 -0.2240  0.4728
   65MOL    C1715505   5.355   3.710   3.289 -0.8487 -0.5232  0.4607
   65MOL    O1815506   5.280   3.754   3.196 -0.0901 -0.5121  0.3371
   65MOL    O1915507   5.344   3.582   3.337  0.1880 -0.2920 -0.1489
   65MOL    H2015508   5.492   3.876   3.562 -0.5228  1.8635  0.8803
   65MOL    H2115509   5.381   3.740   3.569 -3.0481  1.9774  2.0375
   65MOL    H2215510   5.556   3.634   3.464 -2.0519 -0.3016 -0.3735
   65MOL    H2315511   5.667   3.762   3.427 -0.6194  0.7178  0.6788
   65MOL    H2415512   5.605   3.639   3.300 -1.5930 -1.6891  1.1369
   65MOL    H2515513   5.411   3.555   3.397 -0.8787 -2.1803  0.2142
   65MOL    C2615514   5.508   3.918   3.289  0.1465 -0.4899 -0.3690
   65MOL    C2715515   5.599   3.921   3.153 -0.1872 -0.3065  0.4931
   65MOL    C2815516   5.590   4.065   3.102  0.1588 -0.4126 -0.6231
   65MOL    C2915517   5.745   3.888   3.195 -0.1526 -0.1407 -0.0519
   65MOL    O3015518   5.817   3.967   3.254 -0.1250  0.1165 -0.2905
   65MOL    O3115519   5.792   3.774   3.155  0.5975  0.3526  0.5710
   65MOL    H3215520   5.424   3.983   3.265  0.6070  0.4127  0.4215
   65MOL    H3315521   5.562   3.977   3.363 -0.8235  0.9560 -0.7701
   65MOL    H3415522   5.670   4.085   3.031 -2.7244  2.1305 -3.3034
   65MOL    H3515523   5.593   4.138   3.183 -0.8578 -0.6416 -0.3671
   65MOL    H3615524   5.493   4.079   3.055  1.1945 -0.1853 -2.7639
   65MOL    H3715525   5.880   3.759   3.186 -0.3947 -0.7990  2.9803
   65MOL    C3815526   5.531   3.833   3.042  0.1850  0.1383 -0.7731
   65MOL    C3915527   5.594   3.790   2.900 -0.3554  0.2349  0.1454
   65MOL    C4015528   5.666   3.906   2.826 -0.6108  0.2839 -0.0610
   65MOL    C4115529   5.697   3.676   2.904  1.1352  0.4667 -0.4930
   65MOL    O4215530   5.801   3.681   2.844  0.1811  0.2192  0.6640
   65MOL    O4315531   5.652   3.566   2.970 -0.6335  0.2404  0.2144
   65MOL    H4415532   5.509   3.739   3.092  1.3183 -0.1020 -0.7143
   65MOL    H4515533   5.431   3.872   3.026  0.5400  0.8392 -1.3001
   65MOL    H4615534   5.761   3.945   2.864  0.6748 -0.9627 -1.9393
   65MOL    H4715535   5.608   3.998   2.826  2.2461  2.1697 -3.1997
   65MOL    H4815536   5.678   3.883   2.720  0.1613  0.1886  0.0448
   65MOL    H4915537   5.719   3.501   2.955 -0.2772  0.0947  2.2453
   65MOL    C5015538   5.471   3.745   2.802  0.4977 -0.1703 -1.0149
   65MOL    C5115539   5.465   3.675   2.652 -0.0705 -0.2066 -0.3499
   65MOL    C5215540   5.573   3.570   2.629  0.0132 -0.3168 -0.4951
   65MOL    C5315541   5.328   3.597   2.654  0.4735 -0.3544  0.9748
   65MOL    O5415542   5.319   3.476   2.645 -0.0011 -0.7888  0.1232
   65MOL    O5515543   5.218   3.680   2.666 -0.5609  0.0623  0.1623
   65MOL    H5615544   5.407   3.690   2.872  0.4209  0.1503 -0.8348
   65MOL    H5715545   5.409   3.834   2.792  0.9845  0.1670 -1.0176
   65MOL    H5815546   5.565   3.495   2.708  0.3383  1.1001  0.9055
   65MOL    H5915547   5.669   3.620   2.618  1.1099 -2.6870 -1.9887
   65MOL    H6015548   5.555   3.509   2.541 -0.5643  0.9285 -1.2417
   65MOL    H6115549   5.142   3.632   2.694 -0.5843 -1.0584 -1.7594
   65MOL    C6215550   5.481   3.796   2.547 -0.0899  0.6725 -0.2439
   65MOL    C6315551   5.453   3.801   2.396  0.6185  0.2030  0.0365
   65MOL    C6415552   5.299   3.785   2.374 -0.3729  0.0632  0.1523
   65MOL    C6515553   5.480   3.944   2.349 -0.0680 -0.0884 -0.1626
   65MOL    O6615554   5.401   4.029   2.318  0.2480  0.2387  0.2762
   65MOL    O6715555   5.616   3.962   2.344  0.2241  0.0375 -0.0997
   65MOL    H6815556   5.417   3.875   2.586  1.2199  0.8827  1.5142
   65MOL    H6915557   5.579   3.841   2.562  1.1255 -1.6951 -0.8354
   65MOL    H7015558   5.256   3.684   2.377  0.6741 -0.4182 -0.7811
   65MOL    H7115559   5.260   3.826   2.282  1.8147  1.8300 -0.0337
   65MOL    H7215560   5.249   3.854   2.442  2.6732  0.5624  1.9716
   65MOL    H7315561   5.618   4.055   2.327  0.2471  0.4056  1.8504
   65MOL    C7415562   5.530   3.696   2.310 -0.0777 -0.1951  1.3854
   65MOL    C7515563   5.508   3.662   2.157 -0.1637 -0.2402  0.5842
   65MOL    C7615564   5.384   3.581   2.139  0.6187  0.8503 -0.9682
   65MOL    C7715565   5.505   3.798   2.071 -0.2505 -0.1181 -0.8839
   65MOL    O7815566   5.611   3.852   2.038 -0.0404 -0.0974 -0.1877
   65MOL    O7915567   5.390   3.845   2.047  0.5684 -0.1380  0.6600
   65MOL    H8015568   5.636   3.720   2.325 -0.4746  0.4913  3.2714
   65MOL    H8115569   5.530   3.594   2.349 -0.1801 -0.0844  1.6756
   65MOL    H8215570   5.295   3.645   2.133 -0.2352  0.0746  2.2808
   65MOL    H8315571   5.363   3.518   2.225  2.3348  1.6265  0.0361
   65MOL    H8415572   5.379   3.529   2.044  1.1897 -1.8313  0.4306
   65MOL    H8515573   5.381   3.924   1.997  0.5207  0.0448  0.9559
   65MOL    C8615574   5.639   3.582   2.109 -0.0152  0.4496  0.1215
   65MOL    C8715575   5.705   3.449   2.166  0.5255 -0.7737 -0.8960
   65MOL    C8815576   5.596   3.338   2.170  0.2806  0.4767  0.1241
   65MOL    C8915577   5.815   3.418   2.060 -0.0257  0.1140 -0.7671
   65MOL    O9015578   5.803   3.324   1.974 -0.1412 -0.3377 -0.0787
   65MOL    O9115579   5.920   3.506   2.069  0.3683 -0.3097 -0.0853
   65MOL    H9215580   5.622   3.568   2.002 -0.4348 -2.6099  0.5368
   65MOL    H9315581   5.716   3.658   2.116  0.7462  0.1444 -3.6393
   65MOL    H9415582   5.633   3.236   2.159  0.2451  0.4895 -0.1130
   65MOL    H9515583   5.539   3.335   2.076  0.1151 -1.1744  0.2527
   65MOL    H9615584   5.521   3.339   2.249  0.4933  0.3077  0.3271
   65MOL    H9715585   5.906   3.559   2.146  0.0932  0.7960 -0.8753
   65MOL    C9815586   5.764   3.466   2.313 -0.1532 -0.1161  0.4320
   65MOL    C9915587   5.878   3.371   2.376  0.0351  0.1980  0.6302
   65MOL   C10015588   6.020   3.423   2.336 -0.4443 -0.6265  0.6142
   65MOL   C10115589   5.857   3.400   2.523  0.4885 -0.6529  0.7633
   65MOL   O10215590   5.917   3.482   2.598 -0.2152  0.6388  0.7669
   65MOL   O10315591   5.765   3.311   2.574  0.2949  0.3351 -0.0332
   65MOL   H10415592   5.780   3.569   2.347  0.5390  0.1920 -0.8002
   65MOL   H10515593   5.677   3.439   2.373 -0.5891  1.7516  0.6905
   65MOL   H10615594   6.100   3.394   2.405  0.2032 -0.6446 -0.1475
   65MOL   H10715595   6.019   3.532   2.334  0.7159 -0.6265 -1.9821
   65MOL   H10815596   6.051   3.391   2.237 -0.6717  0.9420  0.0363
   65MOL   H10915597   5.776   3.306   2.667 -1.1313  0.4724  0.1463
   65MOL   C11015598   5.854   3.217   2.334 -0.5724 -0.3798 -0.6957
   65MOL   C11115599   5.958   3.105   2.375 -0.1810  0.3938  0.1323
   65MOL   C11215600   6.062   3.099   2.268 -0.3491 -0.2337  0.2192
   65MOL   C11315601   6.025   3.135   2.509 -0.5625 -0.0153  0.0779
   65MOL   O11415602   6.140   3.179   2.521 -0.1947 -0.9710  0.2208
   65MOL   O11515603   5.947   3.094   2.617  0.5164  0.2485 -0.7181
   65MOL   H11615604   5.765   3.175   2.380  1.6126 -2.6288  1.6681
   65MOL   H11715605   5.839   3.208   2.226  0.8667  0.5181 -0.9836
   65MOL   H11815606   6.015   3.083   2.172 -2.7847 -1.6719  1.6146
   65MOL   H11915607   6.137   3.024   2.293  0.1427 -0.2486 -1.2440
   65MOL   H12015608   6.122   3.189   2.257  0.3374 -0.3713  2.5237
   65MOL   H12115609   5.975   3.131   2.699 -1.6946  0.1307  0.1224
   65MOL   C12215610   5.893   2.969   2.383 -0.5720  0.3342  0.5685
   65MOL   C12315611   5.857   2.875   2.259  0.1007 -0.8091 -0.0944
   65MOL   C12415612   5.771   2.939   2.138 -0.6489 -0.4507  0.5458
   65MOL   C12515613   5.990   2.810   2.201  0.1152 -0.1247 -0.3491
   65MOL   O12615614   5.994   2.797   2.082 -0.1613  0.3684 -0.0595
   65MOL   O12715615   6.082   2.767   2.292 -0.0811 -0.5099 -0.3106
   65MOL   H12815616   5.964   2.911   2.442 -1.2043  0.4442  1.4409
   65MOL   H12915617   5.818   2.988   2.460  0.0914 -0.6877  1.4633
   65MOL   H13015618   5.741   2.868   2.062 -2.4490 -1.2182  1.9305
   65MOL   H13115619   5.840   3.008   2.089 -2.4160  0.9090 -0.0452
   65MOL   H13215620   5.676   2.985   2.166 -0.2140  1.1822 -0.5787
   65MOL   H13315621   6.166   2.754   2.250 -0.7404 -2.7181 -0.9969
   65MOL   C13415622   5.788   2.747   2.314  0.1583 -0.2312 -0.2503
   65MOL   C13515623   5.641   2.735   2.369  0.9061  0.3673  0.0654
   65MOL   C13615624   5.532   2.776   2.264 -0.3203  0.0823 -0.3192
   65MOL   C13715625   5.627   2.590   2.427 -0.6410 -0.1264  0.2718
   65MOL   O13815626   5.715   2.540   2.492  0.6077  0.1170  0.2080
   65MOL   O13915627   5.502   2.536   2.416 -0.3275  0.4653 -0.1792
   65MOL   H14015628   5.779   2.675   2.232 -0.4908 -0.3642 -0.0605
   65MOL   H14115629   5.855   2.706   2.389 -2.0946 -1.0600  1.3454
   65MOL   H14215630   5.520   2.884   2.263 -0.0164  0.1108 -0.7347
   65MOL   H14315631   5.435   2.730   2.283 -0.2561  0.0197 -0.1406
   65MOL   H14415632   5.561   2.732   2.169  0.2685 -0.1616 -0.0305
   65MOL   H14515633   5.501   2.449   2.454  3.8812  0.1350 -0.6402
   65MOL   C14615634   5.631   2.836   2.487  0.0745  0.6589  0.0776
   65MOL   C14715635   5.523   2.850   2.595 -0.0887 -0.3237  0.8553
   65MOL   C14815636   5.569   2.989   2.665 -0.5474 -0.3546 -0.0038
   65MOL   C14915637   5.386   2.862   2.531  0.1837  0.1361  0.4292
   65MOL   O15015638   5.308   2.768   2.531 -0.2870 -0.1545 -0.1141
   65MOL   O15115639   5.358   2.978   2.463  1.0077 -0.2282 -0.1598
   65MOL   H15215640   5.726   2.836   2.540 -0.3049  0.7342  0.7553
   65MOL   H15315641   5.624   2.931   2.434 -0.8724  0.6408  0.1685
   65MOL   H15415642   5.558   3.079   2.604  1.3818 -0.4820 -0.5749
   65MOL   H15515643   5.673   2.993   2.697 -1.5039  0.9064  3.0861
   65MOL   H15615644   5.525   3.016   2.761  0.2460 -0.7583  0.4712
   65MOL   H15715645   5.264   2.971   2.461  0.9927  0.1892 -1.3705
   65MOL   C15815646   5.533   2.723   2.694 -0.2103  0.0538  0.1340
   65MOL   C15915647   5.492   2.743   2.851  0.5659  1.1549  0.9089
   65MOL   C16015648   5.594   2.817   2.940  0.2415 -0.0458  0.5869
   65MOL   C16115649   5.353   2.818   2.856  0.7311 -0.3182  0.2648
   65MOL   O16215650   5.331   2.935   2.901  0.7345  0.9676 -0.0820
   65MOL   O16315651   5.256   2.736   2.805  0.1052  0.1984 -0.0250
   65MOL   H16415652   5.470   2.646   2.650  0.0017  1.3445 -2.5314
   65MOL   H16515653   5.633   2.681   2.688 -1.0756 -2.3290  1.9026
   65MOL   H16615654   5.560   2.879   3.023 -0.5229 -0.3249  0.4882
   65MOL   H16715655   5.661   2.880   2.881 -0.4622  2.6016  2.5487
   65MOL   H16815656   5.668   2.763   2.998  1.6033  1.9159  0.6976
   65MOL   H16915657   5.291   2.649   2.792 -1.5912 -0.2966 -1.5897
   65MOL   C17015658   5.478   2.598   2.916 -0.3392 -0.3732  0.3993
   65MOL   C17115659   5.393   2.569   3.048  0.2839  0.0148 -0.1005
   65MOL   C17215660   5.243   2.564   3.026  0.1547  0.4558 -0.4744
   65MOL   C17315661   5.425   2.426   3.088  0.4724 -1.0797 -0.4847
   65MOL   O17415662   5.343   2.340   3.099  0.6318  0.2993  0.3397
   65MOL   O17515663   5.554   2.404   3.103  0.4678  0.3531  0.1214
   65MOL   H17615664   5.433   2.528   2.846 -0.7781 -0.5984  0.9042
   65MOL   H17715665   5.578   2.557   2.930 -0.0846  0.2412  0.3821
   65MOL   H17815666   5.211   2.532   2.927 -1.0460  0.4437 -0.0828
   65MOL   H17915667   5.213   2.668   3.037 -0.9199 -0.1609  2.9892
   65MOL   H18015668   5.181   2.519   3.104 -1.4778  0.6411 -1.6464
   65MOL   H18115669   5.566   2.314   3.128  0.1487  0.5638  1.0624
   65MOL   C18215670   5.438   2.658   3.176  0.0759 -0.0401  0.5560
   65MOL   C18315671   5.396   2.631   3.329 -0.5637 -0.7091  0.4090
   65MOL   C18415672   5.483   2.518   3.375 -0.2016  0.2874 -0.1976
   65MOL   C18515673   5.451   2.763   3.387  0.0798  0.1299 -0.0380
   65MOL   O18615674   5.552   2.768   3.458 -0.5355 -0.4480 -0.0966
   65MOL   O18715675   5.362   2.864   3.362  0.2664  0.6514  0.4142
   65MOL   H18815676   5.546   2.673   3.178  0.0533  0.5360 -1.3393
   65MOL   H18915677   5.401   2.758   3.152  0.9260 -0.1754 -1.4644
   65MOL   H19015678   5.432   2.423   3.360  1.9810 -0.8325 -0.7573
   65MOL   H19115679   5.522   2.527   3.477 -0.7573  2.5356 -0.1555
   65MOL   H19215680   5.576   2.503   3.319 -1.0288 -0.8382 -1.2958
   65MOL   H19315681   5.396   2.943   3.401  1.9673  0.0610  0.1771
   65MOL   C19415682   5.245   2.603   3.350 -0.3962 -0.4907  0.3550
   65MOL   C19515683   5.176   2.606   3.489 -0.2789  0.3128  0.7613
   65MOL   C19615684   5.246   2.501   3.582  0.3599 -0.2934 -0.0179
   65MOL   C19715685   5.170   2.742   3.560  0.0276  0.1815 -0.5987
   65MOL   O19815686   5.193   2.758   3.681  0.1751  0.2671  0.2250
   65MOL   O19915687   5.130   2.845   3.479  0.2728 -0.2022  0.7024
   65MOL   H20015688   5.193   2.669   3.280 -0.1739 -1.2054 -0.4997
   65MOL   H20115689   5.217   2.505   3.310  1.7996 -0.2259 -1.9916
   65MOL   H20215690   5.283   2.420   3.519 -0.0130 -1.9104  1.8020
   65MOL   H20315691   5.179   2.463   3.660 -0.6752 -0.5878 -1.0468
   65MOL   H20415692   5.331   2.541   3.638 -0.6601  0.7315  0.7994
   65MOL   H20515693   5.127   2.928   3.524 -0.3078 -1.0289  2.2308
   65MOL   C20615694   5.032   2.545   3.471  0.4527  0.3594 -0.4624
   65MOL   C20715695   4.900   2.570   3.553  0.7790 -0.0213 -0.1820
   65MOL   C20815696   4.921   2.537   3.702 -0.4708  1.0798  0.4418
   65MOL   C20915697   4.850   2.716   3.532 -0.3174  0.6483 -0.1421
   65MOL   O21015698   4.819   2.795   3.621 -0.7054  0.3803  0.5658
   65MOL   O21115699   4.852   2.750   3.399  0.6750  0.3807 -0.2955
   65MOL   H21215700   5.003   2.559   3.367 -3.0752  1.2568  0.5698
   65MOL   H21315701   5.041   2.436   3.467 -2.3989 -0.0086  1.4813
   65MOL   H21415702   4.933   2.429   3.716 -0.6845  0.5933 -2.8882
   65MOL   H21515703   4.840   2.574   3.766 -1.3805  0.4407 -0.3297
   65MOL   H21615704   5.009   2.577   3.752 -1.6748  1.9951  1.8696
   65MOL   H21715705   4.827   2.833   3.362 -0.7169  0.2076  0.2114
   65MOL   C21815706   4.798   2.468   3.498 -0.3729 -0.2232  0.2907
   65MOL   C21915707   4.639   2.459   3.528 -0.5073  0.1695 -0.2759
   65MOL   C22015708   4.591   2.335   3.458 -0.9234  0.0418  0.4745
   65MOL   C22115709   4.613   2.422   3.679 -0.4150 -0.0733  0.1552
   65MOL   O22215710   4.641   2.308   3.722 -0.1723  0.7501  0.4813
   65MOL   O22315711   4.541   2.512   3.750  0.0232 -0.3901 -0.2210
   65MOL   H22415712   4.805   2.472   3.389  0.1083  0.1977  0.3378
   65MOL   H22515713   4.838   2.376   3.540  1.8834  0.9651  0.7912
   65MOL   H22615714   4.604   2.347   3.350 -0.5790 -2.1147  0.2574
   65MOL   H22715715   4.487   2.308   3.474 -0.7010 -1.3974 -0.4464
   65MOL   H22815716   4.656   2.251   3.482  1.1196  1.3843 -0.2234
   65MOL   H22915717   4.556   2.599   3.717  0.4920 -0.9840 -1.5995
   65MOL   C23015718   4.554   2.580   3.476 -0.4539 -0.1322  0.2342
   65MOL   C23115719   4.565   2.617   3.326  0.2476  0.0642 -0.0306
   65MOL   C23215720   4.466   2.533   3.240  0.3778  0.3116 -0.4918
   65MOL   C23315721   4.533   2.762   3.301 -0.3160  0.3447  0.1275
   65MOL   O23415722   4.613   2.854   3.280  0.3625 -0.6613  0.2437
   65MOL   O23515723   4.403   2.784   3.319  0.5817  0.1852  0.1680
   65MOL   H23615724   4.450   2.574   3.508 -0.2062  2.2228  1.5468
   65MOL   H23715725   4.585   2.668   3.533 -0.0805 -1.1910  1.6858
   65MOL   H23815726   4.362   2.550   3.265  0.5106  0.3294  0.0602
   65MOL   H23915727   4.467   2.424   3.242  1.0540  0.3263  0.4855
   65MOL   H24015728   4.485   2.567   3.139  2.3479  0.6324 -0.0339
   65MOL   H24115729   4.378   2.868   3.286 -1.2484 -0.6040 -0.4841
   65MOL   H24215730   4.667   2.589   3.298  0.0665 -0.8483  0.1987
   66MOL     C115731   6.156   2.092   6.699 -0.0291  0.0665  1.0881
   66MOL     C215732   6.241   2.185   6.797  0.7173  0.3732  1.0186
   66MOL     C315733   6.144   2.261   6.886  0.7326  0.5601  0.4835
   66MOL     C415734   6.333   2.104   6.895 -0.3815  0.6767 -0.3361
   66MOL     O515735   6.365   2.146   7.008 -0.3119  0.0657  0.7577
   66MOL     O615736   6.388   1.989   6.851 -0.2647 -0.1109 -0.2120
   66MOL     H715737   6.086   2.021   6.743  0.9206 -0.0454  2.4505
   66MOL     H815738   6.219   2.022   6.644 -1.6659 -1.3865  1.0234
   66MOL     H915739   6.193   2.318   6.965  1.1383 -1.0871  1.4486
   66MOL    H1015740   6.062   2.206   6.932  0.8238  0.9060  1.0702
   66MOL    H1115741   6.094   2.333   6.822 -0.5063  0.1489  0.9621
   66MOL    H1215742   6.423   1.949   6.929  0.2036 -0.8596 -0.8047
   66MOL    H1315743   6.101   2.142   6.619 -1.8791  1.6652  3.2777
   66MOL    C1415744   6.338   2.285   6.720 -0.7571 -0.1149  0.4604
   66MOL    C1515745   6.452   2.257   6.615  0.6620 -0.9619 -0.3476
   66MOL    C1615746   6.581   2.195   6.675 -0.1048  0.3178 -0.3737
   66MOL    C1715747   6.400   2.165   6.498 -0.4700  0.1415 -0.3558
   66MOL    O1815748   6.451   2.052   6.479 -0.2274  0.2391 -0.1495
   66MOL    O1915749   6.291   2.208   6.437  0.6091 -0.0156 -0.5523
   66MOL    H2015750   6.271   2.357   6.674  2.2100  0.9710 -2.3718
   66MOL    H2115751   6.383   2.350   6.795 -1.4929  0.6892  0.2051
   66MOL    H2215752   6.649   2.156   6.599 -1.0456 -0.9016 -0.5875
   66MOL    H2315753   6.571   2.112   6.744  1.0736  0.7826  0.3798
   66MOL    H2415754   6.622   2.280   6.730  0.9821  0.2567 -1.0667
   66MOL    H2515755   6.279   2.142   6.371 -0.8814 -0.9928  0.6586
   66MOL    C2615756   6.498   2.398   6.551 -0.0272 -0.4289  0.0374
   66MOL    C2715757   6.608   2.422   6.444  0.2547 -0.8393 -0.4567
   66MOL    C2815758   6.586   2.568   6.398 -0.1021 -0.1613 -0.6738
   66MOL    C2915759   6.753   2.408   6.502 -0.6040  0.0489  0.1943
   66MOL    O3015760   6.829   2.309   6.480 -0.4225  0.4125 -0.0829
   66MOL    O3115761   6.780   2.500   6.595 -0.2086 -0.0349  0.2436
   66MOL    H3215762   6.408   2.448   6.515  0.3405  1.1655  1.2579
   66MOL    H3315763   6.518   2.469   6.631 -2.0392 -0.1959  0.3746
   66MOL    H3415764   6.535   2.580   6.302 -1.8610 -1.6917  0.0395
   66MOL    H3515765   6.679   2.624   6.383  1.1828 -1.8537  0.7317
   66MOL    H3615766   6.538   2.630   6.472  0.4531  0.7701 -1.0820
   66MOL    H3715767   6.860   2.481   6.641 -0.8115 -0.2352  1.2291
   66MOL    C3815768   6.594   2.331   6.314  0.5648 -0.5413 -0.3021
   66MOL    C3915769   6.687   2.339   6.184  0.6410 -0.8129  0.0353
   66MOL    C4015770   6.585   2.347   6.067 -1.1109  0.2100  0.1184
   66MOL    C4115771   6.775   2.472   6.179  0.2508  0.3619 -1.0564
   66MOL    O4215772   6.749   2.576   6.119 -0.7235  0.3715 -0.5765
   66MOL    O4315773   6.888   2.471   6.256  0.3053  0.4285 -0.2656
   66MOL    H4415774   6.595   2.228   6.349 -0.3717 -0.9028 -1.3093
   66MOL    H4515775   6.489   2.340   6.287  0.5838 -2.5861 -1.1134
   66MOL    H4615776   6.619   2.341   5.963 -0.2292 -4.6122  0.5683
   66MOL    H4715777   6.541   2.446   6.075 -2.3194 -0.1365 -1.9228
   66MOL    H4815778   6.512   2.266   6.065 -0.2808 -0.5534  0.4183
   66MOL    H4915779   6.951   2.540   6.243  0.3283  0.1670 -1.5862
   66MOL    C5015780   6.779   2.209   6.175 -1.1296 -0.0516  0.7399
   66MOL    C5115781   6.851   2.168   6.030  0.0354 -0.2214 -0.5313
   66MOL    C5215782   6.968   2.078   6.074  0.1886  0.9697  0.6520
   66MOL    C5315783   6.742   2.075   5.959 -0.4503 -0.1486  0.2850
   66MOL    O5415784   6.670   2.117   5.867 -0.7356 -0.0889 -0.0301
   66MOL    O5515785   6.741   1.947   6.002 -0.0957 -0.1445 -0.1346
   66MOL    H5615786   6.852   2.227   6.254  0.1924  0.2014 -0.5151
   66MOL    H5715787   6.727   2.121   6.215 -1.5280  0.2746  0.9409
   66MOL    H5815788   7.057   2.137   6.097  1.9487 -0.3473 -2.4377
   66MOL    H5915789   6.995   2.006   5.997 -4.1544 -0.5320  0.3998
   66MOL    H6015790   6.948   2.025   6.167  0.2937  1.3231  0.8780
   66MOL    H6115791   6.677   1.891   5.959  0.2735  1.1027 -2.3894
   66MOL    C6215792   6.893   2.295   5.945 -0.0701 -1.1230 -0.2676
   66MOL    C6315793   6.988   2.304   5.818  0.3797 -0.0467 -0.7780
   66MOL    C6415794   7.128   2.246   5.843 -0.1474 -0.2013  0.2773
   66MOL    C6515795   6.919   2.219   5.710 -0.1092 -0.2153 -0.9561
   66MOL    O6615796   6.803   2.243   5.692 -0.4437  0.1953  0.2989
   66MOL    O6715797   6.996   2.130   5.641  0.3055  0.0281 -0.0502
   66MOL    H6815798   6.808   2.358   5.919  0.3933 -0.5932 -0.5181
   66MOL    H6915799   6.946   2.358   6.016 -0.2525  0.0852 -1.1877
   66MOL    H7015800   7.138   2.148   5.888  0.5932  0.0209  0.5948
   66MOL    H7115801   7.188   2.303   5.914  0.0399 -0.5601  0.4073
   66MOL    H7215802   7.185   2.246   5.750 -1.0203  0.9200 -0.2670
   66MOL    H7315803   6.942   2.100   5.570 -0.4233 -3.2697  1.7690
   66MOL    C7415804   7.015   2.452   5.775 -1.1446 -0.1845  0.1193
   66MOL    C7515805   6.913   2.555   5.710 -0.6797 -0.5756 -0.2324
   66MOL    C7615806   6.982   2.700   5.725  0.0328  0.1203  0.0006
   66MOL    C7715807   6.896   2.536   5.557 -0.7215  0.2903  0.6022
   66MOL    O7815808   6.793   2.480   5.517  0.0936  0.6021  0.1464
   66MOL    O7915809   7.006   2.570   5.478  0.3456  0.4247 -0.7946
   66MOL    H8015810   7.054   2.492   5.869 -0.6368  1.2772 -0.6968
   66MOL    H8115811   7.102   2.453   5.710 -0.4782 -1.8168  0.9632
   66MOL    H8215812   6.963   2.736   5.826 -1.5333  2.0396 -0.9485
   66MOL    H8315813   6.939   2.781   5.666  0.4929 -0.5526 -1.2772
   66MOL    H8415814   7.090   2.702   5.712  0.2605 -1.2459  1.5546
   66MOL    H8515815   6.979   2.558   5.388 -1.7023 -0.2838 -0.1347
   66MOL    C8615816   6.764   2.556   5.771 -0.2171 -0.0813  0.6829
   66MOL    C8715817   6.655   2.677   5.757  0.1192 -0.3031  0.1242
   66MOL    C8815818   6.716   2.810   5.822 -0.1445  0.1109  0.5477
   66MOL    C8915819   6.611   2.719   5.612 -0.7591 -0.0315  0.1638
   66MOL    O9015820   6.609   2.834   5.582 -0.8410 -0.1972 -0.6611
   66MOL    O9115821   6.551   2.619   5.543  0.0218  0.1983 -0.1536
   66MOL    H9215822   6.715   2.461   5.751 -0.7154 -0.2228  2.4538
   66MOL    H9315823   6.772   2.554   5.880 -3.4233  2.8559  1.0477
   66MOL    H9415824   6.787   2.874   5.768 -2.3315 -0.4973 -3.2633
   66MOL    H9515825   6.756   2.788   5.921 -0.1634 -1.4761  0.2127
   66MOL    H9615826   6.629   2.874   5.835  0.0352  0.5297 -0.2354
   66MOL    H9715827   6.500   2.647   5.469 -2.2063  0.8812  1.5803
   66MOL    C9815828   6.532   2.632   5.857  0.3691  0.4047 -0.1729
   66MOL    C9915829   6.379   2.660   5.828  0.2889 -0.3787 -0.2419
   66MOL   C10015830   6.355   2.806   5.786 -0.8537  0.1156  0.5181
   66MOL   C10115831   6.338   2.555   5.730 -0.0705 -0.2879 -0.6477
   66MOL   O10215832   6.293   2.585   5.623  0.6256 -0.6807 -0.0813
   66MOL   O10315833   6.365   2.431   5.780 -0.4156  0.8467 -0.0962
   66MOL   H10415834   6.547   2.529   5.887 -0.0379  0.0795 -1.0650
   66MOL   H10515835   6.559   2.684   5.949  2.0035  0.2648 -0.5554
   66MOL   H10615836   6.252   2.843   5.791 -0.4374  1.1840  1.4040
   66MOL   H10715837   6.373   2.830   5.681 -0.4457 -1.1954  0.2892
   66MOL   H10815838   6.408   2.878   5.848  1.9420 -1.6122  0.2040
   66MOL   H10915839   6.378   2.367   5.711  0.1327 -0.8278  1.5391
   66MOL   C11015840   6.292   2.644   5.966 -0.1428 -0.2034  0.0603
   66MOL   C11115841   6.136   2.621   5.981 -0.3242  0.5352  0.5211
   66MOL   C11215842   6.057   2.683   5.863 -0.1871 -0.3929 -0.0091
   66MOL   C11315843   6.094   2.470   6.004  0.6410 -0.6953 -0.2105
   66MOL   O11415844   6.174   2.383   6.023 -0.0352  0.0444  0.7910
   66MOL   O11515845   5.958   2.447   5.994  0.2484  0.6600  0.1507
   66MOL   H11615846   6.338   2.552   6.003 -1.5349 -0.8672  0.1494
   66MOL   H11715847   6.334   2.721   6.031 -0.5940  1.1498 -1.2209
   66MOL   H11815848   6.059   2.792   5.861  1.3404 -0.4126 -0.2029
   66MOL   H11915849   5.953   2.653   5.853 -0.4827  0.6611 -0.1914
   66MOL   H12015850   6.096   2.643   5.769  0.0009  0.6398 -0.3742
   66MOL   H12115851   5.941   2.357   6.018  3.0144 -0.0911 -0.5825
   66MOL   C12215852   6.073   2.694   6.108  0.3816 -1.0863 -0.8875
   66MOL   C12315853   6.096   2.651   6.259 -0.3605  0.4920  0.5062
   66MOL   C12415854   6.239   2.605   6.294 -0.3900 -0.1325  0.6106
   66MOL   C12515855   6.066   2.783   6.338 -0.1645 -0.3275  0.2963
   66MOL   O12615856   6.142   2.839   6.418 -0.2950 -0.7490 -0.1134
   66MOL   O12715857   5.944   2.841   6.310 -0.0486  0.1019 -0.2967
   66MOL   H12815858   6.093   2.799   6.087 -1.4234 -0.5967 -0.2192
   66MOL   H12915859   5.966   2.695   6.088 -0.5857 -1.4464  3.6026
   66MOL   H13015860   6.263   2.604   6.401 -0.6614 -1.5038  0.6665
   66MOL   H13115861   6.325   2.661   6.257 -0.2168  0.2188  1.5211
   66MOL   H13215862   6.242   2.504   6.252 -0.2933  0.1299 -0.0117
   66MOL   H13315863   5.929   2.923   6.354 -0.6938 -0.9142  1.4022
   66MOL   C13415864   5.995   2.527   6.293 -0.0056  0.0730 -0.1540
   66MOL   C13515865   5.940   2.501   6.436 -0.1865 -0.5362  0.0638
   66MOL   C13615866   6.064   2.501   6.541 -0.1502 -0.1360 -0.4718
   66MOL   C13715867   5.839   2.604   6.487 -0.5947 -0.3286 -0.3401
   66MOL   O13815868   5.821   2.632   6.606  0.4837 -0.4749  0.2454
   66MOL   O13915869   5.764   2.660   6.385 -0.6732 -0.1839 -0.5768
   66MOL   H14015870   5.903   2.542   6.238 -0.0744 -0.9123 -0.3284
   66MOL   H14115871   6.033   2.428   6.267 -1.6596 -0.7087  0.3552
   66MOL   H14215872   6.089   2.597   6.585  1.9196 -0.8512  0.0073
   66MOL   H14315873   6.148   2.460   6.486  0.2250 -1.7641  1.2422
   66MOL   H14415874   6.048   2.440   6.630  0.3238 -1.6006 -1.3644
   66MOL   H14515875   5.690   2.699   6.428  0.5870 -0.4919  1.9764
   66MOL   C14615876   5.874   2.357   6.456  0.4746  0.2358  0.1429
   66MOL   C14715877   5.769   2.279   6.357 -0.0074 -0.0496 -0.7228
   66MOL   C14815878   5.638   2.347   6.336  0.2965  0.1407  0.1588
   66MOL   C14915879   5.842   2.243   6.226  0.0365 -0.1494  0.3151
   66MOL   O15015880   5.797   2.258   6.109  0.0971  0.5618 -0.2566
   66MOL   O15115881   5.959   2.182   6.248  0.1202  0.2736 -0.1068
   66MOL   H15215882   5.962   2.296   6.469 -1.8428 -2.9644  1.3751
   66MOL   H15315883   5.839   2.355   6.559  0.9404  0.0235  0.2952
   66MOL   H15415884   5.567   2.284   6.281  1.0078 -1.7165  1.3424
   66MOL   H15515885   5.673   2.438   6.287  1.9589 -0.3248  0.4563
   66MOL   H15615886   5.580   2.376   6.424  1.1648  2.0552  0.1381
   66MOL   H15715887   6.004   2.150   6.171  2.6586  1.4171  0.8427
   66MOL   C15815888   5.748   2.142   6.438 -0.5587 -0.0648 -0.0925
   66MOL   C15915889   5.622   2.051   6.443 -0.3089 -0.1034  0.3204
   66MOL   C16015890   5.660   1.920   6.524 -0.3050 -0.0407 -0.4405
   66MOL   C16115891   5.511   2.126   6.515 -0.1261  0.2603 -0.2302
   66MOL   O16215892   5.416   2.183   6.466 -0.1295 -0.5918 -0.8038
   66MOL   O16315893   5.537   2.126   6.648  0.0912  0.4292  0.5678
   66MOL   H16415894   5.830   2.076   6.410  0.0929 -0.0666  1.7619
   66MOL   H16515895   5.772   2.159   6.543 -3.3600 -0.4684  0.6441
   66MOL   H16615896   5.740   1.868   6.470  1.4273  1.8493  0.2268
   66MOL   H16715897   5.567   1.865   6.536 -0.0594 -0.5847 -1.0123
   66MOL   H16815898   5.686   1.941   6.628 -2.0799 -0.3856  0.0816
   66MOL   H16915899   5.487   2.195   6.688 -0.7909  1.3308 -1.9597
   66MOL   C17015900   5.582   1.996   6.299 -0.0829  0.2256  0.3325
   66MOL   C17115901   5.475   1.868   6.270  0.4524 -0.4236  0.0793
   66MOL   C17215902   5.531   1.735   6.327  0.5529  0.0982  0.6551
   66MOL   C17315903   5.336   1.893   6.338 -0.3467  0.2258 -0.1945
   66MOL   O17415904   5.295   1.842   6.440 -0.3180  0.1369  0.0801
   66MOL   O17515905   5.278   2.005   6.285 -0.2893 -0.2224  0.3459
   66MOL   H17615906   5.549   2.083   6.242  0.0672  0.4187  0.5423
   66MOL   H17715907   5.680   1.965   6.262 -1.8351 -2.5687 -2.1661
   66MOL   H17815908   5.640   1.722   6.324  0.6181  0.7443 -0.1991
   66MOL   H17915909   5.481   1.654   6.274 -1.5854  0.9767  1.3103
   66MOL   H18015910   5.492   1.704   6.423 -1.5479  1.2162  0.1897
   66MOL   H18115911   5.212   2.044   6.341  0.8472  0.6173  1.1099
   66MOL   C18215912   5.456   1.856   6.112  0.1802  0.0445 -0.1432
   66MOL   C18315913   5.562   1.841   6.006  0.4702 -0.0844 -0.3619
   66MOL   C18415914   5.617   1.990   5.976  0.0945 -1.1706  0.5460
   66MOL   C18515915   5.681   1.754   6.052  0.2121  0.1933 -1.1433
   66MOL   O18615916   5.784   1.798   6.109 -0.1458  0.1536  0.0722
   66MOL   O18715917   5.658   1.622   6.042  0.1082  0.2097 -0.8013
   66MOL   H18815918   5.402   1.762   6.109  3.0985 -1.7181  0.2974
   66MOL   H18915919   5.376   1.923   6.081 -0.1338 -0.3838 -0.2533
   66MOL   H19015920   5.533   2.058   5.991 -1.4027 -2.6273 -1.0275
   66MOL   H19115921   5.650   2.005   5.874  0.6890 -0.3760  0.8545
   66MOL   H19215922   5.686   2.036   6.047  0.0690 -1.0099  0.4654
   66MOL   H19315923   5.742   1.588   6.071 -0.3875 -0.9746 -0.7357
   66MOL   C19415924   5.488   1.767   5.886 -0.2492 -0.4450  0.1847
   66MOL   C19515925   5.526   1.769   5.735 -0.7444  0.0458 -0.0951
   66MOL   C19615926   5.682   1.737   5.724  0.0195 -0.5568  0.4822
   66MOL   C19715927   5.462   1.647   5.659  0.0345 -0.6707  0.1244
   66MOL   O19815928   5.369   1.582   5.697  0.2248  0.1612 -0.0997
   66MOL   O19915929   5.526   1.613   5.543 -0.1518 -0.2450  0.1305
   66MOL   H20015930   5.474   1.666   5.923  0.0067 -0.8340 -0.7545
   66MOL   H20115931   5.385   1.801   5.896  0.3215  2.2014 -2.0970
   66MOL   H20215932   5.726   1.740   5.625  0.2086  0.4313  0.5916
   66MOL   H20315933   5.710   1.637   5.756  0.7289 -0.1185  1.2626
   66MOL   H20415934   5.734   1.804   5.793  1.0677 -0.0338 -0.8116
   66MOL   H20515935   5.474   1.543   5.507 -0.5219  1.0071 -1.8324
   66MOL   C20615936   5.506   1.903   5.655 -0.2652 -0.1783  0.0311
   66MOL   C20715937   5.365   1.981   5.653  0.1983 -0.3784 -0.0782
   66MOL   C20815938   5.359   2.084   5.534  0.0604  0.3081  0.0926
   66MOL   C20915939   5.253   1.884   5.631  0.2619 -0.1568 -0.1850
   66MOL   O21015940   5.181   1.854   5.721  0.3385  0.5138 -0.1887
   66MOL   O21115941   5.250   1.834   5.508 -0.4372  0.4744  0.3712
   66MOL   H21215942   5.590   1.961   5.693  1.6126 -1.8368 -1.4950
   66MOL   H21315943   5.539   1.885   5.553  1.9460 -0.0099  0.6767
   66MOL   H21415944   5.371   2.031   5.439 -1.0041  0.2203 -0.0049
   66MOL   H21515945   5.435   2.161   5.545  0.9342 -0.0943 -2.6064
   66MOL   H21615946   5.257   2.122   5.523 -0.5998 -1.0087  1.5243
   66MOL   H21715947   5.191   1.760   5.512 -0.8406  0.7212 -0.6976
   66MOL   C21815948   5.350   2.064   5.787 -0.9191  0.9104 -0.9801
   66MOL   C21915949   5.233   2.167   5.821 -0.1272  0.5112  0.1701
   66MOL   C22015950   5.275   2.298   5.749  0.0326 -0.3458 -0.3296
   66MOL   C22115951   5.091   2.128   5.781 -0.1928 -0.0912  0.3141
   66MOL   O22215952   5.029   2.043   5.841  0.1297  0.2669  0.3469
   66MOL   O22315953   5.052   2.181   5.661 -0.1436  0.1336 -0.0064
   66MOL   H22415954   5.342   2.000   5.874 -0.2592 -1.8441 -2.8806
   66MOL   H22515955   5.444   2.118   5.802 -1.2038  0.8470  1.1514
   66MOL   H22615956   5.288   2.290   5.641  0.3373 -2.4926 -0.1688
   66MOL   H22715957   5.366   2.338   5.793 -0.2790  0.2444 -0.2239
   66MOL   H22815958   5.200   2.373   5.772 -0.1060 -0.1669 -1.3420
   66MOL   H22915959   4.985   2.129   5.619  0.1975 -0.3543  0.0550
   66MOL   C23015960   5.231   2.195   5.972 -0.2472  0.4897 -0.2561
   66MOL   C23115961   5.140   2.306   6.046 -0.1258 -0.4251 -0.0005
   66MOL   C23215962   5.146   2.278   6.194  0.3432 -0.2829  0.4520
   66MOL   C23315963   5.186   2.449   6.025  0.0974 -0.2594 -0.3407
   66MOL   O23415964   5.293   2.498   6.058 -0.2149 -0.0939  0.1443
   66MOL   O23515965   5.101   2.529   5.959  0.6526  0.2213 -0.2266
   66MOL   H23615966   5.210   2.102   6.025  1.5469  1.1565  1.6988
   66MOL   H23715967   5.337   2.200   5.997 -0.1259 -1.3512 -0.2771
   66MOL   H23815968   5.107   2.360   6.254 -0.1747  0.2306 -0.5831
   66MOL   H23915969   5.250   2.259   6.219  0.3609  0.9451  1.3331
   66MOL   H24015970   5.085   2.191   6.215 -0.0475 -0.0853  0.1424
   66MOL   H24115971   5.130   2.619   5.957  0.6443  0.2640  1.0312
   66MOL   H24215972   5.037   2.297   6.011  0.0585  0.1929 -0.6908
   67MOL     C115973   6.404   4.489   7.285  0.8358  0.3279 -0.2578
   67MOL     C215974   6.395   4.362   7.190 -0.2366 -0.7123 -0.0701
   67MOL     C315975   6.305   4.398   7.068 -0.2489 -0.5548 -0.3730
   67MOL     C415976   6.539   4.334   7.123  0.2349 -0.1439  0.1600
   67MOL     O515977   6.642   4.389   7.154 -0.0562  0.2801 -0.0128
   67MOL     O615978   6.537   4.247   7.018  0.5100 -0.0864 -0.1259
   67MOL     H715979   6.461   4.560   7.226  1.9326 -1.1784 -1.0590
   67MOL     H815980   6.438   4.487   7.389  2.3662  1.8912 -0.7036
   67MOL     H915981   6.211   4.436   7.108 -0.0527 -0.0832 -0.3626
   67MOL    H1015982   6.267   4.307   7.021 -1.6097 -0.1486 -0.1051
   67MOL    H1115983   6.338   4.470   6.993 -0.6373 -0.1967 -0.2036
   67MOL    H1215984   6.625   4.238   6.986  0.5095 -2.3125  0.4171
   67MOL    H1315985   6.305   4.530   7.306  1.6471  1.2550  1.8629
   67MOL    C1415986   6.330   4.235   7.247  0.1481  0.9227  0.5222
   67MOL    C1515987   6.368   4.178   7.390 -0.0852  0.2458 -0.4093
   67MOL    C1615988   6.522   4.172   7.400  0.3332 -0.2464  0.2333
   67MOL    C1715989   6.315   4.270   7.501  0.3403 -0.1883  0.0369
   67MOL    O1815990   6.232   4.355   7.481  0.7837  0.8432  0.2955
   67MOL    O1915991   6.372   4.250   7.622  0.8444  0.4043 -0.0355
   67MOL    H2015992   6.224   4.262   7.243  0.3442  1.5854 -0.5431
   67MOL    H2115993   6.356   4.159   7.174  1.6766  2.9779 -1.1545
   67MOL    H2215994   6.566   4.138   7.306  0.7007  0.7125  0.0596
   67MOL    H2315995   6.551   4.094   7.470  0.5272  0.1882  0.6343
   67MOL    H2415996   6.580   4.258   7.434 -0.4050  0.8166 -1.1250
   67MOL    H2515997   6.328   4.294   7.694  1.8112  1.7968 -0.2733
   67MOL    C2615998   6.315   4.031   7.403 -0.2799  0.2833  0.7369
   67MOL    C2715999   6.169   3.979   7.362  0.0478  0.8222  0.0527
   67MOL    C2816000   6.053   4.039   7.452 -0.1757  0.1344 -0.0395
   67MOL    C2916001   6.139   3.994   7.208 -0.8077  0.0846 -0.4173
   67MOL    O3016002   6.049   4.065   7.158 -0.2320  0.1804  0.1832
   67MOL    O3116003   6.242   3.940   7.135 -0.4880  0.0532  0.5014
   67MOL    H3216004   6.378   3.973   7.334 -1.3151  1.1882 -0.9889
   67MOL    H3316005   6.335   4.002   7.506  0.4498 -0.4361  0.4055
   67MOL    H3416006   5.952   4.009   7.422 -0.6946  0.7022  1.1090
   67MOL    H3516007   6.053   4.147   7.443 -2.6579  0.0664 -1.4149
   67MOL    H3616008   6.072   4.028   7.559 -2.2760 -1.2200  0.2374
   67MOL    H3716009   6.230   3.959   7.044  1.1947  0.5991  0.3870
   67MOL    C3816010   6.175   3.818   7.399 -0.2400 -0.7621  0.4432
   67MOL    C3916011   6.061   3.712   7.343 -0.3690 -0.3260  0.1402
   67MOL    C4016012   6.060   3.608   7.457  0.2020 -0.2169  0.2020
   67MOL    C4116013   5.915   3.769   7.323 -0.3942  0.7187 -1.1365
   67MOL    O4216014   5.869   3.800   7.216 -0.1570 -0.2945 -0.5207
   67MOL    O4316015   5.851   3.784   7.438  0.9859  0.2231  0.2694
   67MOL    H4416016   6.273   3.788   7.363 -0.5293 -1.0941 -0.0853
   67MOL    H4516017   6.175   3.819   7.508  0.1790 -2.1881  0.4613
   67MOL    H4616018   5.972   3.545   7.448 -0.0482  0.1183  0.3278
   67MOL    H4716019   6.054   3.655   7.556  1.4094  0.5834 -0.0958
   67MOL    H4816020   6.147   3.542   7.463 -0.1605 -0.9973 -2.4649
   67MOL    H4916021   5.763   3.818   7.435  0.5077 -0.6174  3.3687
   67MOL    C5016022   6.118   3.648   7.209 -0.4195  0.1408 -0.0819
   67MOL    C5116023   6.045   3.538   7.123  0.0534 -0.4610  0.9466
   67MOL    C5216024   5.960   3.449   7.203 -0.0988 -0.1623  0.7817
   67MOL    C5316025   5.961   3.604   7.006 -0.4743  0.4522  0.7805
   67MOL    O5416026   5.860   3.544   6.957  0.2697 -0.2419 -0.3620
   67MOL    O5516027   6.004   3.727   6.958  0.1798  0.4751  0.1479
   67MOL    H5616028   6.145   3.732   7.144  0.9356 -1.0061 -1.0292
   67MOL    H5716029   6.215   3.608   7.237  0.0040  1.0006 -0.2877
   67MOL    H5816030   6.019   3.401   7.281  3.1969 -1.5762 -2.4381
   67MOL    H5916031   5.913   3.370   7.144 -2.2033  1.8792 -0.3753
   67MOL    H6016032   5.877   3.497   7.254  0.1812  0.9775  0.1828
   67MOL    H6116033   5.947   3.757   6.889 -0.2138 -2.0146 -0.6675
   67MOL    C6216034   6.151   3.440   7.053 -0.4117 -1.0570  0.5148
   67MOL    C6316035   6.264   3.482   6.949  0.0262  0.3280 -0.4744
   67MOL    C6416036   6.317   3.631   6.971 -0.0449  0.7343  0.3316
   67MOL    C6516037   6.384   3.374   6.967  0.2750 -0.0328 -0.4732
   67MOL    O6616038   6.363   3.254   6.966  0.0849  0.3906 -0.0472
   67MOL    O6716039   6.505   3.424   6.985 -0.6094  0.1559  0.1441
   67MOL    H6816040   6.206   3.414   7.144 -1.4969  0.1027  1.5146
   67MOL    H6916041   6.105   3.347   7.020  0.1704 -0.8051 -1.0835
   67MOL    H7016042   6.399   3.638   6.899  1.5927 -1.1462  1.9437
   67MOL    H7116043   6.366   3.644   7.068  0.5721 -0.1353  0.1499
   67MOL    H7216044   6.235   3.698   6.947 -1.2883 -1.6689 -2.3998
   67MOL    H7316045   6.582   3.369   6.980 -0.6042  0.0785  0.9269
   67MOL    C7416046   6.192   3.466   6.815  1.0376  0.6018  0.1808
   67MOL    C7516047   6.241   3.513   6.672  0.2463 -0.4929  0.0018
   67MOL    C7616048   6.384   3.458   6.661 -0.3470  0.0869  0.3367
   67MOL    C7716049   6.148   3.439   6.568  0.0983  0.6420 -0.4958
   67MOL    O7816050   6.180   3.335   6.506 -0.2965  0.5159 -0.0712
   67MOL    O7916051   6.019   3.487   6.571  0.1635  0.1345  0.0489
   67MOL    H8016052   6.162   3.361   6.809  1.9590  0.4026 -1.4432
   67MOL    H8116053   6.102   3.527   6.824  1.3743  0.8675  1.9357
   67MOL    H8216054   6.417   3.467   6.558  0.8582  2.5129  0.9036
   67MOL    H8316055   6.392   3.351   6.683  2.2909  0.3474  0.7999
   67MOL    H8416056   6.448   3.516   6.728  1.9502  1.2086 -2.7254
   67MOL    H8516057   5.965   3.439   6.511  0.9479  1.0305 -1.4235
   67MOL    C8616058   6.252   3.667   6.641  0.7674  0.2955  1.0174
   67MOL    C8716059   6.341   3.750   6.545  0.0197  0.8920  0.1771
   67MOL    C8816060   6.487   3.748   6.600  0.4897 -0.3810  0.1511
   67MOL    C8916061   6.340   3.693   6.406  0.3563  0.1524 -0.7885
   67MOL    O9016062   6.431   3.699   6.326 -0.1350  0.7446  0.4740
   67MOL    O9116063   6.216   3.656   6.369  0.0700 -0.2233  0.4896
   67MOL    H9216064   6.152   3.695   6.609  1.0956 -0.3389 -0.6127
   67MOL    H9316065   6.266   3.710   6.740  1.0814  0.0285  1.0870
   67MOL    H9416066   6.558   3.819   6.557  3.1380 -3.4194 -0.6970
   67MOL    H9516067   6.533   3.654   6.570  1.7779  0.0047  0.8708
   67MOL    H9616068   6.481   3.761   6.708 -3.2498  0.7869 -0.1254
   67MOL    H9716069   6.229   3.618   6.283 -0.1971  0.7381  0.0092
   67MOL    C9816070   6.297   3.898   6.524 -0.9247  0.4450  1.2824
   67MOL    C9916071   6.243   3.990   6.634  0.0782  0.0595 -0.6890
   67MOL   C10016072   6.094   3.950   6.663 -0.2430 -0.3056  0.9267
   67MOL   C10116073   6.312   3.996   6.768  0.1206  0.2157  0.1200
   67MOL   O10216074   6.257   3.967   6.878  0.5566 -0.7194 -0.2803
   67MOL   O10316075   6.450   4.013   6.753  0.4360  0.6351  0.0843
   67MOL   H10416076   6.391   3.939   6.486 -0.5551 -0.3541  1.3421
   67MOL   H10516077   6.229   3.906   6.439 -0.1450  2.9514  0.8306
   67MOL   H10616078   6.088   3.850   6.706 -1.1242 -1.3782 -1.5898
   67MOL   H10716079   6.040   3.929   6.570 -0.3428 -1.1700  1.1732
   67MOL   H10816080   6.033   4.016   6.725  1.4210  0.5004  1.7216
   67MOL   H10916081   6.488   3.996   6.838 -0.4796  0.3228  0.4308
   67MOL   C11016082   6.241   4.134   6.568  0.0460 -0.3356 -0.6716
   67MOL   C11116083   6.228   4.274   6.643 -0.2635  0.2066  0.6251
   67MOL   C11216084   6.126   4.265   6.771  0.1235 -0.5405 -0.4190
   67MOL   C11316085   6.364   4.338   6.698  0.3504 -0.5538  0.4863
   67MOL   O11416086   6.476   4.285   6.698 -0.4666  0.2948  0.4404
   67MOL   O11516087   6.335   4.462   6.742 -0.8876 -0.3114 -0.0966
   67MOL   H11616088   6.326   4.135   6.500  1.0068 -1.3052  0.5041
   67MOL   H11716089   6.150   4.130   6.508 -0.5532  0.9188  0.1246
   67MOL   H11816090   6.029   4.222   6.746  1.3217 -2.0080 -2.7646
   67MOL   H11916091   6.103   4.368   6.798  0.7955 -0.1633 -1.2267
   67MOL   H12016092   6.172   4.223   6.860  2.4714  1.0684 -0.8154
   67MOL   H12116093   6.415   4.504   6.771  0.2740 -4.6190  3.4893
   67MOL   C12216094   6.160   4.379   6.544 -0.2901 -0.3113  0.5809
   67MOL   C12316095   6.219   4.410   6.396 -0.8792 -0.9223 -0.7546
   67MOL   C12416096   6.369   4.447   6.404 -0.4556 -0.4458 -0.0301
   67MOL   C12516097   6.198   4.294   6.295  0.2160 -0.4983 -0.6329
   67MOL   O12616098   6.287   4.247   6.220 -0.9178  0.1769  0.2987
   67MOL   O12716099   6.070   4.255   6.288  0.0118 -0.1482 -0.2523
   67MOL   H12816100   6.055   4.350   6.531  0.4266 -2.3604 -0.9054
   67MOL   H12916101   6.140   4.470   6.600 -0.1301  0.8686 -1.2273
   67MOL   H13016102   6.404   4.477   6.305 -2.1792  2.3636  0.1499
   67MOL   H13116103   6.429   4.361   6.435  0.0058  0.3592  1.3755
   67MOL   H13216104   6.383   4.535   6.466 -0.8409 -0.7798  0.5349
   67MOL   H13316105   6.008   4.295   6.348  0.3720  1.7038 -1.0954
   67MOL   C13416106   6.121   4.532   6.361  0.6324  0.7280 -0.3509
   67MOL   C13516107   6.124   4.626   6.228  0.0021 -0.4186  0.2773
   67MOL   C13616108   6.258   4.719   6.229 -0.2232 -0.3225  0.4899
   67MOL   C13716109   6.130   4.553   6.096 -0.1459 -0.1137 -0.5710
   67MOL   O13816110   6.229   4.541   6.029  0.3561  0.0053 -0.0360
   67MOL   O13916111   6.014   4.483   6.069 -0.4070 -0.4059 -0.3309
   67MOL   H14016112   6.015   4.521   6.379  0.7473 -0.4517 -0.3622
   67MOL   H14116113   6.145   4.612   6.432  2.1118  0.5063 -0.5727
   67MOL   H14216114   6.261   4.779   6.139 -1.7857 -0.4113  0.3579
   67MOL   H14316115   6.350   4.661   6.226  1.5507  2.2542  2.2676
   67MOL   H14416116   6.253   4.779   6.321  1.4689  1.3054 -0.4566
   67MOL   H14516117   6.014   4.441   5.984  2.9753 -0.0413 -0.5435
   67MOL   C14616118   5.988   4.720   6.223 -0.0883  0.4041  0.2599
   67MOL   C14716119   5.948   4.846   6.302 -0.1429 -0.6938 -0.3739
   67MOL   C14816120   6.041   4.969   6.259  1.0375  0.5634 -0.0384
   67MOL   C14916121   5.802   4.874   6.257 -0.0113 -0.2143 -0.0686
   67MOL   O15016122   5.766   4.984   6.207 -0.6744 -0.0165 -0.2656
   67MOL   O15116123   5.718   4.772   6.288  0.3281 -0.4947  0.5862
   67MOL   H15216124   5.980   4.747   6.118 -0.6742 -0.9684 -0.0631
   67MOL   H15316125   5.906   4.648   6.229  1.1203 -1.0143  0.2185
   67MOL   H15416126   6.000   5.061   6.299  2.9033  1.9571 -1.2679
   67MOL   H15516127   6.064   4.979   6.153  0.9235 -1.0440 -0.2243
   67MOL   H15616128   6.138   4.963   6.309  0.2366 -0.5022  1.4477
   67MOL   H15716129   5.630   4.806   6.286  1.0454  1.3585 -1.1653
   67MOL   C15816130   5.961   4.806   6.451  0.0726 -0.7480 -0.1085
   67MOL   C15916131   5.897   4.875   6.573 -0.3606  0.2572 -0.3589
   67MOL   C16016132   5.880   5.025   6.537 -0.1299  0.1686  0.3315
   67MOL   C16116133   5.754   4.818   6.598 -0.7309  0.1730  0.8524
   67MOL   O16216134   5.649   4.889   6.596  0.1922 -0.7167  0.2391
   67MOL   O16316135   5.749   4.687   6.623  0.1706 -0.3498 -0.1533
   67MOL   H16416136   5.953   4.699   6.471  1.7079 -0.6699  1.0429
   67MOL   H16516137   6.069   4.811   6.462 -0.0573  0.7616  0.5274
   67MOL   H16616138   5.969   5.082   6.511  0.7398 -0.9497  0.7841
   67MOL   H16716139   5.833   5.075   6.621  0.1345 -0.2734  0.7455
   67MOL   H16816140   5.803   5.038   6.461 -1.6123 -1.6509  1.4699
   67MOL   H16916141   5.670   4.660   6.666  1.4680 -1.5184  1.5462
   67MOL   C17016142   5.980   4.848   6.708 -0.0384 -0.1329 -0.6181
   67MOL   C17116143   6.113   4.925   6.754  0.6454 -0.1865  0.2854
   67MOL   C17216144   6.203   4.940   6.637 -0.6537 -0.0554 -0.5858
   67MOL   C17316145   6.065   5.064   6.800 -0.3074  0.4528  0.1024
   67MOL   O17416146   6.117   5.166   6.751 -0.3353  0.5303 -0.3758
   67MOL   O17516147   5.975   5.060   6.905 -0.5452  0.4971  0.2132
   67MOL   H17616148   5.914   4.841   6.795  1.2537 -0.7853  0.3278
   67MOL   H17716149   6.001   4.742   6.696  3.2061  0.5610 -1.6460
   67MOL   H17816150   6.147   4.987   6.555 -0.1633  0.2658 -0.7416
   67MOL   H17916151   6.226   4.837   6.611  3.5905  1.0545 -1.6262
   67MOL   H18016152   6.294   4.997   6.658 -0.7358 -0.2406  0.2824
   67MOL   H18116153   5.967   5.144   6.946  1.6859  0.6575  0.3877
   67MOL   C18216154   6.185   4.843   6.872 -0.1766  0.1181 -0.8200
   67MOL   C18316155   6.328   4.887   6.920 -0.3235 -0.0878 -0.1222
   67MOL   C18416156   6.356   5.039   6.942 -0.0777  0.0106  0.1440
   67MOL   C18516157   6.345   4.827   7.059 -0.6448  0.3537 -0.5097
   67MOL   O18616158   6.300   4.716   7.085 -0.3608 -0.3021 -0.1022
   67MOL   O18716159   6.412   4.903   7.149  0.0615  0.2303  0.8332
   67MOL   H18816160   6.121   4.851   6.960  0.1039  3.0148 -0.8256
   67MOL   H18916161   6.169   4.737   6.856  0.2830 -0.1921  0.7013
   67MOL   H19016162   6.350   5.088   6.845 -1.5780  0.4805  0.4697
   67MOL   H19116163   6.447   5.073   6.993 -0.3326  2.9788 -1.2578
   67MOL   H19216164   6.268   5.081   6.991 -0.1915 -1.7494  1.4680
   67MOL   H19316165   6.436   4.860   7.230 -0.6900 -0.0567  0.9093
   67MOL   C19416166   6.441   4.828   6.828 -0.0374 -0.0546  0.0564
   67MOL   C19516167   6.586   4.801   6.871 -0.6396 -0.4143 -0.6333
   67MOL   C19616168   6.648   4.927   6.936 -0.3852  0.0647  0.2699
   67MOL   C19716169   6.590   4.673   6.962 -0.4719 -0.2865 -0.6999
   67MOL   O19816170   6.630   4.676   7.076 -0.1084 -0.3015 -0.2412
   67MOL   O19916171   6.565   4.559   6.896  0.3490 -0.0522 -0.4548
   67MOL   H20016172   6.400   4.733   6.792  0.8453 -1.1736  1.9761
   67MOL   H20116173   6.445   4.896   6.743 -3.0539 -0.2185 -0.2784
   67MOL   H20216174   6.757   4.918   6.944 -0.3394  1.3413  1.2209
   67MOL   H20316175   6.621   4.943   7.040  0.6084  2.0068  0.2504
   67MOL   H20416176   6.608   5.014   6.883 -2.5593 -1.6737 -1.0350
   67MOL   H20516177   6.579   4.485   6.952  0.5244  2.9527  3.6755
   67MOL   C20616178   6.687   4.770   6.748  0.2459  0.1050  0.3364
   67MOL   C20716179   6.668   4.814   6.597 -0.0194  0.2654  0.1061
   67MOL   C20816180   6.555   4.719   6.539 -0.0099  0.5448 -0.4851
   67MOL   C20916181   6.635   4.958   6.581  0.3731 -0.7992  0.1188
   67MOL   O21016182   6.541   5.001   6.512  0.4779  0.3156  0.5514
   67MOL   O21116183   6.717   5.042   6.643 -0.4995 -0.5172  0.7577
   67MOL   H21216184   6.787   4.791   6.785 -0.1943  1.0174  1.0396
   67MOL   H21316185   6.686   4.661   6.742 -0.6083  0.1263  0.0550
   67MOL   H21416186   6.465   4.751   6.590  0.1092  2.3331 -1.3497
   67MOL   H21516187   6.567   4.612   6.551  0.2659  0.6540  0.2260
   67MOL   H21616188   6.538   4.753   6.436 -0.7282 -0.5911 -0.7436
   67MOL   H21716189   6.690   5.132   6.628  1.7353  0.3162  1.4559
   67MOL   C21816190   6.809   4.771   6.532  0.1062 -0.2321 -0.6734
   67MOL   C21916191   6.835   4.763   6.374 -0.4926  0.4013 -0.4712
   67MOL   C22016192   6.766   4.631   6.303  0.2701  0.4863 -0.0029
   67MOL   C22116193   6.776   4.888   6.304  0.1568 -0.1822  0.4741
   67MOL   O22216194   6.685   4.870   6.226  0.2228 -0.6034  0.2355
   67MOL   O22316195   6.835   5.005   6.346  0.0214  0.1265 -0.5028
   67MOL   H22416196   6.872   4.851   6.570 -2.3197  1.8617 -0.9232
   67MOL   H22516197   6.856   4.680   6.570 -0.9095 -0.7526 -0.6249
   67MOL   H22616198   6.796   4.539   6.352  0.9224  0.6038 -0.1787
   67MOL   H22716199   6.786   4.622   6.196 -0.0661 -0.0883 -0.0176
   67MOL   H22816200   6.657   4.638   6.308  0.4383  1.7384  3.1942
   67MOL   H22916201   6.796   5.082   6.308  0.3919  0.9400  0.7525
   67MOL   C23016202   6.992   4.764   6.363 -0.5882 -0.7166 -0.1608
   67MOL   C23116203   7.057   4.710   6.231 -0.4705  0.2081 -0.0040
   67MOL   C23216204   7.032   4.785   6.102 -0.2640 -0.1068  0.4220
   67MOL   C23316205   7.212   4.681   6.247  0.1352  0.7253  0.6470
   67MOL   O23416206   7.305   4.733   6.180  0.2132  0.4830 -0.3878
   67MOL   O23516207   7.236   4.585   6.344  0.0382 -0.3302 -0.1318
   67MOL   H23616208   7.036   4.861   6.386  0.8020 -1.7462  1.7191
   67MOL   H23716209   7.033   4.699   6.441  2.5989  0.9310 -0.3696
   67MOL   H23816210   6.924   4.799   6.091 -0.0374  0.9074 -0.6430
   67MOL   H23916211   7.066   4.724   6.019  0.7053 -1.4418  1.7730
   67MOL   H24016212   7.073   4.886   6.098  1.8394 -0.9326  0.4051
   67MOL   H24116213   7.327   4.567   6.364  0.2973 -1.3766 -2.0491
   67MOL   H24216214   7.013   4.612   6.213 -1.4711  0.7762 -0.7221
   68MOL     C116215   4.106   6.431   3.861  0.4727  0.5450  0.0911
   68MOL     C216216   4.198   6.525   3.778  0.1748  0.5850  0.2126
   68MOL     C316217   4.220   6.648   3.862 -0.2873 -0.1412  0.0062
   68MOL     C416218   4.342   6.464   3.772  0.0512  0.2724  0.1744
   68MOL     O516219   4.437   6.501   3.700  1.1094  0.2587 -0.0020
   68MOL     O616220   4.351   6.352   3.847 -0.1647  0.5947 -0.4208
   68MOL     H716221   4.092   6.332   3.817 -1.8247  1.4659 -1.3761
   68MOL     H816222   4.005   6.474   3.865  0.1697  0.0095 -1.3511
   68MOL     H916223   4.263   6.721   3.794 -1.0398  0.1822 -0.1273
   68MOL    H1016224   4.287   6.638   3.947 -0.8085 -3.0656  0.1200
   68MOL    H1116225   4.122   6.684   3.894 -0.6898 -0.2249 -1.0853
   68MOL    H1216226   4.437   6.319   3.826  1.4199  4.8477 -1.0904
   68MOL    H1316227   4.149   6.419   3.960 -0.5435 -1.5368  0.2992
   68MOL    C1416228   4.147   6.574   3.638 -0.4988 -0.3975  0.3403
   68MOL    C1516229   4.082   6.467   3.532 -0.9620 -0.3169 -0.4020
   68MOL    C1616230   4.163   6.333   3.521  0.1603 -0.2302 -0.0768
   68MOL    C1716231   3.936   6.435   3.581  0.1840  0.4757  0.2626
   68MOL    O1816232   3.868   6.495   3.667 -0.6121  0.1403  0.6207
   68MOL    O1916233   3.885   6.338   3.500 -0.1144 -0.4490 -0.1825
   68MOL    H2016234   4.069   6.650   3.644  0.4657  0.7240 -0.9064
   68MOL    H2116235   4.234   6.624   3.594 -0.1789 -2.2135 -1.1310
   68MOL    H2216236   4.154   6.257   3.599 -2.5084 -0.0103 -0.0925
   68MOL    H2316237   4.266   6.345   3.488  0.2874 -1.0519  0.0081
   68MOL    H2416238   4.130   6.274   3.436 -1.5951  0.7175 -0.0921
   68MOL    H2516239   3.792   6.327   3.517 -0.0602 -1.4360 -0.4730
   68MOL    C2616240   4.077   6.535   3.383  0.4349  0.4005 -0.0666
   68MOL    C2716241   4.015   6.670   3.332  0.1281  0.6128  0.1678
   68MOL    C2816242   3.880   6.684   3.412  0.5166 -0.5431 -0.9335
   68MOL    C2916243   4.092   6.796   3.368  0.2690 -0.4385  0.0028
   68MOL    O3016244   4.047   6.898   3.426  0.3605 -0.5055 -0.7180
   68MOL    O3116245   4.227   6.777   3.352 -0.0861  0.4253  0.7302
   68MOL    H3216246   4.182   6.529   3.352  0.5080 -1.7726  0.5036
   68MOL    H3316247   4.033   6.460   3.318 -2.1220  0.2130  1.8214
   68MOL    H3416248   3.895   6.693   3.520  0.0692 -1.3009 -0.8099
   68MOL    H3516249   3.813   6.599   3.402 -0.0350 -0.3889  1.3119
   68MOL    H3616250   3.814   6.765   3.382 -0.4513  0.0162  2.5024
   68MOL    H3716251   4.241   6.706   3.291 -1.1278  1.9421 -1.3563
   68MOL    C3816252   3.985   6.654   3.177  0.0113 -0.3349 -0.6015
   68MOL    C3916253   3.947   6.766   3.073  0.2121  0.2381  0.5863
   68MOL    C4016254   3.839   6.859   3.125 -0.3368 -0.2263 -0.3956
   68MOL    C4116255   4.069   6.850   3.039  0.2316 -0.6666 -0.0297
   68MOL    O4216256   4.074   6.973   3.033 -0.2474 -0.8628 -0.1067
   68MOL    O4316257   4.175   6.772   3.012 -0.3117 -0.4544  0.2636
   68MOL    H4416258   4.077   6.605   3.144  0.1454  0.7974 -1.9540
   68MOL    H4516259   3.907   6.577   3.177  0.9172 -1.2711 -0.3336
   68MOL    H4616260   3.751   6.805   3.158  1.1445 -2.3062  0.2636
   68MOL    H4716261   3.816   6.933   3.048 -0.1210 -0.6480 -0.8723
   68MOL    H4816262   3.867   6.924   3.208  0.9108  0.7319 -1.5261
   68MOL    H4916263   4.231   6.844   2.987  1.5036 -1.8891  0.1024
   68MOL    C5016264   3.919   6.686   2.936 -0.8773 -0.9179  0.2410
   68MOL    C5116265   3.809   6.721   2.836 -0.0965 -0.0297 -0.8684
   68MOL    C5216266   3.795   6.604   2.728 -0.0959  0.3190 -0.4885
   68MOL    C5316267   3.671   6.725   2.906  0.3770  0.2429  0.1610
   68MOL    O5416268   3.611   6.828   2.936  0.1193 -0.8886  0.0615
   68MOL    O5516269   3.620   6.601   2.937 -0.2249  0.8983  0.0531
   68MOL    H5616270   4.013   6.665   2.886 -0.9492 -0.2606 -0.1878
   68MOL    H5716271   3.881   6.588   2.965  1.3323 -2.3115 -1.3893
   68MOL    H5816272   3.705   6.617   2.669  0.5238 -0.1406 -1.5625
   68MOL    H5916273   3.787   6.502   2.768 -2.2648 -0.5798 -3.0834
   68MOL    H6016274   3.886   6.599   2.668  0.0148  1.5405 -0.4332
   68MOL    H6116275   3.543   6.618   2.990  0.6149  2.4999  0.7756
   68MOL    C6216276   3.844   6.861   2.758  0.0050  0.5183 -0.4965
   68MOL    C6316277   3.935   6.883   2.625 -0.2026  0.1815 -0.0564
   68MOL    C6416278   4.073   6.816   2.650  0.6815 -0.2589  0.1960
   68MOL    C6516279   3.884   6.821   2.495  0.5727  0.3922  0.0067
   68MOL    O6616280   3.951   6.772   2.406 -0.3261  0.1698  0.3029
   68MOL    O6716281   3.747   6.829   2.489 -0.1784  0.7570  0.0321
   68MOL    H6816282   3.745   6.891   2.725 -0.1448 -0.4634 -0.9377
   68MOL    H6916283   3.874   6.940   2.827  0.0042 -0.3519  0.5308
   68MOL    H7016284   4.081   6.709   2.670 -1.5733 -0.6876 -1.0051
   68MOL    H7116285   4.107   6.869   2.739  0.8507  1.5112 -0.8968
   68MOL    H7216286   4.155   6.838   2.582  2.4490 -0.9262  2.0580
   68MOL    H7316287   3.717   6.797   2.406 -0.3760  0.5263  0.1919
   68MOL    C7416288   3.938   7.042   2.594  0.2950 -0.1712 -0.0274
   68MOL    C7516289   4.006   7.112   2.464 -0.2114 -0.0773 -0.3950
   68MOL    C7616290   4.131   7.052   2.401 -0.2812 -0.5750  0.1001
   68MOL    C7716291   3.902   7.112   2.346  0.1748  0.1511  0.6886
   68MOL    O7816292   3.908   7.038   2.252 -0.0187  0.4149 -0.6690
   68MOL    O7916293   3.808   7.205   2.358 -0.3206  0.1930 -0.3335
   68MOL    H8016294   3.837   7.079   2.613 -0.2000 -0.6077 -1.6451
   68MOL    H8116295   3.978   7.092   2.682 -0.9615  0.4781  0.1823
   68MOL    H8216296   4.160   7.103   2.309 -0.3777  0.8880  0.8688
   68MOL    H8316297   4.113   6.946   2.385 -0.9698 -0.6510  1.3429
   68MOL    H8416298   4.212   7.064   2.473  2.3010 -0.4548 -2.7397
   68MOL    H8516299   3.785   7.214   2.267 -0.2405 -0.5460 -0.4304
   68MOL    C8616300   4.025   7.267   2.498  0.3324  0.0916 -0.1244
   68MOL    C8716301   4.097   7.384   2.412 -0.0230 -0.2138  0.4435
   68MOL    C8816302   4.039   7.386   2.265 -0.4151  0.1964  0.1737
   68MOL    C8916303   4.063   7.520   2.486  0.5681  0.1227 -0.3574
   68MOL    O9016304   4.050   7.628   2.428 -0.0983  0.0500  0.0914
   68MOL    O9116305   4.056   7.513   2.627 -0.5898 -0.2246  0.1949
   68MOL    H9216306   3.929   7.311   2.526 -1.2366 -1.0700 -3.4198
   68MOL    H9316307   4.086   7.257   2.588  0.2331 -2.2053 -0.2834
   68MOL    H9416308   4.059   7.470   2.199 -0.3448  0.8216  0.9850
   68MOL    H9516309   3.930   7.394   2.268 -0.5222  0.0411 -2.3007
   68MOL    H9616310   4.064   7.299   2.205  2.9638  0.4782  1.0598
   68MOL    H9716311   4.042   7.603   2.649  0.3918 -0.0018 -0.0685
   68MOL    C9816312   4.254   7.367   2.417  0.5714 -0.0745 -0.1356
   68MOL    C9916313   4.361   7.433   2.321 -0.1671  0.3023 -0.6411
   68MOL   C10016314   4.325   7.580   2.280  0.4395  0.6966  0.3363
   68MOL   C10116315   4.492   7.430   2.407 -0.6857 -0.1800 -0.2165
   68MOL   O10216316   4.540   7.539   2.448  0.1124 -0.0486  0.6547
   68MOL   O10316317   4.538   7.302   2.437  0.4564  0.1690 -0.1147
   68MOL   H10416318   4.261   7.388   2.524 -0.7477 -2.3873  0.4260
   68MOL   H10516319   4.275   7.261   2.414  1.6412  0.1012  0.8106
   68MOL   H10616320   4.406   7.628   2.225  1.8084 -0.0180  1.6773
   68MOL   H10716321   4.308   7.643   2.368 -0.4482  1.0169 -0.0570
   68MOL   H10816322   4.233   7.591   2.223  0.8982 -1.3721 -0.8562
   68MOL   H10916323   4.620   7.306   2.483 -0.0654  0.3506  0.8094
   68MOL   C11016324   4.362   7.350   2.188  0.3802 -0.2123  0.2524
   68MOL   C11116325   4.453   7.387   2.064 -0.1000 -0.8407  0.2979
   68MOL   C11216326   4.594   7.449   2.102  0.0864 -0.3847  0.1465
   68MOL   C11316327   4.470   7.257   1.988 -0.5186 -0.1923  0.9042
   68MOL   O11416328   4.578   7.233   1.930  0.4704  0.7026  0.1004
   68MOL   O11516329   4.353   7.192   1.974  0.1740  0.3519 -0.9068
   68MOL   H11616330   4.393   7.250   2.217 -2.9579 -1.8713 -1.5908
   68MOL   H11716331   4.259   7.332   2.154 -0.5914  2.3676  1.6795
   68MOL   H11816332   4.587   7.537   2.166 -0.9850 -0.1053 -0.3376
   68MOL   H11916333   4.665   7.470   2.022  2.1088 -0.1050  1.9942
   68MOL   H12016334   4.646   7.367   2.150  0.8768 -2.0072 -3.3225
   68MOL   H12116335   4.367   7.115   1.922  1.1246 -0.2636  0.2432
   68MOL   C12216336   4.364   7.496   1.976 -0.8034  0.2589 -0.1259
   68MOL   C12316337   4.371   7.518   1.825 -0.1414  0.4172  0.9872
   68MOL   C12416338   4.308   7.659   1.805 -0.1351  0.1938  0.0611
   68MOL   C12516339   4.524   7.545   1.794  0.5056  0.7207  0.1941
   68MOL   O12616340   4.587   7.494   1.702 -0.0036 -0.1027  0.1664
   68MOL   O12716341   4.576   7.643   1.873 -0.3015  0.3924  0.6242
   68MOL   H12816342   4.259   7.491   2.005 -1.2575 -0.6223 -1.8218
   68MOL   H12916343   4.383   7.589   2.029 -0.4443  0.1262 -0.0223
   68MOL   H13016344   4.345   7.699   1.711 -0.9839 -0.3137 -0.4954
   68MOL   H13116345   4.349   7.730   1.877  1.1319 -0.6258  0.1574
   68MOL   H13216346   4.203   7.667   1.834 -0.3195  1.1962 -0.8452
   68MOL   H13316347   4.669   7.645   1.859  0.1941 -0.9460  3.2254
   68MOL   C13416348   4.320   7.407   1.721  0.2269  0.2739 -0.2791
   68MOL   C13516349   4.172   7.402   1.664  0.0069 -0.8752  0.1541
   68MOL   C13616350   4.079   7.379   1.782 -0.1642 -0.6202  0.7073
   68MOL   C13716351   4.144   7.535   1.587 -0.5004  0.5561  0.5044
   68MOL   O13816352   4.049   7.608   1.606  0.0271  0.0922 -0.0133
   68MOL   O13916353   4.246   7.566   1.502  0.1085  0.3243  0.2708
   68MOL   H14016354   4.389   7.405   1.636  1.3490 -1.1133  0.6664
   68MOL   H14116355   4.343   7.314   1.772 -0.3809  0.4777  0.3712
   68MOL   H14216356   4.088   7.443   1.870  1.3688 -0.1090  0.1858
   68MOL   H14316357   4.105   7.275   1.804 -0.3226 -0.8296 -0.1045
   68MOL   H14416358   3.975   7.392   1.753  0.9771  1.2464 -2.8536
   68MOL   H14516359   4.234   7.653   1.466  0.6413 -0.0888 -0.8882
   68MOL   C14616360   4.186   7.286   1.566  0.0429  0.2623  0.0017
   68MOL   C14716361   4.061   7.226   1.484 -0.1078  0.8346  0.1662
   68MOL   C14816362   3.990   7.344   1.404 -0.5239  0.0591  0.0746
   68MOL   C14916363   4.120   7.136   1.365 -0.6631 -0.2765 -0.4104
   68MOL   O15016364   4.129   7.170   1.244  0.7005 -0.0093  0.1444
   68MOL   O15116365   4.167   7.023   1.424  0.2557  0.4650 -0.1543
   68MOL   H15216366   4.256   7.321   1.490 -1.4603  2.1136 -0.5772
   68MOL   H15316367   4.228   7.197   1.613 -0.6891  0.5260  1.1575
   68MOL   H15416368   3.927   7.414   1.459 -0.3391 -0.5747  1.1202
   68MOL   H15516369   3.935   7.308   1.317 -1.7005  2.4405 -0.2016
   68MOL   H15616370   4.071   7.407   1.366  0.9520 -1.5793  0.4381
   68MOL   H15716371   4.227   6.981   1.365  1.2303  1.4193  0.1466
   68MOL   C15816372   3.962   7.137   1.573  0.1529  0.3115  0.5475
   68MOL   C15916373   3.851   7.037   1.511  0.1183  0.8732  0.6225
   68MOL   C16016374   3.792   7.099   1.376  0.0012 -0.3216  0.0962
   68MOL   C16116375   3.901   6.894   1.480 -0.2740  0.4752 -0.5926
   68MOL   O16216376   3.992   6.840   1.545  0.1339  0.4213 -0.5886
   68MOL   O16316377   3.836   6.830   1.381  0.2682  0.1716  0.1874
   68MOL   H16416378   4.013   7.087   1.655 -0.1721 -2.6786 -1.0170
   68MOL   H16516379   3.899   7.219   1.607  2.0708  1.5309  1.2166
   68MOL   H16616380   3.701   7.043   1.357  1.5356 -2.3381 -1.6849
   68MOL   H16716381   3.857   7.100   1.288 -2.1641  0.5804 -1.5229
   68MOL   H16816382   3.764   7.204   1.388  0.5692 -0.2188  0.5416
   68MOL   H16916383   3.868   6.743   1.365  0.5540  0.5991 -1.7677
   68MOL   C17016384   3.724   7.016   1.605  0.0304 -0.5467 -0.9773
   68MOL   C17116385   3.735   6.998   1.760 -0.1327  0.0814  0.3063
   68MOL   C17216386   3.830   6.882   1.808 -0.0515  0.4358 -0.7648
   68MOL   C17316387   3.785   7.128   1.831 -0.5361 -0.1860  0.2580
   68MOL   O17416388   3.735   7.239   1.812  0.5423 -0.5722  0.6282
   68MOL   O17516389   3.897   7.115   1.922  0.2598 -0.5812  0.2518
   68MOL   H17616390   3.654   7.097   1.588 -0.6456 -1.1654 -1.1596
   68MOL   H17716391   3.660   6.934   1.571 -0.7105  0.5797 -2.3067
   68MOL   H17816392   3.808   6.793   1.750  1.4577  1.4133 -2.9099
   68MOL   H17916393   3.831   6.852   1.913  1.8494  0.1069 -0.8517
   68MOL   H18016394   3.935   6.899   1.780 -0.5088 -0.1453 -2.9243
   68MOL   H18116395   3.935   7.029   1.927 -1.2746 -1.5081 -3.2219
   68MOL   C18216396   3.589   6.965   1.800 -0.4914 -0.4761 -0.7175
   68MOL   C18316397   3.523   6.973   1.946  0.0031  0.0714  0.0108
   68MOL   C18416398   3.615   6.907   2.058 -0.4642 -0.0734  0.1465
   68MOL   C18516399   3.494   7.120   1.986  0.1836  0.3523 -0.0980
   68MOL   O18616400   3.492   7.216   1.905  0.2545  0.0262  0.6881
   68MOL   O18716401   3.453   7.122   2.118 -0.3585 -0.3877  0.0388
   68MOL   H18816402   3.527   7.035   1.744  1.7389  1.9091 -0.2856
   68MOL   H18916403   3.571   6.862   1.771  2.0232 -1.5249  1.2868
   68MOL   H19016404   3.710   6.958   2.076  1.5448 -2.9192 -1.9482
   68MOL   H19116405   3.652   6.811   2.023  0.5125  0.0270  0.8800
   68MOL   H19216406   3.568   6.894   2.155  1.7160 -2.0473  0.9731
   68MOL   H19316407   3.444   7.209   2.153 -0.0857 -1.2021  2.2383
   68MOL   C19416408   3.383   6.895   1.943 -0.0872 -0.1113  0.0849
   68MOL   C19516409   3.264   6.917   1.836 -0.8053 -0.1558 -0.1789
   68MOL   C19616410   3.228   7.064   1.817  0.8151  0.4930  0.1511
   68MOL   C19716411   3.293   6.839   1.702 -0.8130 -0.2907 -0.2538
   68MOL   O19816412   3.261   6.881   1.594 -0.5076  0.0181 -0.0699
   68MOL   O19916413   3.344   6.712   1.730  0.1505 -0.7987 -0.1506
   68MOL   H20016414   3.417   6.792   1.942  1.4111  0.3706  0.3231
   68MOL   H20116415   3.347   6.897   2.046  1.9101  1.8229  0.7933
   68MOL   H20216416   3.159   7.085   1.736 -0.0538  0.2490  0.8150
   68MOL   H20316417   3.312   7.128   1.788  1.2080  0.7845  1.8587
   68MOL   H20416418   3.186   7.105   1.909 -0.0663 -0.5133  0.2053
   68MOL   H20516419   3.359   6.660   1.653 -1.0340 -0.8691 -0.3366
   68MOL   C20616420   3.134   6.843   1.899  0.8077  0.4876  0.6393
   68MOL   C20716421   2.985   6.843   1.855  0.3154 -0.0987 -0.9857
   68MOL   C20816422   2.909   6.769   1.975 -0.2272  0.5825 -0.2828
   68MOL   C20916423   2.922   6.982   1.835 -0.1244  0.1492  0.2082
   68MOL   O21016424   2.885   7.051   1.929 -0.0132 -0.3658 -0.2269
   68MOL   O21116425   2.920   7.019   1.708 -0.0806  0.1212  0.5577
   68MOL   H21216426   3.165   6.742   1.928  2.2078  0.4874 -0.8045
   68MOL   H21316427   3.124   6.890   1.997  0.2968  1.5953  0.0605
   68MOL   H21416428   2.944   6.667   1.991  2.4454  1.8486  2.4334
   68MOL   H21516429   2.800   6.761   1.978 -0.4869  2.5108 -2.8483
   68MOL   H21616430   2.921   6.824   2.068  1.1256  1.4873 -0.9779
   68MOL   H21716431   2.884   7.106   1.705 -1.3572 -0.3946  0.5963
   68MOL   C21816432   2.970   6.754   1.724  0.5318 -0.0036 -0.1311
   68MOL   C21916433   2.850   6.670   1.674 -0.2457 -0.5114  0.6930
   68MOL   C22016434   2.849   6.534   1.739  0.5678 -0.3626  0.2876
   68MOL   C22116435   2.720   6.755   1.704 -0.4196  0.0903  0.7475
   68MOL   O22216436   2.693   6.852   1.635  0.1203  0.0187  0.6854
   68MOL   O22316437   2.638   6.692   1.791  0.3709 -0.5811 -0.9372
   68MOL   H22416438   3.012   6.815   1.644 -0.0525 -0.9965 -1.2124
   68MOL   H22516439   3.052   6.682   1.727  0.1416 -0.3727  1.9851
   68MOL   H22616440   2.749   6.497   1.713  0.8881  0.4046 -2.1570
   68MOL   H22716441   2.836   6.551   1.846  2.5027 -2.6065  0.9147
   68MOL   H22816442   2.922   6.462   1.703  0.1566 -0.9792  0.6656
   68MOL   H22916443   2.550   6.725   1.783 -0.1582 -1.6575  0.2970
   68MOL   C23016444   2.871   6.651   1.519  0.2652 -0.7145 -0.6953
   68MOL   C23116445   2.766   6.588   1.425  0.2574 -0.4396 -0.3008
   68MOL   C23216446   2.794   6.616   1.281 -0.3313  0.0283 -0.2794
   68MOL   C23316447   2.756   6.438   1.443  0.9478 -0.3393 -0.7091
   68MOL   O23416448   2.855   6.369   1.447 -0.3795 -0.1774 -0.2386
   68MOL   O23516449   2.625   6.397   1.456 -0.3685  0.1644  0.4341
   68MOL   H23616450   2.887   6.749   1.474 -0.0730 -0.9991 -1.4468
   68MOL   H23716451   2.970   6.607   1.513  0.6019 -0.5298  2.3537
   68MOL   H23816452   2.803   6.724   1.272 -1.4776  0.0240 -1.7358
   68MOL   H23916453   2.702   6.588   1.229 -1.4508  1.0653  1.1341
   68MOL   H24016454   2.878   6.564   1.235 -0.9697 -1.1320 -0.1505
   68MOL   H24116455   2.613   6.305   1.472 -1.5258  0.8466  3.9681
   68MOL   H24216456   2.668   6.630   1.449 -0.4288 -1.1829 -1.7303
   69MOL     C116457   1.675   4.999   2.102 -0.6712 -0.4184 -0.3441
   69MOL     C216458   1.688   4.917   1.972 -1.0753  0.5629 -0.1844
   69MOL     C316459   1.839   4.891   1.957 -0.1364  0.4744  0.0444
   69MOL     C416460   1.615   4.778   1.988  0.2179 -0.7364 -0.5519
   69MOL     O516461   1.662   4.675   1.936 -0.2605  0.5756 -0.0475
   69MOL     O616462   1.496   4.786   2.047  0.2544 -0.4420  0.4791
   69MOL     H716463   1.569   5.020   2.115 -0.9152 -0.1615 -2.6043
   69MOL     H816464   1.738   5.088   2.098 -1.4125  0.0924 -0.5777
   69MOL     H916465   1.880   4.836   2.042 -0.3886  2.0676  1.2313
   69MOL    H1016466   1.889   4.988   1.958 -0.4798  0.6450  1.3242
   69MOL    H1116467   1.867   4.851   1.860 -0.4677 -0.5284  0.3547
   69MOL    H1216468   1.456   4.701   2.055 -0.6657 -0.2765 -1.8639
   69MOL    H1316469   1.707   4.948   2.193 -2.5144 -0.0646  0.5169
   69MOL    C1416470   1.646   4.983   1.840 -0.9995  0.9597 -0.2207
   69MOL    C1516471   1.536   5.091   1.822 -0.0666 -0.7225  0.0661
   69MOL    C1616472   1.519   5.113   1.662 -0.2864 -0.0534  0.1684
   69MOL    C1716473   1.399   5.055   1.884 -0.0327 -0.7776 -0.5000
   69MOL    O1816474   1.338   5.126   1.968  0.0864 -0.1984  0.8367
   69MOL    O1916475   1.338   4.954   1.821  0.0063 -0.1220  0.1333
   69MOL    H2016476   1.733   5.014   1.782 -0.1591  0.6181  0.8518
   69MOL    H2116477   1.616   4.901   1.775  0.1038 -1.2094  1.9409
   69MOL    H2216478   1.503   5.018   1.612  1.9301 -1.4410  1.9863
   69MOL    H2316479   1.618   5.140   1.623 -0.1947  1.0767  1.1628
   69MOL    H2416480   1.444   5.187   1.636  0.8658  0.5228 -1.6748
   69MOL    H2516481   1.391   4.915   1.753 -1.1532 -0.6439 -0.4692
   69MOL    C2616482   1.598   5.219   1.902  0.1534  0.1005 -0.4201
   69MOL    C2716483   1.586   5.369   1.860  0.1180 -0.0910  0.1026
   69MOL    C2816484   1.680   5.395   1.736 -0.3273 -0.1880 -0.1886
   69MOL    C2916485   1.444   5.410   1.813  0.2914 -0.2409 -0.4115
   69MOL    O3016486   1.417   5.430   1.695 -0.3027  0.5514 -0.8093
   69MOL    O3116487   1.355   5.419   1.910 -0.2705  0.2590  0.6127
   69MOL    H3216488   1.570   5.216   2.008  0.6406  2.3715 -0.1907
   69MOL    H3316489   1.706   5.202   1.909 -0.0359 -0.7110  0.6772
   69MOL    H3416490   1.654   5.334   1.649 -1.2748 -1.4597  0.9791
   69MOL    H3516491   1.783   5.378   1.766 -0.3451  0.4685  0.2503
   69MOL    H3616492   1.678   5.497   1.697 -0.4132 -0.8473 -1.9924
   69MOL    H3716493   1.274   5.450   1.874  0.7077  1.5931 -0.5119
   69MOL    C3816494   1.623   5.451   1.989  0.0575 -0.6410  0.1730
   69MOL    C3916495   1.661   5.606   1.996 -0.1379  0.3811  0.3308
   69MOL    C4016496   1.682   5.647   2.140  0.1054  0.0670  0.0927
   69MOL    C4116497   1.794   5.617   1.922 -0.0025 -0.2168 -0.3009
   69MOL    O4216498   1.816   5.664   1.814  0.0350  0.2094 -0.0292
   69MOL    O4316499   1.901   5.574   1.996 -0.0243 -0.3466 -0.0903
   69MOL    H4416500   1.544   5.445   2.064 -0.7373 -1.6121 -0.7278
   69MOL    H4516501   1.712   5.406   2.032 -0.3563 -0.8479  0.8241
   69MOL    H4616502   1.747   5.581   2.197 -1.0009 -2.4670 -1.4784
   69MOL    H4716503   1.596   5.646   2.207  0.2180  0.0520  0.2370
   69MOL    H4816504   1.732   5.742   2.155 -0.1814  0.5438 -1.8388
   69MOL    H4916505   1.979   5.593   1.946 -0.7595  0.3679 -0.9982
   69MOL    C5016506   1.545   5.694   1.927  0.2914  0.0055  0.5925
   69MOL    C5116507   1.531   5.852   1.951 -0.3391  0.2303 -0.5300
   69MOL    C5216508   1.441   5.869   2.080 -0.5690  0.1121  0.4247
   69MOL    C5316509   1.665   5.922   1.967 -0.7899  0.0844  0.6344
   69MOL    O5416510   1.719   5.954   2.072  0.0886  0.0161 -0.1898
   69MOL    O5516511   1.726   5.940   1.845 -0.3878 -0.2133 -1.0106
   69MOL    H5616512   1.551   5.675   1.820 -0.3744  0.0618  0.5415
   69MOL    H5716513   1.453   5.638   1.947  0.1481  0.1282  0.2786
   69MOL    H5816514   1.352   5.806   2.082 -1.7772  1.8133  1.5067
   69MOL    H5916515   1.399   5.968   2.098 -1.5549 -0.1439 -0.4075
   69MOL    H6016516   1.489   5.838   2.173 -1.6823  0.6628  1.1917
   69MOL    H6116517   1.807   5.989   1.843 -0.0794 -0.7033 -0.7165
   69MOL    C6216518   1.453   5.915   1.830 -0.3317  0.0063 -0.4137
   69MOL    C6316519   1.392   6.066   1.828  0.0753  0.6277  0.0268
   69MOL    C6416520   1.481   6.160   1.907  0.4890  0.0084  0.6923
   69MOL    C6516521   1.403   6.107   1.678 -0.1222 -0.3464 -0.2957
   69MOL    O6616522   1.468   6.204   1.633  0.2993  0.2520 -0.3997
   69MOL    O6716523   1.343   6.013   1.604 -0.0779  0.7844  0.3054
   69MOL    H6816524   1.524   5.897   1.749  0.4092 -0.2876  0.3032
   69MOL    H6916525   1.369   5.847   1.812  0.7971 -1.1383 -1.4483
   69MOL    H7016526   1.453   6.265   1.899  0.1384 -0.0912  0.6045
   69MOL    H7116527   1.585   6.149   1.874  0.6649 -2.7746  2.0418
   69MOL    H7216528   1.490   6.136   2.013 -0.6953 -3.0362  0.1535
   69MOL    H7316529   1.357   6.008   1.511  0.4452  0.7988  0.3861
   69MOL    C7416530   1.234   6.056   1.869  0.4114 -0.4499  0.1364
   69MOL    C7516531   1.147   6.179   1.910 -0.1992 -0.2782  0.9639
   69MOL    C7616532   1.199   6.220   2.052 -0.0448  0.5386 -0.0034
   69MOL    C7716533   1.174   6.294   1.809 -0.5178  0.0608 -0.8551
   69MOL    O7816534   1.237   6.392   1.835 -0.3061 -0.6332  0.0417
   69MOL    O7916535   1.120   6.272   1.685  0.6152 -0.6693 -0.1928
   69MOL    H8016536   1.177   6.015   1.786 -2.1852  1.2841  0.9894
   69MOL    H8116537   1.231   5.981   1.948  1.3809 -0.1545  0.4596
   69MOL    H8216538   1.157   6.314   2.088 -0.2726 -0.4808  2.4754
   69MOL    H8316539   1.308   6.228   2.055  0.1733 -1.0977 -2.2009
   69MOL    H8416540   1.190   6.150   2.134  1.2162  0.6991  0.2921
   69MOL    H8516541   1.123   6.353   1.635 -0.7688 -0.8863 -0.6536
   69MOL    C8616542   0.994   6.151   1.901 -0.0447 -0.0063  0.0882
   69MOL    C8716543   0.907   6.072   2.011 -0.1742 -0.1040 -0.6269
   69MOL    C8816544   0.774   6.029   1.943 -0.2322 -0.1613 -0.3619
   69MOL    C8916545   0.980   5.948   2.066  0.6673  0.4081  0.6954
   69MOL    O9016546   1.040   5.941   2.169 -0.4514 -0.2585 -0.9337
   69MOL    O9116547   0.988   5.855   1.971  0.0818  0.1753  0.2188
   69MOL    H9216548   0.951   6.251   1.895 -2.7562 -0.9426  2.6806
   69MOL    H9316549   0.980   6.097   1.808  0.5765 -0.7946  0.4447
   69MOL    H9416550   0.792   5.987   1.844 -0.4355  1.0259 -0.9090
   69MOL    H9516551   0.695   6.104   1.937 -2.1403 -1.7815  3.0664
   69MOL    H9616552   0.731   5.953   2.008  1.6183 -1.7749 -0.9808
   69MOL    H9716553   1.048   5.791   2.005 -0.2492 -1.1653 -1.6561
   69MOL    C9816554   0.869   6.184   2.127 -0.0930 -0.0772 -0.1562
   69MOL    C9916555   0.809   6.154   2.273  0.0082 -0.0706 -0.6156
   69MOL   C10016556   0.697   6.037   2.265  0.3605  0.2229 -0.1889
   69MOL   C10116557   0.918   6.110   2.370  0.0186  0.0501 -0.2585
   69MOL   O10216558   1.029   6.160   2.360 -0.4674 -0.3258  0.0200
   69MOL   O10316559   0.879   6.011   2.457 -0.2610  0.2152 -0.9117
   69MOL   H10416560   0.960   6.242   2.145  0.0649 -0.4577  0.2883
   69MOL   H10516561   0.808   6.258   2.076  1.7496 -0.1979 -2.6363
   69MOL   H10616562   0.633   6.023   2.353  1.4916  1.1646  0.7973
   69MOL   H10716563   0.738   5.937   2.265  0.0992  0.1157 -0.4011
   69MOL   H10816564   0.637   6.048   2.175  0.1937 -0.4957 -0.1684
   69MOL   H10916565   0.956   6.004   2.512 -1.4729 -0.3280  0.7242
   69MOL   C11016566   0.746   6.288   2.317 -0.0876  0.1100 -0.9230
   69MOL   C11116567   0.704   6.332   2.464  0.2091  0.2190  0.4621
   69MOL   C11216568   0.819   6.340   2.563  0.0425  0.0907  0.0778
   69MOL   C11316569   0.650   6.483   2.451 -0.0025  0.3356  0.6689
   69MOL   O11416570   0.650   6.560   2.548  0.7054  0.0393  0.1752
   69MOL   O11516571   0.609   6.520   2.326 -0.1563 -0.2235 -0.5108
   69MOL   H11616572   0.829   6.353   2.291 -1.0277  1.7693  0.0979
   69MOL   H11716573   0.669   6.312   2.243 -2.2996 -2.1330  0.5573
   69MOL   H11816574   0.904   6.403   2.537  0.5384  0.5833  2.7586
   69MOL   H11916575   0.851   6.238   2.587  2.5295  0.6673 -0.6870
   69MOL   H12016576   0.790   6.393   2.654 -0.6885 -0.8667  0.4174
   69MOL   H12116577   0.560   6.601   2.320 -3.2480 -1.8933  1.1429
   69MOL   C12216578   0.600   6.234   2.529 -0.3491 -0.6891 -0.0040
   69MOL   C12316579   0.450   6.233   2.511 -0.2156  0.2433 -0.1744
   69MOL   C12416580   0.390   6.337   2.607  0.5744 -0.5657  0.6411
   69MOL   C12516581   0.406   6.269   2.367 -0.5523  0.0112 -0.1513
   69MOL   O12616582   0.334   6.369   2.337 -0.8783  0.3656  0.1233
   69MOL   O12716583   0.450   6.176   2.276  0.7072  0.1546 -0.0156
   69MOL   H12816584   0.648   6.137   2.519 -0.8799 -1.1058  1.3509
   69MOL   H12916585   0.608   6.242   2.638 -2.7649  3.1577  0.0161
   69MOL   H13016586   0.287   6.363   2.581  0.9684 -0.5915 -1.0213
   69MOL   H13116587   0.448   6.428   2.595 -0.8709  1.1066  5.2059
   69MOL   H13216588   0.402   6.304   2.710 -0.3711  0.6819  1.1666
   69MOL   H13316589   0.497   6.109   2.322  0.0512 -0.8563 -0.8008
   69MOL   C13416590   0.400   6.085   2.552  0.4230  0.3312  0.0862
   69MOL   C13516591   0.254   6.026   2.538  0.2905  0.6206  0.1028
   69MOL   C13616592   0.236   5.986   2.385  0.0025  0.2642  0.1539
   69MOL   C13716593   0.237   5.902   2.622  0.1605 -0.0276 -0.5763
   69MOL   O13816594   0.208   5.788   2.585 -0.8188 -0.3191 -0.3718
   69MOL   O13916595   0.248   5.930   2.753 -0.6127 -0.7862  0.2203
   69MOL   H14016596   0.461   6.017   2.492 -1.3709  1.2491 -2.8751
   69MOL   H14116597   0.443   6.067   2.650  0.9841 -0.1728 -0.2451
   69MOL   H14216598   0.166   5.905   2.363  1.9777 -1.1017 -1.2561
   69MOL   H14316599   0.332   5.949   2.349  0.9124  1.5028  1.2502
   69MOL   H14416600   0.215   6.074   2.325  0.8843  0.2622 -0.1651
   69MOL   H14516601   0.221   5.857   2.807 -0.4480  1.0335  2.8581
   69MOL   C14616602   0.144   6.137   2.574  0.0686 -0.0775  0.2262
   69MOL   C14716603   7.754   6.102   2.587  0.2637  0.5808 -0.2716
   69MOL   C14816604   7.709   5.987   2.496 -0.2743 -0.5109 -0.0490
   69MOL   C14916605   7.728   6.047   2.730 -0.0997 -0.3976 -0.4127
   69MOL   O15016606   7.685   5.931   2.748  0.3992  0.4039 -0.0845
   69MOL   O15116607   7.755   6.132   2.831 -0.1117 -0.0584 -0.6859
   69MOL   H15216608   0.184   6.180   2.666  0.1582 -0.9209  0.5785
   69MOL   H15316609   0.163   6.218   2.503 -0.3185  0.7708  1.0899
   69MOL   H15416610   7.762   5.893   2.510 -1.3697 -1.5145 -2.3917
   69MOL   H15516611   7.713   6.022   2.393  0.7354  0.3754  0.2802
   69MOL   H15616612   7.606   5.956   2.515 -2.0548  4.0928 -1.4662
   69MOL   H15716613   7.724   6.105   2.916 -1.2167  0.6522 -0.8506
   69MOL   C15816614   7.663   6.231   2.570 -0.7471  0.3139 -0.1463
   69MOL   C15916615   7.625   6.300   2.427 -0.1464 -0.0970 -0.0932
   69MOL   C16016616   7.749   6.307   2.326 -0.2595 -0.0549  0.0319
   69MOL   C16116617   7.518   6.210   2.359  0.7017 -0.1585 -0.2388
   69MOL   O16216618   7.521   6.161   2.244 -0.0671  0.0169  0.2268
   69MOL   O16316619   7.423   6.177   2.447  0.3596  0.2994  0.1343
   69MOL   H16416620   7.568   6.221   2.622  0.2791 -0.0939  1.6935
   69MOL   H16516621   7.713   6.310   2.627 -1.3268  0.1346  0.6139
   69MOL   H16616622   7.721   6.328   2.223  2.7815 -0.4391 -0.9212
   69MOL   H16716623   0.020   6.205   2.319 -0.2132  0.1881 -3.9728
   69MOL   H16816624   0.069   6.363   2.361 -0.5963  0.7645 -0.4443
   69MOL   H16916625   7.363   6.112   2.412  0.2478 -0.2602  1.3137
   69MOL   C17016626   7.568   6.444   2.463 -0.5373 -0.0877  0.1618
   69MOL   C17116627   7.456   6.516   2.374  0.6022 -0.3996 -0.1731
   69MOL   C17216628   7.498   6.509   2.227 -0.4844 -0.0435 -0.5269
   69MOL   C17316629   7.317   6.454   2.401 -0.6547  0.0152  0.4047
   69MOL   O17416630   7.277   6.447   2.517  0.4780  0.3249 -0.6742
   69MOL   O17516631   7.251   6.412   2.292  0.0406  0.2117 -0.0296
   69MOL   H17616632   7.516   6.423   2.556  1.2894  0.5805  1.3476
   69MOL   H17716633   7.649   6.507   2.499 -0.9657  0.8577 -0.5114
   69MOL   H17816634   7.521   6.409   2.189 -0.2832 -0.5157  0.8241
   69MOL   H17916635   7.579   6.580   2.216 -0.5664  0.1091 -0.1551
   69MOL   H18016636   7.413   6.545   2.169 -1.2278  0.0622  0.6088
   69MOL   H18116637   7.168   6.375   2.317  0.0436  0.2684  0.0647
   69MOL   C18216638   7.462   6.664   2.428 -0.4390 -0.1502  0.7671
   69MOL   C18316639   7.380   6.789   2.381  0.2952  0.8364  0.6684
   69MOL   C18416640   7.440   6.905   2.470 -0.0341 -0.4457 -0.1973
   69MOL   C18516641   7.415   6.811   2.233 -0.2516 -0.1254  0.1484
   69MOL   O18616642   7.338   6.770   2.146  1.1569  0.6940  0.1255
   69MOL   O18716643   7.538   6.870   2.201 -0.0600 -0.7536  0.5895
   69MOL   H18816644   7.453   6.642   2.535 -0.7678 -2.3593  0.3049
   69MOL   H18916645   7.566   6.694   2.414 -0.4772 -1.1082 -1.7456
   69MOL   H19016646   7.382   6.996   2.460  1.3477  0.1072 -4.1092
   69MOL   H19116647   7.542   6.940   2.450  0.7032 -1.3867  1.7066
   69MOL   H19216648   7.448   6.878   2.576  0.2370  2.6607  0.6174
   69MOL   H19316649   7.540   6.885   2.108 -0.1502  0.2472  0.7437
   69MOL   C19416650   7.225   6.774   2.408  0.2308 -0.0336  0.3932
   69MOL   C19516651   7.112   6.884   2.421  0.0819 -0.2084  0.2139
   69MOL   C19616652   7.113   6.939   2.569  0.0628  0.1046 -0.6675
   69MOL   C19716653   7.133   6.995   2.315 -0.1302 -0.0816  0.5242
   69MOL   O19816654   7.154   7.114   2.335 -0.4045 -0.2104  0.2912
   69MOL   O19916655   7.119   6.939   2.188  0.0279  0.0962 -0.3691
   69MOL   H20016656   7.180   6.712   2.330 -0.0703  0.6245  0.0421
   69MOL   H20116657   7.218   6.711   2.498 -0.2422  0.8458  0.9840
   69MOL   H20216658   7.081   7.043   2.581  0.5934  0.0286  1.7913
   69MOL   H20316659   7.210   6.939   2.620 -0.9298 -0.0522  1.2775
   69MOL   H20416660   7.056   6.880   2.640 -0.5260  1.8914  0.3846
   69MOL   H20516661   7.165   6.977   2.115  0.2716 -1.2588 -0.9169
   69MOL   C20616662   6.979   6.810   2.392  0.4262 -0.1803  0.3635
   69MOL   C20716663   6.837   6.878   2.402  0.8831 -0.5544 -0.2841
   69MOL   C20816664   6.744   6.766   2.346 -0.1808 -0.0631  0.3273
   69MOL   C20916665   6.806   6.894   2.558  0.3577  0.1242  0.1155
   69MOL   O21016666   6.786   6.794   2.625  0.5613 -0.3447  0.1166
   69MOL   O21116667   6.806   7.015   2.618  0.5967  0.3650  0.4583
   69MOL   H21216668   6.988   6.771   2.290  1.2949 -1.6811  0.9955
   69MOL   H21316669   6.979   6.723   2.458 -0.6108 -0.2144  0.3217
   69MOL   H21416670   6.753   6.670   2.396 -3.1540 -0.0526  0.9722
   69MOL   H21516671   6.739   6.755   2.237 -2.3576 -0.4752  0.4604
   69MOL   H21616672   6.643   6.791   2.376  0.0472  1.7750 -0.3453
   69MOL   H21716673   6.779   7.014   2.708  0.2256  0.7961  0.3540
   69MOL   C21816674   6.818   7.007   2.313  0.0884 -0.6759 -0.0877
   69MOL   C21916675   6.686   7.078   2.274 -0.2032  0.1659  0.0078
   69MOL   C22016676   6.735   7.218   2.227 -0.2243 -0.0494  0.1509
   69MOL   C22116677   6.624   6.994   2.163 -0.2004  0.7525 -0.2602
   69MOL   O22216678   6.524   6.927   2.176  0.1561 -0.1009 -0.5452
   69MOL   O22316679   6.704   7.001   2.051 -0.3886 -0.5217 -0.1859
   69MOL   H22416680   6.879   7.078   2.370  2.8208 -3.4157  0.5331
   69MOL   H22516681   6.886   6.997   2.228  1.0063 -0.3305  0.6031
   69MOL   H22616682   6.815   7.213   2.153  1.5480  0.7641  1.9564
   69MOL   H22716683   6.768   7.278   2.312 -0.4961  0.9761 -0.4632
   69MOL   H22816684   6.655   7.272   2.178 -0.4238 -1.0904 -0.6990
   69MOL   H22916685   6.771   7.066   2.065 -0.3527 -0.9483  1.6876
   69MOL   C23016686   6.593   7.091   2.401  0.3867  0.4180 -0.5034
   69MOL   C23116687   6.468   7.179   2.403 -0.6528 -0.0942  0.4283
   69MOL   C23216688   6.342   7.115   2.341 -0.0628 -0.2710 -0.3145
   69MOL   C23316689   6.448   7.237   2.546  0.2937  0.0325  0.6234
   69MOL   O23416690   6.375   7.183   2.630  0.3626  0.2938  0.4001
   69MOL   O23516691   6.537   7.327   2.573  0.6577 -0.0508 -0.4037
   69MOL   H23616692   6.569   6.993   2.442 -0.1354  0.6189 -0.3353
   69MOL   H23716693   6.661   7.126   2.479  1.0534 -1.4149 -0.2248
   69MOL   H23816694   6.255   7.169   2.379 -0.5295 -0.4042 -1.1830
   69MOL   H23916695   6.330   7.018   2.387 -1.6217  0.1571  0.2154
   69MOL   H24016696   6.361   7.108   2.234  0.5183 -0.5830 -0.1889
   69MOL   H24116697   6.535   7.334   2.667  1.0999 -1.4008 -0.2790
   69MOL   H24216698   6.489   7.267   2.342  1.5161 -1.3421 -0.7069
   70MOL     C116699   4.146   3.197   5.273  0.3578  0.1583  0.8406
   70MOL     C216700   4.274   3.228   5.349  0.0038 -0.4816 -0.1562
   70MOL     C316701   4.392   3.218   5.245  0.4743 -0.0249 -0.0362
   70MOL     C416702   4.265   3.374   5.397  0.3525  0.8225 -0.0090
   70MOL     O516703   4.345   3.457   5.377  0.2596 -0.2566 -0.3828
   70MOL     O616704   4.147   3.398   5.466  0.9526  0.8738 -0.3109
   70MOL     H716705   4.059   3.206   5.338 -0.4855 -1.9413  0.0313
   70MOL     H816706   4.167   3.100   5.228  4.0613  1.3734 -0.2732
   70MOL     H916707   4.353   3.245   5.147  1.9589  0.7893 -0.4177
   70MOL    H1016708   4.418   3.113   5.236  0.3371 -0.2011  1.5506
   70MOL    H1116709   4.478   3.283   5.264  0.2063 -0.1686  1.7347
   70MOL    H1216710   4.141   3.488   5.495 -1.2371 -0.4319  3.7793
   70MOL    H1316711   4.121   3.268   5.194 -0.3522 -1.3260 -0.2821
   70MOL    C1416712   4.291   3.139   5.474  0.1408  0.1330  0.5001
   70MOL    C1516713   4.423   3.140   5.562 -1.0671  0.2638  0.6316
   70MOL    C1616714   4.546   3.113   5.485  0.3231 -0.0663 -0.6784
   70MOL    C1716715   4.437   3.263   5.643  0.2126  0.8839  0.0323
   70MOL    O1816716   4.541   3.323   5.654 -0.0894  0.3600  0.0080
   70MOL    O1916717   4.315   3.300   5.695  0.2250 -0.0685  0.2367
   70MOL    H2016718   4.201   3.148   5.534  0.5957 -0.2096  1.2514
   70MOL    H2116719   4.288   3.037   5.434 -0.2880 -0.5110  2.1178
   70MOL    H2216720   4.535   3.037   5.408 -1.9331 -0.7236  0.2390
   70MOL    H2316721   4.633   3.090   5.545  1.0227 -1.1391 -2.0847
   70MOL    H2416722   4.577   3.206   5.437  0.7384  1.3037  2.1381
   70MOL    H2516723   4.310   3.386   5.734 -0.4869  0.7474 -1.5896
   70MOL    C2616724   4.395   3.011   5.650 -0.2130  1.0505 -0.6640
   70MOL    C2716725   4.469   2.958   5.784  0.1974  0.2579 -0.1775
   70MOL    C2816726   4.604   3.021   5.798 -0.5455 -0.5101  0.1622
   70MOL    C2916727   4.395   3.016   5.914  0.0054 -0.1340 -0.0987
   70MOL    O3016728   4.319   3.118   5.912 -0.0217 -0.7178  0.3523
   70MOL    O3116729   4.436   2.956   6.031 -0.2305 -0.1277  0.3407
   70MOL    H3216730   4.288   3.007   5.673 -0.0104 -1.1666 -0.0355
   70MOL    H3316731   4.430   2.936   5.580  1.9223  2.5236 -1.2315
   70MOL    H3416732   4.641   3.010   5.900  0.1448 -2.9665 -0.3140
   70MOL    H3516733   4.608   3.130   5.794  1.2054 -0.5354  0.5174
   70MOL    H3616734   4.673   2.981   5.723 -1.3384  1.5294 -1.7096
   70MOL    H3716735   4.397   2.991   6.109  2.0467  1.3954  0.8313
   70MOL    C3816736   4.475   2.801   5.792  0.1729 -0.3292 -0.6351
   70MOL    C3916737   4.357   2.703   5.760  0.2670 -0.7194 -0.5306
   70MOL    C4016738   4.221   2.741   5.832  0.0356  0.4360 -0.2158
   70MOL    C4116739   4.326   2.685   5.614 -0.0095 -0.3619 -0.2812
   70MOL    O4216740   4.218   2.651   5.564 -0.2158 -0.5375  0.2182
   70MOL    O4316741   4.436   2.699   5.533 -0.2996  0.1226  0.1593
   70MOL    H4416742   4.553   2.779   5.719  0.5034  0.6518 -0.5874
   70MOL    H4516743   4.531   2.772   5.881 -0.3711  1.5625  0.3394
   70MOL    H4616744   4.145   2.664   5.827  0.6808 -0.1241 -2.2236
   70MOL    H4716745   4.170   2.815   5.770 -0.3521 -0.6766 -1.2534
   70MOL    H4816746   4.239   2.782   5.931 -1.0100 -1.7612  0.9087
   70MOL    H4916747   4.419   2.659   5.449  0.4719 -1.0522  0.5455
   70MOL    C5016748   4.385   2.561   5.822 -0.1214  0.5102 -0.4491
   70MOL    C5116749   4.478   2.447   5.762  0.3822  0.3950 -0.4440
   70MOL    C5216750   4.495   2.363   5.889 -0.0789  0.7483 -0.0442
   70MOL    C5316751   4.395   2.381   5.643 -0.2878  0.0489 -0.3668
   70MOL    O5416752   4.415   2.417   5.525  0.2602  0.6893 -0.2286
   70MOL    O5516753   4.308   2.286   5.678 -0.0208 -0.0447  0.0135
   70MOL    H5616754   4.421   2.580   5.923  0.5253  2.4746 -1.0121
   70MOL    H5716755   4.290   2.510   5.838  0.1631  0.1074 -0.0532
   70MOL    H5816756   4.551   2.418   5.964  0.5681  0.1966 -0.1246
   70MOL    H5916757   4.551   2.275   5.857  0.6427  1.8102 -1.7824
   70MOL    H6016758   4.397   2.335   5.926  0.8098 -0.6609  1.2511
   70MOL    H6116759   4.272   2.258   5.595  0.7474 -0.7325 -0.0908
   70MOL    C6216760   4.623   2.496   5.717  0.2886 -0.2765  0.2908
   70MOL    C6316761   4.746   2.406   5.687  1.0081  0.2484  0.2237
   70MOL    C6416762   4.813   2.380   5.824 -0.6755 -0.3769  0.6701
   70MOL    C6516763   4.716   2.263   5.634  1.0073 -0.1514 -0.0025
   70MOL    O6616764   4.747   2.161   5.704  0.1120  0.5695  0.2308
   70MOL    O6716765   4.664   2.245   5.513  0.2913 -0.0765  0.4090
   70MOL    H6816766   4.598   2.545   5.624  0.8032 -0.9035 -0.1794
   70MOL    H6916767   4.656   2.581   5.776 -1.2142  0.1430  0.5450
   70MOL    H7016768   4.806   2.468   5.889 -0.0306  0.0964  0.0989
   70MOL    H7116769   4.918   2.363   5.802 -0.2663  3.0479 -0.4247
   70MOL    H7216770   4.772   2.304   5.891 -0.4137  0.8011  2.2172
   70MOL    H7316771   4.637   2.329   5.480  1.7388  1.6741  3.4624
   70MOL    C7416772   4.849   2.494   5.601 -0.6905  0.4108  0.0880
   70MOL    C7516773   4.891   2.494   5.449  0.2393  0.5971 -0.1256
   70MOL    C7616774   4.970   2.362   5.424  0.6607  0.3066  0.7247
   70MOL    C7716775   4.778   2.495   5.347 -1.0407 -0.0630 -0.3912
   70MOL    O7816776   4.662   2.465   5.378 -0.0202  0.3761 -0.2414
   70MOL    O7916777   4.816   2.522   5.218 -0.6668 -0.0849 -0.2183
   70MOL    H8016778   4.832   2.595   5.639 -1.8550 -0.2936  1.5105
   70MOL    H8116779   4.942   2.487   5.657 -1.1827 -5.5508  0.4850
   70MOL    H8216780   4.907   2.274   5.421  2.8881 -1.3007 -1.5770
   70MOL    H8316781   5.056   2.349   5.490  0.2114 -0.8487  1.0846
   70MOL    H8416782   5.012   2.356   5.324 -2.7010 -1.0471 -0.6609
   70MOL    H8516783   4.902   2.558   5.199  0.2036 -1.7502  0.4317
   70MOL    C8616784   4.986   2.623   5.429 -0.0234  0.0456 -0.1755
   70MOL    C8716785   4.946   2.776   5.456 -0.3836  0.4507 -0.5840
   70MOL    C8816786   4.801   2.801   5.424 -0.1295  0.3154  0.1800
   70MOL    C8916787   4.960   2.808   5.606 -0.3256 -0.2046  0.1090
   70MOL    O9016788   4.871   2.848   5.680 -0.0803 -0.4481  0.0867
   70MOL    O9116789   5.078   2.765   5.655  0.1954  0.6198  0.7408
   70MOL    H9216790   5.081   2.608   5.481 -0.6163  2.0372  1.5992
   70MOL    H9316791   5.009   2.626   5.323 -1.6784  1.2852 -0.5244
   70MOL    H9416792   4.763   2.768   5.326 -0.8332 -1.0510  0.8907
   70MOL    H9516793   4.776   2.907   5.432  0.5051  0.4758  0.0325
   70MOL    H9616794   4.724   2.766   5.492 -1.4127  1.9211 -0.4121
   70MOL    H9716795   5.083   2.806   5.741  2.3128 -3.0838  2.4830
   70MOL    C9816796   5.041   2.883   5.392 -0.3218 -0.5287  0.3679
   70MOL    C9916797   5.061   2.905   5.234 -0.1078  0.0190 -0.4781
   70MOL   C10016798   5.121   3.043   5.215  0.0049  0.4030 -1.1983
   70MOL   C10116799   5.164   2.797   5.196 -0.2104 -0.3120  0.4235
   70MOL   O10216800   5.130   2.705   5.123  0.0497  0.0088 -0.3091
   70MOL   O10316801   5.294   2.816   5.242 -0.6767 -0.3398  0.0407
   70MOL   H10416802   5.006   2.979   5.428  0.3831  0.6531 -2.0005
   70MOL   H10516803   5.139   2.869   5.437  1.4987  2.8595 -2.2951
   70MOL   H10616804   5.070   3.129   5.256 -0.2912  0.0704 -0.8649
   70MOL   H10716805   5.135   3.062   5.108 -0.2770  1.8839 -0.9732
   70MOL   H10816806   5.227   3.043   5.242 -0.7576 -0.7601  1.9654
   70MOL   H10916807   5.316   2.887   5.301 -1.8389  0.5202 -0.5368
   70MOL   C11016808   4.925   2.900   5.152  0.0783 -0.7035  0.1720
   70MOL   C11116809   4.897   2.971   5.007  0.4013  0.2134 -0.5412
   70MOL   C11216810   4.751   2.948   4.982 -0.2583 -0.3282 -0.2482
   70MOL   C11316811   4.926   3.117   5.010  0.1338  0.0719  0.8163
   70MOL   O11416812   4.980   3.182   4.918 -0.3742 -0.0636 -0.3814
   70MOL   O11516813   4.866   3.166   5.119  0.1205 -0.1394 -0.1312
   70MOL   H11616814   4.899   2.795   5.156 -0.1732 -0.5798  2.5261
   70MOL   H11716815   4.858   2.942   5.227 -2.4587 -0.3706 -2.2079
   70MOL   H11816816   4.694   2.956   5.075  0.4918  1.2411  0.0969
   70MOL   H11916817   4.723   2.853   4.936 -1.4454 -0.9680  1.7559
   70MOL   H12016818   4.718   3.023   4.910  1.2921 -0.4468 -1.1063
   70MOL   H12116819   4.888   3.258   5.123 -1.5783  0.2522  0.4519
   70MOL   C12216820   4.989   2.902   4.898 -0.2292 -0.4295  0.2104
   70MOL   C12316821   4.964   2.907   4.739  0.8180  0.0117  0.0007
   70MOL   C12416822   4.852   3.009   4.693 -0.3468  0.6863 -0.7477
   70MOL   C12516823   5.090   2.961   4.676  0.5402  0.2690 -0.2034
   70MOL   O12616824   5.152   2.896   4.592 -0.4584 -0.0217 -0.4274
   70MOL   O12716825   5.127   3.085   4.718  0.0457 -0.0779  0.0924
   70MOL   H12816826   5.089   2.930   4.932 -0.4895 -3.4410  3.8860
   70MOL   H12916827   4.998   2.798   4.930 -0.7355 -0.7679 -0.7462
   70MOL   H13016828   4.754   2.962   4.693  0.1589 -0.4323  0.9470
   70MOL   H13116829   4.857   3.031   4.586 -2.1911 -1.5564 -1.3369
   70MOL   H13216830   4.844   3.108   4.737  0.9336  1.2490 -1.7523
   70MOL   H13316831   5.072   3.098   4.793 -0.3499 -0.1030 -0.1924
   70MOL   C13416832   4.914   2.763   4.679 -0.0249 -0.5207 -0.1041
   70MOL   C13516833   4.980   2.625   4.708 -0.1319  0.6906 -0.3522
   70MOL   C13616834   5.133   2.625   4.730  0.0468  0.1140 -0.8315
   70MOL   C13716835   4.914   2.559   4.834 -0.6615 -0.9077  0.5211
   70MOL   O13816836   4.831   2.619   4.900  0.3452  0.2540  0.3387
   70MOL   O13916837   4.955   2.429   4.859 -0.3135 -0.4366 -0.1027
   70MOL   H14016838   4.807   2.746   4.696  0.0328 -0.8760 -0.0891
   70MOL   H14116839   4.913   2.777   4.571 -2.6306 -0.7091 -0.1564
   70MOL   H14216840   5.167   2.703   4.797 -0.5395 -0.5039  0.2079
   70MOL   H14316841   5.182   2.666   4.641  0.7465  0.4476 -0.2904
   70MOL   H14416842   5.165   2.524   4.756 -0.3232  0.2430  0.1535
   70MOL   H14516843   5.006   2.380   4.796  0.5722  0.1478  0.1576
   70MOL   C14616844   4.965   2.525   4.588  0.0544 -0.0576  0.0788
   70MOL   C14716845   4.839   2.482   4.505  0.1484  0.1976  0.2367
   70MOL   C14816846   4.904   2.377   4.411  0.0495  0.0674 -0.1902
   70MOL   C14916847   4.735   2.408   4.598 -0.0475  0.4453 -0.2830
   70MOL   O15016848   4.729   2.285   4.603  0.5323  0.0187  0.0682
   70MOL   O15116849   4.652   2.491   4.662  0.1555 -0.1238 -0.6457
   70MOL   H15216850   5.028   2.570   4.511  0.9051  1.4989  1.6435
   70MOL   H15316851   5.019   2.435   4.616 -0.0180  0.2574  1.2770
   70MOL   H15416852   4.825   2.333   4.350 -1.3087  1.6539  0.3763
   70MOL   H15516853   4.946   2.293   4.466  2.4794  0.8676 -0.7752
   70MOL   H15616854   4.977   2.425   4.346  2.9514 -0.3859  2.6262
   70MOL   H15716855   4.589   2.436   4.705  2.8138 -0.5795  2.8540
   70MOL   C15816856   4.776   2.597   4.427 -0.5688 -0.1833  0.3196
   70MOL   C15916857   4.700   2.585   4.287 -0.4661 -0.5003  0.4073
   70MOL   C16016858   4.642   2.729   4.270  0.4442  0.1773  0.2004
   70MOL   C16116859   4.802   2.560   4.173 -0.6940  0.0989  0.8394
   70MOL   O16216860   4.803   2.458   4.105  0.3805 -0.2897  0.8217
   70MOL   O16316861   4.883   2.671   4.167  0.4007 -0.1066  0.1001
   70MOL   H16416862   4.711   2.649   4.498 -1.0362  0.7775 -0.7840
   70MOL   H16516863   4.855   2.671   4.415 -1.9489  1.4944  1.2927
   70MOL   H16616864   4.594   2.761   4.178 -1.9552  1.3540  1.7916
   70MOL   H16716865   4.724   2.801   4.276 -0.4097  1.2119 -0.2760
   70MOL   H16816866   4.578   2.743   4.357 -1.2157  0.2900 -1.0207
   70MOL   H16916867   4.958   2.663   4.109  1.3486  1.2849  1.1020
   70MOL   C17016868   4.585   2.478   4.298  0.8592 -0.5530  0.4322
   70MOL   C17116869   4.455   2.474   4.211  0.9936 -0.1415  0.1771
   70MOL   C17216870   4.359   2.585   4.261  0.4543 -0.3545  0.0519
   70MOL   C17316871   4.471   2.508   4.060 -0.0773  0.3120  0.2686
   70MOL   O17416872   4.438   2.619   4.015 -0.0467 -0.6457  0.3957
   70MOL   O17516873   4.533   2.409   3.997  0.2957 -0.7377  0.4074
   70MOL   H17616874   4.634   2.386   4.266  1.1787 -0.1588 -0.2248
   70MOL   H17716875   4.551   2.478   4.402 -2.4469 -0.7079 -0.6077
   70MOL   H17816876   4.408   2.680   4.246  1.1209 -0.9188 -1.4030
   70MOL   H17916877   4.333   2.571   4.366  1.2846  1.1763  0.4653
   70MOL   H18016878   4.265   2.588   4.205  0.8570 -0.9042 -0.6616
   70MOL   H18116879   4.566   2.434   3.912  0.7459  1.3784  1.1804
   70MOL   C18216880   4.393   2.335   4.236 -0.3670 -0.8105  0.0869
   70MOL   C18316881   4.251   2.290   4.182  0.0078 -0.2905 -0.0169
   70MOL   C18416882   4.125   2.368   4.239  0.0620  0.3459  0.0368
   70MOL   C18516883   4.241   2.295   4.028 -0.0364 -0.1865 -0.0237
   70MOL   O18616884   4.172   2.375   3.967  0.7152 -0.6782 -0.0495
   70MOL   O18716885   4.330   2.213   3.967  0.4929 -0.3972  0.2353
   70MOL   H18816886   4.463   2.259   4.200 -0.0028  0.0586 -1.0632
   70MOL   H18916887   4.391   2.325   4.344 -0.6637  1.8045  0.3563
   70MOL   H19016888   4.154   2.402   4.339  2.1341  2.0930 -1.1089
   70MOL   H19116889   4.030   2.317   4.250 -1.3974  2.9618  0.0785
   70MOL   H19216890   4.105   2.454   4.175  1.3798 -0.4659 -1.4857
   70MOL   H19316891   4.330   2.225   3.873  1.7583 -1.0786  0.1315
   70MOL   C19416892   4.222   2.137   4.220 -0.1826  0.1060  0.0636
   70MOL   C19516893   4.234   2.064   4.358 -0.4370 -0.4353 -0.5794
   70MOL   C19616894   4.386   2.049   4.404 -1.0320  0.1003  0.3343
   70MOL   C19716895   4.146   2.136   4.467  0.2050  0.2960 -0.1227
   70MOL   O19816896   4.194   2.192   4.567 -0.2251  0.3057  0.3757
   70MOL   O19916897   4.017   2.139   4.429 -0.0273  0.0296 -0.0025
   70MOL   H20016898   4.120   2.119   4.185 -0.2307 -1.1933  0.8590
   70MOL   H20116899   4.285   2.072   4.160  0.4246  0.2223  0.5738
   70MOL   H20216900   4.410   1.945   4.429 -2.6837 -0.4637 -0.3559
   70MOL   H20316901   4.417   2.121   4.480  0.4056  0.7703 -0.8633
   70MOL   H20416902   4.452   2.071   4.320 -0.2707 -0.3916  0.7981
   70MOL   H20516903   3.961   2.191   4.484 -4.4218 -2.4437 -1.9214
   70MOL   C20616904   4.185   1.910   4.338  0.0728  0.0479 -0.5554
   70MOL   C20716905   4.154   1.805   4.459 -0.4583 -0.0800 -0.5382
   70MOL   C20816906   4.244   1.824   4.595 -0.0642 -0.3405  0.3397
   70MOL   C20916907   4.001   1.819   4.504 -0.1114 -0.3016  0.0162
   70MOL   O21016908   3.964   1.854   4.615 -0.0483  0.0232  0.4925
   70MOL   O21116909   3.910   1.785   4.410 -0.6379 -0.0704  0.1831
   70MOL   H21216910   4.097   1.915   4.276 -0.4526  0.4766  0.2178
   70MOL   H21316911   4.257   1.862   4.271 -0.3995 -2.3053  0.5365
   70MOL   H21416912   4.260   1.930   4.612  0.5352 -0.3549 -0.0829
   70MOL   H21516913   4.343   1.783   4.572  0.1748 -0.8928  2.2801
   70MOL   H21616914   4.199   1.777   4.682  0.9842 -0.0778  1.0324
   70MOL   H21716915   3.825   1.799   4.449 -1.2160  0.7220 -1.3264
   70MOL   C21816916   4.171   1.669   4.404 -0.4332  0.3595  0.2388
   70MOL   C21916917   4.163   1.525   4.482  0.0209  0.4682 -1.1962
   70MOL   C22016918   4.025   1.516   4.560 -0.5069  0.3288  0.1786
   70MOL   C22116919   4.158   1.408   4.381  0.2717  0.6740  0.3007
   70MOL   O22216920   4.086   1.307   4.386  0.6122 -0.3714  0.6605
   70MOL   O22316921   4.259   1.431   4.294  0.2881  0.4305 -0.7862
   70MOL   H22416922   4.120   1.654   4.309  2.3742 -3.2109 -0.7922
   70MOL   H22516923   4.276   1.669   4.376 -0.1211  0.9364  1.3549
   70MOL   H22616924   3.944   1.550   4.496  0.6421  1.7477 -0.5581
   70MOL   H22716925   4.027   1.567   4.657  1.1792  0.9203 -0.1525
   70MOL   H22816926   4.009   1.414   4.596 -0.1891  0.2807  0.1854
   70MOL   H22916927   4.278   1.348   4.254  0.5272  0.2510 -0.3033
   70MOL   C23016928   4.287   1.500   4.574 -0.3737 -0.4550 -0.4324
   70MOL   C23116929   4.311   1.357   4.634 -0.7430 -0.3281  0.2106
   70MOL   C23216930   4.460   1.349   4.677  0.1625  0.2183 -0.0635
   70MOL   C23316931   4.221   1.304   4.742  0.3260  0.3785  0.6297
   70MOL   O23416932   4.213   1.184   4.753 -0.4496 -0.3058  0.2176
   70MOL   O23516933   4.172   1.397   4.827 -0.3104  0.4937  0.1943
   70MOL   H23616934   4.369   1.519   4.506 -1.9592  1.0234 -1.9956
   70MOL   H23716935   4.301   1.581   4.646  0.2391 -1.0892  0.1743
   70MOL   H23816936   4.488   1.253   4.721  2.5440  1.0258  0.2717
   70MOL   H23916937   4.498   1.433   4.736  1.8242 -1.1596  0.8653
   70MOL   H24016938   4.522   1.350   4.588  1.4508  1.3548  0.8213
   70MOL   H24116939   4.124   1.358   4.898 -1.6649  1.0400 -0.4066
   70MOL   H24216940   4.304   1.273   4.564 -0.3433 -0.7150  0.6407
   71MOL     C116941   3.780   2.160   3.917  0.7806  0.8428  0.0737
   71MOL     C216942   3.758   2.034   4.008  0.1954 -0.5513 -0.3153
   71MOL     C316943   3.884   2.023   4.103  0.3648  0.2854  0.0205
   71MOL     C416944   3.633   2.062   4.090  0.6544 -0.2479 -0.3570
   71MOL     O516945   3.619   2.022   4.203  0.3712  0.5743  0.0570
   71MOL     O616946   3.536   2.117   4.015 -0.5161 -0.8511 -0.3007
   71MOL     H716947   3.719   2.152   3.827  1.8736 -1.9110 -0.4909
   71MOL     H816948   3.884   2.178   3.887  1.0074  0.3045  0.5205
   71MOL     H916949   3.867   1.954   4.186 -0.1894 -2.1157 -2.0137
   71MOL    H1016950   3.902   2.117   4.155 -0.5805  1.0639 -1.0338
   71MOL    H1116951   3.978   2.000   4.053 -0.3061 -2.1199 -0.2348
   71MOL    H1216952   3.453   2.098   4.055 -0.1059  0.5428  1.2882
   71MOL    H1316953   3.745   2.253   3.961  1.4453  0.8071  0.6924
   71MOL    C1416954   3.715   1.904   3.933 -0.4309  0.7740  0.6202
   71MOL    C1516955   3.810   1.809   3.853  0.1792  0.4525  0.0508
   71MOL    C1616956   3.909   1.897   3.774  0.6683 -0.0633  0.0999
   71MOL    C1716957   3.890   1.704   3.938 -0.2397  0.4398  0.0099
   71MOL    O1816958   3.863   1.682   4.052  0.5411  0.0403 -0.5555
   71MOL    O1916959   3.982   1.641   3.870  0.2966 -0.3402 -0.7019
   71MOL    H2016960   3.646   1.840   3.987 -0.3623  1.1920  1.2018
   71MOL    H2116961   3.639   1.930   3.859  0.4338  0.4987 -0.3864
   71MOL    H2216962   3.973   1.841   3.706  1.3032 -0.2035  0.8043
   71MOL    H2316963   3.966   1.966   3.837 -0.7234  1.7284 -0.5680
   71MOL    H2416964   3.852   1.961   3.707  1.4205 -0.4266 -0.8994
   71MOL    H2516965   4.037   1.586   3.924 -1.5029  0.2114  1.8085
   71MOL    C2616966   3.735   1.730   3.733 -1.3778 -0.3025 -0.6604
   71MOL    C2716967   3.628   1.622   3.748 -0.3775  0.4180  0.5694
   71MOL    C2816968   3.665   1.527   3.866 -0.3858  0.4587 -0.3413
   71MOL    C2916969   3.498   1.704   3.775 -0.1503  0.4137 -0.6605
   71MOL    O3016970   3.438   1.689   3.875  0.7177 -0.4813  0.0371
   71MOL    O3116971   3.462   1.784   3.671 -0.2499 -0.0147 -0.1395
   71MOL    H3216972   3.697   1.805   3.665 -0.9393 -0.2725 -0.8753
   71MOL    H3316973   3.817   1.679   3.682  0.7946  1.5889  0.8452
   71MOL    H3416974   3.767   1.488   3.859 -0.1497  0.9652  0.1852
   71MOL    H3516975   3.598   1.442   3.877  2.8182 -2.0936  0.2410
   71MOL    H3616976   3.640   1.583   3.957  0.6176  1.8261 -0.8874
   71MOL    H3716977   3.370   1.804   3.682 -0.0111  1.1760 -0.2692
   71MOL    C3816978   3.616   1.539   3.615  0.1058 -0.1177  0.0319
   71MOL    C3916979   3.502   1.435   3.580 -0.0797 -0.1091  0.4645
   71MOL    C4016980   3.416   1.385   3.702  0.0404 -0.4086  0.1669
   71MOL    C4116981   3.396   1.503   3.480 -0.5843  0.4762 -0.0704
   71MOL    O4216982   3.404   1.614   3.434 -0.7175 -0.1770  0.0545
   71MOL    O4316983   3.297   1.423   3.447  0.4521 -0.5523  0.8006
   71MOL    H4416984   3.627   1.613   3.536 -0.7455  0.4758  0.4579
   71MOL    H4516985   3.709   1.484   3.603  0.4875  0.2176  1.3834
   71MOL    H4616986   3.472   1.325   3.774  2.6760 -0.3316 -1.7269
   71MOL    H4716987   3.324   1.331   3.680  0.9114 -1.3851 -1.1662
   71MOL    H4816988   3.374   1.466   3.762  0.9267  1.4721 -1.6568
   71MOL    H4916989   3.236   1.473   3.395  1.4622 -1.8487 -1.7028
   71MOL    C5016990   3.555   1.304   3.508  0.1516 -0.3323  0.2163
   71MOL    C5116991   3.629   1.309   3.372  0.6809  0.5075 -0.6127
   71MOL    C5216992   3.669   1.165   3.344 -0.6122 -0.4491  0.8659
   71MOL    C5316993   3.535   1.350   3.252 -0.2873 -0.4368 -0.2431
   71MOL    O5416994   3.534   1.464   3.206  0.8057 -0.1606 -0.0142
   71MOL    O5516995   3.438   1.261   3.226  0.3198 -0.2819 -0.6207
   71MOL    H5616996   3.603   1.242   3.584 -1.4326 -0.9104  0.7527
   71MOL    H5716997   3.464   1.245   3.502  1.3648 -2.3584  1.0640
   71MOL    H5816998   3.581   1.107   3.319 -0.2930 -0.7636  0.4804
   71MOL    H5916999   3.721   1.121   3.429 -0.2315  0.7594  1.2850
   71MOL    H6017000   3.731   1.160   3.255 -2.2494  1.6559 -0.4310
   71MOL    H6117001   3.391   1.310   3.160  1.5091  1.0661 -0.4937
   71MOL    C6217002   3.762   1.385   3.351 -0.6235 -0.4366 -0.3116
   71MOL    C6317003   3.902   1.343   3.406  0.1441 -0.3818  0.2823
   71MOL    C6417004   3.969   1.237   3.316 -0.3215  0.2679 -0.6785
   71MOL    C6517005   3.987   1.477   3.386  1.2241  0.4986 -0.9044
   71MOL    O6617006   4.074   1.495   3.301  0.0337  0.0386 -0.3377
   71MOL    O6717007   3.934   1.578   3.456  0.5399  0.3394  0.0250
   71MOL    H6817008   3.780   1.411   3.247 -1.4623  1.6795  0.0558
   71MOL    H6917009   3.737   1.483   3.391 -0.1246 -0.7699  0.8382
   71MOL    H7017010   3.936   1.252   3.213  0.6094  0.1768 -0.9976
   71MOL    H7117011   3.942   1.134   3.342  0.3177  0.4708  0.8374
   71MOL    H7217012   4.078   1.231   3.311 -0.2314 -0.0111  1.3068
   71MOL    H7317013   3.966   1.664   3.430 -1.2081  0.9985 -0.0182
   71MOL    C7417014   3.903   1.309   3.557 -0.2387 -0.2722 -0.1050
   71MOL    C7517015   4.020   1.232   3.629  0.5728 -0.5551 -0.5585
   71MOL    C7617016   3.974   1.088   3.643  0.2649  0.7806 -0.5806
   71MOL    C7717017   4.157   1.247   3.567 -0.7285 -1.1654 -0.4789
   71MOL    O7817018   4.221   1.149   3.519 -0.8113 -0.3026  0.1002
   71MOL    O7917019   4.202   1.380   3.574  0.1685 -0.1273 -0.6916
   71MOL    H8017020   3.898   1.400   3.617  0.1705  0.9673 -1.9111
   71MOL    H8117021   3.810   1.253   3.573 -0.4211 -0.3709 -1.4814
   71MOL    H8217022   3.893   1.085   3.716 -0.4701  2.6603 -1.3061
   71MOL    H8317023   4.061   1.023   3.651 -0.0310  0.3217 -1.0378
   71MOL    H8417024   3.931   1.058   3.548  1.3843 -0.2002 -0.7901
   71MOL    H8517025   4.276   1.390   3.516  1.2398  0.3844  0.7456
   71MOL    C8617026   4.034   1.285   3.778  0.5103 -0.3520  0.5971
   71MOL    C8717027   4.124   1.213   3.888  0.0137  0.0804 -0.4208
   71MOL    C8817028   4.124   1.309   4.013  0.1499  0.2062 -0.5022
   71MOL    C8917029   4.058   1.088   3.940 -0.1909 -0.3140  0.7922
   71MOL    O9017030   4.110   0.977   3.936 -0.3069  0.2519 -0.0205
   71MOL    O9117031   3.930   1.106   3.980 -0.2938 -0.6923  0.1038
   71MOL    H9217032   4.068   1.388   3.779  0.7061 -0.4121  0.1034
   71MOL    H9317033   3.929   1.286   3.808 -0.5244  1.0421 -2.7884
   71MOL    H9417034   4.171   1.261   4.099  1.0268  0.9811 -0.5458
   71MOL    H9517035   4.030   1.347   4.054 -0.3920 -1.3717 -0.2114
   71MOL    H9617036   4.185   1.397   3.996 -1.3370  1.4230  0.3212
   71MOL    H9717037   3.907   1.021   4.015  0.6096 -0.0631  2.3203
   71MOL    C9817038   4.274   1.188   3.835 -0.7746 -0.3302 -0.5989
   71MOL    C9917039   4.409   1.153   3.920  1.1969 -1.2540 -0.3251
   71MOL   C10017040   4.506   1.081   3.826 -0.3487  0.7638 -0.5951
   71MOL   C10117041   4.466   1.289   3.968  0.0902 -0.1058 -0.2566
   71MOL   O10217042   4.545   1.349   3.896  0.3519  0.3222 -0.0688
   71MOL   O10317043   4.413   1.341   4.079  0.1934 -0.3165 -0.0376
   71MOL   H10417044   4.256   1.111   3.760 -0.6534 -1.1916  0.2462
   71MOL   H10517045   4.311   1.280   3.790  1.1257  0.3269  2.2107
   71MOL   H10617046   4.611   1.091   3.854 -0.2367  2.2079 -1.4548
   71MOL   H10717047   4.494   1.110   3.721 -1.9501 -0.6857 -0.8369
   71MOL   H10817048   4.482   0.975   3.828  0.8517  0.5096  3.7854
   71MOL   H10917049   4.436   1.432   4.085 -2.8125  0.4801 -0.3098
   71MOL   C11017050   4.380   1.055   4.041 -0.0915 -0.4361  0.2160
   71MOL   C11117051   4.490   1.022   4.154  0.3870  0.0616  0.5753
   71MOL   C11217052   4.630   1.013   4.096  0.0138  0.1754  0.8289
   71MOL   C11317053   4.474   1.132   4.267 -0.0704 -0.2943  0.3007
   71MOL   O11417054   4.567   1.203   4.306  0.1770 -0.2300 -0.3592
   71MOL   O11517055   4.350   1.131   4.319 -0.1556  0.4464 -0.8956
   71MOL   H11617056   4.288   1.083   4.091 -1.1709 -3.3737 -0.0374
   71MOL   H11717057   4.348   0.964   3.990 -1.1005 -0.1820  0.3832
   71MOL   H11817058   4.630   0.936   4.018 -1.6423  1.0528 -0.0441
   71MOL   H11917059   4.713   0.986   4.161  1.1873 -0.6025 -0.9150
   71MOL   H12017060   4.656   1.111   4.057  0.4645 -0.5945 -0.8774
   71MOL   H12117061   4.359   1.186   4.396 -0.3238  0.6948 -1.0511
   71MOL   C12217062   4.457   0.882   4.209 -0.7902 -0.1436 -0.4479
   71MOL   C12317063   4.499   0.817   4.353  0.1233  0.9716 -0.2541
   71MOL   C12417064   4.640   0.863   4.391  0.3068 -0.0404 -0.3191
   71MOL   C12517065   4.408   0.863   4.469 -0.2893  0.0540  0.4939
   71MOL   O12617066   4.440   0.850   4.586  0.1905  0.7075  0.4153
   71MOL   O12717067   4.281   0.897   4.431  0.2590 -0.2432  0.0395
   71MOL   H12817068   4.352   0.857   4.190 -0.5382 -0.9229 -0.8645
   71MOL   H12917069   4.505   0.814   4.138  0.1978 -1.0406  1.0625
   71MOL   H13017070   4.684   0.797   4.466 -1.1691  0.4579  1.0052
   71MOL   H13117071   4.644   0.969   4.416  1.4999 -0.0232 -0.5647
   71MOL   H13217072   4.710   0.841   4.310 -0.2832  0.5153 -0.9874
   71MOL   H13317073   4.220   0.909   4.503  0.7843 -1.1386  0.6574
   71MOL   C13417074   4.511   0.658   4.352  0.0863  0.3425 -0.1430
   71MOL   C13517075   4.394   0.564   4.314 -0.0746  1.1445 -0.4142
   71MOL   C13617076   4.282   0.578   4.412 -0.1785 -0.3079 -0.7380
   71MOL   C13717077   4.348   0.580   4.166 -0.5419  0.3288 -0.9736
   71MOL   O13817078   4.429   0.598   4.080 -0.6239  0.6832  0.1027
   71MOL   O13917079   4.222   0.536   4.140 -0.8554  0.6008 -0.1327
   71MOL   H14017080   4.598   0.630   4.293 -0.7666 -0.0290 -1.2434
   71MOL   H14117081   4.527   0.622   4.454 -2.5827 -0.8392 -0.0945
   71MOL   H14217082   4.314   0.602   4.514 -2.6027  1.9783 -0.4467
   71MOL   H14317083   4.202   0.504   4.419 -0.2486 -0.2573 -1.0020
   71MOL   H14417084   4.222   0.658   4.368 -0.3162 -0.4310 -0.7728
   71MOL   H14517085   4.207   0.557   4.049 -0.7048 -2.6199 -0.9549
   71MOL   C14617086   4.442   0.412   4.324  0.2054  0.9687 -0.2938
   71MOL   C14717087   4.536   0.349   4.434  0.2056  0.5613  0.0607
   71MOL   C14817088   4.674   0.415   4.428  0.2612 -0.2210  0.3839
   71MOL   C14917089   4.476   0.361   4.577  1.0929 -0.6454  0.4366
   71MOL   O15017090   4.547   0.396   4.670 -0.0872  0.9449 -0.1398
   71MOL   O15117091   4.348   0.326   4.580  0.5095 -0.0446 -0.0454
   71MOL   H15217092   4.357   0.347   4.299  0.6266  0.6771 -0.9611
   71MOL   H15317093   4.505   0.399   4.236  2.1629  1.5580  0.9966
   71MOL   H15417094   4.700   0.420   4.323  0.5423  2.0676  0.5360
   71MOL   H15517095   4.755   0.353   4.469  0.7064 -0.0175 -0.1768
   71MOL   H15617096   4.687   0.509   4.481  0.5589  0.9243 -1.7158
   71MOL   H15717097   4.315   0.324   4.668  0.3233 -0.0187 -0.1138
   71MOL   C15817098   4.557   0.195   4.384 -0.0655  0.4464 -0.1100
   71MOL   C15917099   4.508   0.065   4.446  0.5061 -1.5799 -0.8817
   71MOL   C16017100   4.568   0.052   4.583 -0.0998 -0.4254 -0.4003
   71MOL   C16117101   4.354   0.059   4.464  0.6704  0.9712  0.4380
   71MOL   O16217102   4.311   0.004   4.565 -0.2963 -0.2667  0.1902
   71MOL   O16317103   4.270   0.118   4.371 -0.2088 -0.7621  0.2706
   71MOL   H16417104   4.517   0.189   4.283  1.1982 -2.1748 -0.4908
   71MOL   H16517105   4.661   0.171   4.362 -0.3749  0.0544 -1.1788
   71MOL   H16617106   4.543   7.721   4.622 -0.7711  0.9313  2.7611
   71MOL   H16717107   4.545   0.129   4.656 -0.7973 -0.3157 -0.7351
   71MOL   H16817108   4.676   0.054   4.571  0.0983 -0.7578  1.2642
   71MOL   H16917109   4.181   0.107   4.401 -0.5270  1.2757  0.1503
   71MOL   C17017110   4.549   7.706   4.367  0.3787  0.4796  0.4471
   71MOL   C17117111   4.538   7.681   4.215 -0.4372  0.1327 -0.6888
   71MOL   C17217112   4.576   7.531   4.206  0.7623  0.2024 -0.1287
   71MOL   C17317113   4.394   7.696   4.164 -0.4805  0.3769 -0.1672
   71MOL   O17417114   4.356   0.009   4.075 -0.5128 -0.0811 -0.2649
   71MOL   O17517115   4.314   7.609   4.224 -0.0542  0.3736 -0.0892
   71MOL   H17617116   4.642   7.675   4.415  0.2656  1.1280  1.0928
   71MOL   H17717117   4.490   7.626   4.414  0.7160 -0.3106 -0.4603
   71MOL   H17817118   4.519   7.467   4.273  1.9558  1.8557  2.5263
   71MOL   H17917119   4.681   7.536   4.235  1.2821  3.9438 -2.2507
   71MOL   H18017120   4.582   7.485   4.107 -0.3744  0.6909 -0.4356
   71MOL   H18117121   4.229   7.616   4.184 -0.8188 -2.6326  0.8377
   71MOL   C18217122   4.640   0.007   4.142  0.0342  0.1076 -0.1407
   71MOL   C18317123   4.730   7.746   4.016  0.0699 -0.0374  0.5877
   71MOL   C18417124   4.860   7.679   4.072 -0.3069 -0.0968 -0.0521
   71MOL   C18517125   4.690   7.651   3.900  0.3377 -0.2609  1.1750
   71MOL   O18617126   4.763   7.575   3.834  0.6784 -0.0711 -0.3079
   71MOL   O18717127   4.557   7.657   3.882 -0.1454  0.0352  0.3808
   71MOL   H18817128   4.578   0.091   4.112 -1.2040 -1.0496 -0.8855
   71MOL   H18917129   4.721   0.033   4.209  0.9837 -1.3338 -0.6979
   71MOL   H19017130   4.901   7.736   4.155 -0.6695  1.0490 -0.6559
   71MOL   H19117131   4.937   7.666   3.996 -0.8985  1.4093 -0.9362
   71MOL   H19217132   4.827   7.579   4.103  3.5134 -1.9378 -1.6461
   71MOL   H19317133   4.523   7.731   3.929  0.1270  0.5738 -0.2655
   71MOL   C19417134   4.783   0.114   3.961  0.8481  0.3816  1.2526
   71MOL   C19517135   4.717   0.212   3.859  0.1787 -0.1237  0.1408
   71MOL   C19617136   4.736   0.151   3.712 -0.0354 -0.2019  0.0381
   71MOL   C19717137   4.566   0.221   3.890 -0.3266 -0.0027 -0.1735
   71MOL   O19817138   4.489   0.150   3.834  0.0808  0.2425  0.1236
   71MOL   O19917139   4.534   0.299   3.995 -0.2146 -0.2505 -0.0418
   71MOL   H20017140   4.825   0.173   4.042  2.2025  1.3680 -0.1522
   71MOL   H20117141   4.874   0.088   3.907 -0.6097  0.4673 -1.3003
   71MOL   H20217142   4.686   0.062   3.675 -2.1443  0.9548  0.0461
   71MOL   H20317143   4.838   0.153   3.674 -1.0009 -0.4708 -2.6662
   71MOL   H20417144   4.699   0.226   3.643  0.9481  1.9789  1.8060
   71MOL   H20517145   4.442   0.315   3.977  0.2074 -0.3503 -2.3562
   71MOL   C20617146   4.776   0.355   3.877 -0.2759 -0.4351 -0.0898
   71MOL   C20717147   4.917   0.408   3.823  0.6945  0.2847  0.6934
   71MOL   C20817148   5.030   0.307   3.855 -0.3652  0.0798 -0.0346
   71MOL   C20917149   4.909   0.433   3.674  0.6844  0.7809  0.5351
   71MOL   O21017150   4.809   0.419   3.605  0.2307  0.6909 -0.0922
   71MOL   O21117151   5.029   0.470   3.620 -0.3286 -0.2463  0.0176
   71MOL   H21217152   4.705   0.411   3.816 -1.5075 -0.5140  1.2455
   71MOL   H21317153   4.773   0.390   3.980  0.1953  1.0512 -0.5751
   71MOL   H21417154   5.130   0.340   3.827 -0.4059  0.0032 -0.2695
   71MOL   H21517155   5.019   0.216   3.797  0.3690 -1.4773  2.2153
   71MOL   H21617156   5.037   0.272   3.958  1.0969  0.4285  0.0023
   71MOL   H21717157   5.034   0.477   3.526  2.0785 -1.0318  0.0616
   71MOL   C21817158   4.960   0.540   3.903  0.5006  0.2834  0.5029
   71MOL   C21917159   4.889   0.680   3.894 -0.1530 -0.4441 -1.0099
   71MOL   C22017160   4.834   0.720   3.756 -0.9643 -0.1101 -0.0592
   71MOL   C22117161   4.774   0.669   4.002  0.2440  0.5559  0.1115
   71MOL   O22217162   4.785   0.701   4.121 -0.0321 -0.5813 -0.0048
   71MOL   O22317163   4.661   0.633   3.935  0.6190  0.2427 -0.3314
   71MOL   H22417164   4.954   0.499   4.004  1.2899 -0.5560  0.2115
   71MOL   H22517165   5.066   0.557   3.888  0.4561 -0.5466 -0.8413
   71MOL   H22617166   4.912   0.727   3.680 -0.2621  1.7285  0.7961
   71MOL   H22717167   4.790   0.819   3.755  1.0444  0.8398  1.6678
   71MOL   H22817168   4.767   0.643   3.717  0.5879 -1.1522 -0.7513
   71MOL   H22917169   4.592   0.632   4.000  0.1849 -0.9504 -0.7879
   71MOL   C23017170   4.991   0.787   3.941  1.0233  0.5707 -0.3741
   71MOL   C23117171   4.953   0.932   3.948  0.9746  0.1002 -0.2370
   71MOL   C23217172   5.012   0.994   4.087 -0.8236 -0.2163  0.4410
   71MOL   C23317173   5.007   1.012   3.834  0.0885 -0.2751 -0.0197
   71MOL   O23417174   4.985   0.980   3.722  0.1084  1.1222  0.4084
   71MOL   O23517175   5.079   1.122   3.872  0.3625 -0.0514 -0.3319
   71MOL   H23617176   5.048   0.751   4.027 -0.3316  0.4496  0.4988
   71MOL   H23717177   5.077   0.787   3.875  1.6103 -1.4886  0.3329
   71MOL   H23817178   5.120   1.009   4.083 -1.0829  1.3551 -1.6570
   71MOL   H23917179   4.990   0.930   4.172  2.2491 -0.1226  1.3676
   71MOL   H24017180   4.970   1.094   4.101  1.6803  0.5106  3.0826
   71MOL   H24117181   5.119   1.164   3.797  2.5150 -2.6944 -0.7845
   71MOL   H24217182   4.844   0.933   3.949  0.9550 -0.3406 -1.1084
   72MOL     C117183   6.918   7.057   5.138  0.1689 -0.0849  0.5136
   72MOL     C217184   6.859   7.080   4.999  0.2478 -0.0169  0.5850
   72MOL     C317185   6.926   6.983   4.903 -0.4382 -0.1268  0.0807
   72MOL     C417186   6.708   7.051   4.998 -0.1023 -0.5448 -0.0054
   72MOL     O517187   6.651   6.990   4.916 -0.3606 -0.3276 -0.1278
   72MOL     O617188   6.646   7.115   5.102 -0.8583 -0.3088 -0.8046
   72MOL     H717189   6.868   7.109   5.220  1.5809  0.9261  0.7484
   72MOL     H817190   7.022   7.090   5.139  0.9446 -2.4279  0.0075
   72MOL     H917191   7.034   6.997   4.891 -0.8208  2.3005 -0.9309
   72MOL    H1017192   6.877   6.988   4.806 -1.1729  0.0822  0.4657
   72MOL    H1117193   6.914   6.880   4.935 -2.2347 -0.1930 -0.7775
   72MOL    H1217194   6.714   7.166   5.143  0.6750  0.6279 -4.3119
   72MOL    H1317195   6.911   6.953   5.172 -2.0201  0.2688  1.2398
   72MOL    C1417196   6.890   7.221   4.938 -0.1948  0.2623  0.0439
   72MOL    C1517197   6.821   7.362   4.963 -0.1146 -0.9018  0.3277
   72MOL    C1617198   6.683   7.360   4.887  0.2521  0.6728 -0.4467
   72MOL    C1717199   6.795   7.399   5.114  0.0817 -0.4569  0.1101
   72MOL    O1817200   6.823   7.330   5.213 -0.0248 -0.3102  0.2659
   72MOL    O1917201   6.735   7.518   5.123 -0.1230 -0.3295  0.1162
   72MOL    H2017202   6.993   7.228   4.970  0.3223 -1.0553 -1.2733
   72MOL    H2117203   6.881   7.205   4.830 -0.7590  3.3162 -0.4114
   72MOL    H2217204   6.650   7.462   4.868 -1.1357  0.4233  0.5667
   72MOL    H2317205   6.608   7.315   4.951  2.3787  0.0859  1.7134
   72MOL    H2417206   6.674   7.298   4.798  1.6131  0.8089 -0.6954
   72MOL    H2517207   6.726   7.537   5.215 -1.1688  0.5381 -0.1590
   72MOL    C2617208   6.910   7.482   4.905  0.2451  0.3016 -0.0741
   72MOL    C2717209   7.062   7.498   4.935 -0.2340  0.1868 -0.7181
   72MOL    C2817210   7.099   7.453   5.082  0.2773  0.0958  0.2678
   72MOL    C2917211   7.143   7.409   4.842 -0.1850  0.1172  0.3458
   72MOL    O3017212   7.097   7.357   4.741  0.0895 -0.1709 -0.1781
   72MOL    O3117213   7.277   7.412   4.860  0.5311 -0.9250 -0.0565
   72MOL    H3217214   6.899   7.482   4.796 -0.6047 -2.8489 -0.0517
   72MOL    H3317215   6.861   7.577   4.926  0.6864  0.2884  1.0262
   72MOL    H3417216   7.037   7.502   5.156 -2.1285 -0.8721 -1.0435
   72MOL    H3517217   7.202   7.471   5.112  0.2612 -0.0703  0.4295
   72MOL    H3617218   7.089   7.345   5.097  1.7661 -0.1034 -0.1018
   72MOL    H3717219   7.332   7.359   4.804  0.8777 -1.4620  0.7700
   72MOL    C3817220   7.112   7.642   4.926  0.6508  0.1000 -0.0358
   72MOL    C3917221   7.107   7.733   4.790  0.7328  0.0109  0.9265
   72MOL    C4017222   7.181   7.684   4.664  0.3810  0.6601 -0.1264
   72MOL    C4117223   6.955   7.748   4.750 -0.4320  0.8530  0.0525
   72MOL    O4217224   6.908   7.712   4.642  0.4234 -0.3225  0.3640
   72MOL    O4317225   6.891   0.064   4.840  0.4351 -0.5268 -0.3484
   72MOL    H4417226   7.083   7.707   5.008  1.4354  0.3583  0.0421
   72MOL    H4517227   7.216   7.629   4.954  0.7993  0.1707 -0.5535
   72MOL    H4617228   7.282   7.681   4.704 -0.4123  0.0251  1.9336
   72MOL    H4717229   7.163   7.746   4.577 -0.2903 -0.1000 -0.5351
   72MOL    H4817230   7.152   7.586   4.626 -0.5425  0.9176 -0.0950
   72MOL    H4917231   6.807   0.082   4.800  0.3294  1.5272  0.7519
   72MOL    C5017232   7.178   0.103   4.822 -0.2685  0.6469 -0.1888
   72MOL    C5117233   7.236   0.221   4.731 -0.8461 -0.1727 -0.3255
   72MOL    C5217234   7.367   0.173   4.653  0.2899  0.6322 -0.2467
   72MOL    C5317235   7.126   0.268   4.633  0.4920  0.8432  0.3254
   72MOL    O5417236   7.137   0.277   4.510 -0.8634  0.0900 -0.0935
   72MOL    O5517237   7.011   0.313   4.688  0.3378 -0.7357 -0.4242
   72MOL    H5617238   7.109   0.163   4.881  0.5243  1.4190 -0.0326
   72MOL    H5717239   7.251   0.078   4.900 -0.0926  1.1804 -0.1804
   72MOL    H5817240   7.439   0.250   4.628 -2.3816  3.1035 -0.5751
   72MOL    H5917241   7.339   0.118   4.563 -2.3001  0.2524  0.7352
   72MOL    H6017242   7.423   0.095   4.705 -1.4135 -1.5763 -1.6651
   72MOL    H6117243   6.949   0.350   4.627  0.1998 -1.2547 -0.6018
   72MOL    C6217244   7.279   0.338   4.825 -0.1278 -0.0911 -0.0048
   72MOL    C6317245   7.291   0.493   4.788  0.4177 -0.3671 -0.2036
   72MOL    C6417246   7.412   0.555   4.875  0.1785 -0.4340  0.2888
   72MOL    C6517247   7.325   0.519   4.636  0.3036  0.2282  0.0148
   72MOL    O6617248   7.237   0.552   4.553 -0.2905  0.2191  0.4446
   72MOL    O6717249   7.456   0.484   4.598 -0.1653 -0.1224  0.2211
   72MOL    H6817250   7.206   0.344   4.906  0.7334  0.6659  0.7202
   72MOL    H6917251   7.367   0.315   4.885  1.4969  2.4019 -1.3397
   72MOL    H7017252   7.420   0.661   4.851 -0.5080  0.1585  2.5029
   72MOL    H7117253   7.509   0.511   4.853  0.6142  1.1173 -0.9666
   72MOL    H7217254   7.403   0.532   4.981  3.4982 -2.0773  0.2539
   72MOL    H7317255   7.462   0.505   4.506  1.2920 -1.1269  0.0648
   72MOL    C7417256   7.159   0.578   4.832  1.0996  0.3485 -0.1588
   72MOL    C7517257   7.147   0.733   4.878 -0.4342  0.0051 -0.2597
   72MOL    C7617258   7.200   0.737   5.020 -0.2435  0.3377 -0.9045
   72MOL    C7717259   7.230   0.837   4.791  0.4920 -0.4413  0.0063
   72MOL    O7817260   7.274   0.813   4.678  0.5185  0.3664 -0.5784
   72MOL    O7917261   7.260   0.947   4.858 -0.1487 -0.0899 -0.0380
   72MOL    H8017262   7.096   0.569   4.743  1.3664 -0.0210 -0.3100
   72MOL    H8117263   7.115   0.516   4.911  1.8467  0.2005  0.1424
   72MOL    H8217264   7.188   0.831   5.073 -1.8027  1.3483 -2.9704
   72MOL    H8317265   7.308   0.719   5.022 -0.1338  0.9216 -1.2640
   72MOL    H8417266   7.149   0.671   5.090  1.9516  0.4773  0.9072
   72MOL    H8517267   7.307   1.000   4.795  0.5770 -3.4275 -2.4710
   72MOL    C8617268   7.002   0.786   4.894 -0.3687  0.4860 -0.1232
   72MOL    C8717269   6.890   0.774   4.783 -0.4327  0.5513  0.3502
   72MOL    C8817270   6.946   0.787   4.638 -0.1285  0.4125 -0.1506
   72MOL    C8917271   6.819   0.635   4.785 -0.1530 -0.2825 -0.0619
   72MOL    O9017272   6.853   0.542   4.862  0.0080 -0.2013 -0.6884
   72MOL    O9117273   6.722   0.633   4.686  0.0698 -0.3342 -0.0903
   72MOL    H9217274   6.954   0.748   4.984  1.3255  0.4460  0.7832
   72MOL    H9317275   7.018   0.892   4.914  1.7741 -0.0315  1.0757
   72MOL    H9417276   6.866   0.786   4.564 -1.0729 -0.4154  0.8669
   72MOL    H9517277   7.006   0.701   4.608 -0.2061  0.7150 -1.1886
   72MOL    H9617278   7.005   0.877   4.621  1.1932 -0.7670 -2.0495
   72MOL    H9717279   6.692   0.546   4.665  1.9148 -0.7681 -0.9839
   72MOL    C9817280   6.774   0.884   4.795 -0.4019  0.1718 -0.0997
   72MOL    C9917281   6.689   0.908   4.933 -0.3131 -0.6554  0.6689
   72MOL   C10017282   6.634   0.769   4.985 -0.2873  0.3069  0.0549
   72MOL   C10117283   6.773   0.977   5.047  0.0266  0.0587  0.3126
   72MOL   O10217284   6.771   0.936   5.162  0.0148 -0.2199  0.1198
   72MOL   O10317285   6.858   1.072   5.001  0.4582 -0.1993 -0.0884
   72MOL   H10417286   6.825   0.978   4.776 -1.0350  0.4823 -0.2801
   72MOL   H10517287   6.701   0.875   4.714 -0.7321  0.0086  0.2133
   72MOL   H10617288   6.575   0.720   4.908 -0.8101  2.3853 -0.9122
   72MOL   H10717289   6.563   0.777   5.067 -0.4199  2.6124 -0.2398
   72MOL   H10817290   6.717   0.701   5.006  0.0436  0.7482  0.1997
   72MOL   H10917291   6.908   1.129   5.058  1.4387 -1.5906  0.4611
   72MOL   C11017292   6.557   0.990   4.902  0.2775 -1.0577  0.2170
   72MOL   C11117293   6.535   1.143   4.883  0.3644 -0.0631  0.1428
   72MOL   C11217294   6.544   1.202   5.033 -0.0816  0.9824  0.3799
   72MOL   C11317295   6.639   1.206   4.796  0.5583 -0.3681 -0.5831
   72MOL   O11417296   6.689   1.311   4.823 -0.5910  0.1369 -0.0561
   72MOL   O11517297   6.672   1.134   4.684 -0.5743 -0.4717 -0.5877
   72MOL   H11617298   6.506   0.936   4.822 -1.4441 -1.1254  1.3269
   72MOL   H11717299   6.497   0.959   4.988  0.2804 -1.7852 -0.0407
   72MOL   H11817300   6.511   1.129   5.106 -2.9203 -0.3817 -2.1529
   72MOL   H11917301   6.479   1.289   5.043 -0.4553  1.0317 -2.1801
   72MOL   H12017302   6.648   1.227   5.057  0.1546  0.1480  0.2549
   72MOL   H12117303   6.722   1.188   4.626 -0.5776 -0.3754 -0.5009
   72MOL   C12217304   6.383   1.178   4.847 -0.3786 -0.1782  0.1743
   72MOL   C12317305   6.309   1.157   4.711  0.0322 -0.1459 -0.0409
   72MOL   C12417306   6.166   1.197   4.744  0.0597  0.0823 -0.2321
   72MOL   C12517307   6.364   1.258   4.605  0.8495  0.0934  0.1134
   72MOL   O12617308   6.316   1.365   4.563  0.1485 -0.1683  0.0614
   72MOL   O12717309   6.460   1.199   4.540  0.3057  0.2677 -0.1127
   72MOL   H12817310   6.318   1.147   4.930  0.3837 -0.0195  0.8398
   72MOL   H12917311   6.378   1.286   4.859  0.4893 -0.2694  1.6115
   72MOL   H13017312   6.173   1.298   4.784  3.6028 -0.8578  1.8210
   72MOL   H13117313   6.128   1.123   4.815 -1.2419 -0.7148 -1.7448
   72MOL   H13217314   6.100   1.217   4.660  3.1380  1.7465 -2.3499
   72MOL   H13317315   6.454   1.261   4.469  1.7594  1.5094  0.8009
   72MOL   C13417316   6.315   1.007   4.664 -0.1850 -0.2215  0.1843
   72MOL   C13517317   6.217   0.925   4.563 -0.3793  0.2284  0.4660
   72MOL   C13617318   6.106   0.857   4.640 -0.4966  0.4319 -0.1337
   72MOL   C13717319   6.156   1.024   4.462  0.1498 -0.7712 -0.0050
   72MOL   O13817320   6.035   1.046   4.453  0.4618 -0.1337  0.0155
   72MOL   O13917321   6.245   1.082   4.383 -0.2086  0.4925  0.4553
   72MOL   H14017322   6.418   0.978   4.641 -0.3593  0.3031 -1.2681
   72MOL   H14117323   6.304   0.959   4.762  0.4179 -0.3755  0.1795
   72MOL   H14217324   6.027   0.801   4.590 -1.9439  1.7176  0.6597
   72MOL   H14317325   6.045   0.934   4.688 -0.6889  1.1618 -1.5366
   72MOL   H14417326   6.147   0.795   4.720  1.2545 -0.0987 -1.4345
   72MOL   H14517327   6.198   1.135   4.320 -1.1411  0.7145  1.3214
   72MOL   C14617328   6.316   0.820   4.495  0.3809 -0.5045 -0.2517
   72MOL   C14717329   6.285   0.708   4.382 -0.0271  0.0903  0.2399
   72MOL   C14817330   6.154   0.641   4.431  0.1096 -0.2410 -0.5550
   72MOL   C14917331   6.259   0.772   4.239 -0.5023  0.4475 -0.8290
   72MOL   O15017332   6.284   0.887   4.205 -0.0577  0.0878  0.2107
   72MOL   O15117333   6.208   0.673   4.156 -0.1878 -0.0317 -0.8121
   72MOL   H15217334   6.396   0.876   4.446  1.4977  0.5609  2.6845
   72MOL   H15317335   6.362   0.771   4.580 -0.2984 -3.0452 -1.2891
   72MOL   H15417336   6.067   0.704   4.413  0.3228  0.4721  0.8114
   72MOL   H15517337   6.156   0.601   4.533  1.0062  1.2976  0.0518
   72MOL   H15617338   6.136   0.553   4.370 -1.4939  2.0756 -3.5532
   72MOL   H15717339   6.195   0.713   4.072  0.7501  0.6279 -0.6625
   72MOL   C15817340   6.401   0.594   4.385  0.2136  0.2698 -0.6753
   72MOL   C15917341   6.531   0.595   4.296  0.4324  0.7206  0.2783
   72MOL   C16017342   6.496   0.553   4.148 -0.4158  0.3912  0.5517
   72MOL   C16117343   6.595   0.732   4.309  0.4206 -0.0352  0.4790
   72MOL   O16217344   6.620   0.780   4.416  0.0916  0.4577 -0.4512
   72MOL   O16317345   6.610   0.806   4.193 -0.6285  0.3165  0.7966
   72MOL   H16417346   6.416   0.575   4.491 -1.0207  0.4965 -0.4544
   72MOL   H16517347   6.356   0.500   4.352 -1.0066  1.9369 -3.9498
   72MOL   H16617348   6.430   0.615   4.087 -1.7504 -1.4232  0.0841
   72MOL   H16717349   6.464   0.448   4.144  1.1828 -0.1321  1.4073
   72MOL   H16817350   6.584   0.562   4.085 -0.7534  1.9213  0.2617
   72MOL   H16917351   6.652   0.887   4.218  0.0656  0.4773 -0.8533
   72MOL   C17017352   6.641   0.497   4.355  0.1841  0.7767 -0.7132
   72MOL   C17117353   6.785   0.472   4.292 -0.2814  0.0276  0.6944
   72MOL   C17217354   6.831   0.590   4.208  0.6320  0.6194 -0.3548
   72MOL   C17317355   6.888   0.451   4.402 -0.1418  0.3625  1.0363
   72MOL   O17417356   6.859   0.437   4.519 -0.3821 -0.9075 -0.0794
   72MOL   O17517357   7.017   0.458   4.358  0.6536 -0.0326  0.2370
   72MOL   H17617358   6.646   0.524   4.460 -0.3274 -1.7358 -0.0000
   72MOL   H17717359   6.591   0.400   4.354 -0.9671  1.3048  1.3879
   72MOL   H17817360   6.876   0.675   4.259  0.2828  0.8995 -0.5111
   72MOL   H17917361   6.757   0.642   4.147  0.0443 -1.7855 -1.7751
   72MOL   H18017362   6.910   0.565   4.137 -1.0178  0.3165 -2.1273
   72MOL   H18117363   7.068   0.437   4.435  0.9939  0.6351  0.1995
   72MOL   C18217364   6.775   0.339   4.201 -0.4697 -0.6545 -0.7953
   72MOL   C18317365   6.769   0.189   4.242  0.0068  0.8913 -0.5775
   72MOL   C18417366   6.914   0.139   4.293 -0.1628 -0.3364  0.2630
   72MOL   C18517367   6.670   0.159   4.353 -0.0455 -0.6430 -0.0058
   72MOL   O18617368   6.563   0.104   4.341  0.1781 -0.0307  0.3864
   72MOL   O18717369   6.715   0.176   4.480  0.0290 -0.0584  0.0352
   72MOL   H18817370   6.683   0.353   4.145 -2.7699 -1.8272  2.4843
   72MOL   H18917371   6.860   0.342   4.133 -0.1661 -0.0181 -0.4007
   72MOL   H19017372   6.941   0.196   4.382 -0.1298  0.5787 -0.3203
   72MOL   H19117373   6.992   0.170   4.224 -0.2578  1.5346  0.9687
   72MOL   H19217374   6.917   0.032   4.309 -0.2257 -0.5319 -0.9703
   72MOL   H19317375   6.655   0.132   4.538  0.0247 -0.2061 -0.0826
   72MOL   C19417376   6.725   0.102   4.113 -0.0591 -0.2849 -0.3356
   72MOL   C19517377   6.791   0.094   3.966  0.6610 -0.4427  0.1237
   72MOL   C19617378   6.743   0.220   3.885 -0.7599  0.6127 -0.9645
   72MOL   C19717379   6.945   0.087   3.971 -0.1959 -0.5131  0.1604
   72MOL   O19817380   7.008   7.767   4.034 -0.5944 -0.2065 -0.6316
   72MOL   O19917381   7.009   0.187   3.900 -0.1544  0.8210  0.2545
   72MOL   H20017382   6.734   7.767   4.149  1.9217  0.2263  0.6511
   72MOL   H20117383   6.617   0.115   4.099 -0.0810 -0.0024  0.0937
   72MOL   H20217384   6.793   0.308   3.923  1.4612 -0.9825 -0.0531
   72MOL   H20317385   6.636   0.240   3.894 -1.1749 -0.5560 -2.8999
   72MOL   H20417386   6.769   0.215   3.779 -2.2488  1.2627 -1.3769
   72MOL   H20517387   6.949   0.249   3.862 -2.6696 -1.4271  0.4529
   72MOL   C20617388   6.722   7.739   3.891 -0.3642 -0.2042 -0.7720
   72MOL   C20717389   6.776   7.663   3.771 -0.4478 -0.2120 -0.0470
   72MOL   C20817390   6.833   7.756   3.659  0.8019  0.3293  0.0177
   72MOL   C20917391   6.876   7.556   3.812 -0.1602 -0.4618  0.1309
   72MOL   O21017392   6.974   7.524   3.742  0.5245  0.2087 -0.1638
   72MOL   O21117393   6.846   7.499   3.935  0.7327 -0.2351  0.2996
   72MOL   H21217394   6.695   7.663   3.963 -0.8093  0.7842  0.1161
   72MOL   H21317395   6.619   7.762   3.862 -0.7395 -2.3247 -1.2002
   72MOL   H21417396   6.905   0.051   3.713  1.2027 -1.4632  1.6016
   72MOL   H21517397   6.759   0.052   3.610  2.0463  1.2835 -0.6435
   72MOL   H21617398   6.888   7.701   3.583 -0.9806  0.1499 -1.1627
   72MOL   H21717399   6.903   7.424   3.945 -0.4716 -1.1836  0.0942
   72MOL   C21817400   6.646   7.598   3.708 -0.3531  0.3296  0.9979
   72MOL   C21917401   6.651   7.492   3.589 -0.5631  0.4093 -0.0966
   72MOL   C22017402   6.741   7.532   3.471 -0.0023 -1.0387 -0.4853
   72MOL   C22117403   6.703   7.346   3.632 -0.3799  0.2510  0.4017
   72MOL   O22217404   6.702   7.316   3.755 -0.5560 -0.0287  0.3737
   72MOL   O22317405   6.748   7.267   3.537  0.0122 -0.5674 -0.5015
   72MOL   H22417406   6.584   7.547   3.783 -1.4783  1.8583  1.1465
   72MOL   H22517407   6.584   7.684   3.681  0.0314  0.8392  1.7051
   72MOL   H22617408   6.743   7.469   3.382  1.4810 -2.1978  0.3521
   72MOL   H22717409   6.849   7.531   3.486 -0.0069 -0.3865 -0.3977
   72MOL   H22817410   6.721   7.637   3.447  1.1218 -0.8533 -0.6662
   72MOL   H22917411   6.782   7.184   3.566  0.9664  0.5620  1.7465
   72MOL   C23017412   6.514   7.472   3.523 -0.6947  0.3318  0.2496
   72MOL   C23117413   6.388   7.485   3.618  0.0191  0.4936 -0.0319
   72MOL   C23217414   6.261   7.495   3.536  0.1495  0.3315 -0.4904
   72MOL   C23317415   6.384   7.369   3.720  0.4737 -0.2312 -0.3855
   72MOL   O23417416   6.395   7.383   3.844 -0.3820 -0.1849 -0.4515
   72MOL   O23517417   6.357   7.249   3.660  0.2525  0.4588  0.1556
   72MOL   H23617418   6.500   7.543   3.441 -0.0882 -0.9696 -0.9983
   72MOL   H23717419   6.522   7.375   3.474  2.5039  1.1266 -0.9921
   72MOL   H23817420   6.235   7.399   3.492  1.6284 -0.4164  0.2194
   72MOL   H23917421   6.276   7.555   3.446 -2.6919  1.5180 -0.2328
   72MOL   H24017422   6.188   7.534   3.607  1.5929  0.2928  1.0665
   72MOL   H24117423   6.362   7.168   3.710  0.9267  0.1796 -0.3483
   72MOL   H24217424   6.398   7.581   3.669 -0.9279  0.1684  0.7852
   73MOL     C117425   6.238   0.084   6.157 -0.8375 -0.1189 -0.4572
   73MOL     C217426   6.269   7.746   6.043  0.3255  0.5263  0.3749
   73MOL     C317427   6.210   7.610   6.073  0.3290  0.0817  0.1023
   73MOL     C417428   6.199   0.028   5.912 -0.1205  0.2378 -0.0350
   73MOL     O517429   6.164   0.145   5.909 -0.1580 -0.6478  0.1459
   73MOL     O617430   6.209   7.709   5.810  0.0556  0.6017 -0.1075
   73MOL     H717431   6.240   0.040   6.257 -1.3885  0.3311 -0.2509
   73MOL     H817432   6.139   0.128   6.157 -0.9815 -0.4491 -0.5139
   73MOL     H917433   6.216   7.529   6.000 -2.4715 -0.1644  0.0833
   73MOL    H1017434   6.105   7.606   6.101  0.3012 -1.9902 -0.2086
   73MOL    H1117435   6.262   7.574   6.161 -2.1045  0.7232  1.8442
   73MOL    H1217436   6.173   7.732   5.726  0.0786 -0.9030 -0.5345
   73MOL    H1317437   6.315   0.162   6.159 -0.4904 -0.4661  1.6669
   73MOL    C1417438   6.423   7.714   6.019 -0.9003 -1.0342  0.4202
   73MOL    C1517439   6.528   0.072   5.997 -1.0647  0.4574  0.2428
   73MOL    C1617440   6.483   0.182   5.896  0.2557  0.0989  0.4426
   73MOL    C1717441   6.564   0.127   6.138  0.6230  0.4556 -0.1781
   73MOL    O1817442   6.563   0.059   6.244 -0.0058 -0.6108 -0.2772
   73MOL    O1917443   6.578   0.256   6.140 -0.0021 -0.6280  0.0463
   73MOL    H2017444   6.462   7.653   6.101  1.3999 -0.1823 -0.0086
   73MOL    H2117445   6.418   7.647   5.934  0.0106 -0.5263 -0.0418
   73MOL    H2217446   6.451   0.140   5.800  0.9454 -0.0761  0.2923
   73MOL    H2317447   6.567   0.247   5.874  0.6610  0.3424  2.5730
   73MOL    H2417448   6.402   0.248   5.927 -0.2151 -0.3206  0.1222
   73MOL    H2517449   6.592   0.309   6.218  2.2323  1.7890 -1.8933
   73MOL    C2617450   6.649   7.760   5.924  0.0038 -0.0041 -0.9754
   73MOL    C2717451   6.799   0.030   5.934 -0.1951 -0.3355 -0.1777
   73MOL    C2817452   6.836   0.175   5.900  0.6375  0.3833  0.7648
   73MOL    C2917453   6.854   0.012   6.080  0.6006  0.0923 -1.2656
   73MOL    O3017454   6.905   0.098   6.147 -0.0226 -0.5116 -0.4834
   73MOL    O3117455   6.838   7.650   6.127  0.6316 -0.0830 -0.0589
   73MOL    H3217456   6.636   7.657   5.959  1.3469 -0.5463 -2.0323
   73MOL    H3317457   6.629   7.762   5.817 -4.0328  0.2407 -0.2934
   73MOL    H3417458   6.771   0.245   5.953 -0.0173  0.6711 -0.3903
   73MOL    H3517459   6.809   0.206   5.799  1.0568 -2.6303 -0.3304
   73MOL    H3617460   6.941   0.196   5.919  1.2686 -1.8039 -0.1319
   73MOL    H3717461   6.898   7.638   6.199 -2.2202 -2.5461  2.0699
   73MOL    C3817462   6.874   7.700   5.832  0.4787 -0.6458  0.1687
   73MOL    C3917463   7.030   7.656   5.834  0.6110  0.0421 -0.6744
   73MOL    C4017464   7.067   7.645   5.690 -0.0741  0.3790  0.1783
   73MOL    C4117465   7.126   0.001   5.881  0.1095  1.0816  0.4573
   73MOL    O4217466   7.190   0.006   5.986  0.6662 -0.0485 -0.4516
   73MOL    O4317467   7.130   0.105   5.797 -0.0511 -0.2411 -0.0689
   73MOL    H4417468   6.823   7.605   5.846 -0.7079 -0.1247 -0.5928
   73MOL    H4517469   6.841   7.728   5.732  0.4269 -2.4581 -0.3453
   73MOL    H4617470   7.032   7.731   5.634  2.0386  0.4604 -1.0682
   73MOL    H4717471   7.018   7.560   5.642 -0.0551 -0.0481  0.9085
   73MOL    H4817472   7.175   7.646   5.675 -0.2282 -1.8843 -1.3122
   73MOL    H4917473   7.195   0.167   5.826 -0.2820 -0.6916  1.4620
   73MOL    C5017474   7.048   7.519   5.916  0.7933 -0.3298  0.3486
   73MOL    C5117475   7.185   7.436   5.952  0.9078  0.5037  0.3849
   73MOL    C5217476   7.287   7.439   5.834 -0.1729 -0.2965  0.3938
   73MOL    C5317477   7.250   7.493   6.082 -0.1585 -0.5500 -0.1717
   73MOL    O5417478   7.190   7.516   6.186  0.0117  0.2996 -0.2498
   73MOL    O5517479   7.385   7.507   6.067 -0.1144  0.2025  0.3772
   73MOL    H5617480   7.006   7.537   6.014  0.6321 -2.5058  0.6960
   73MOL    H5717481   6.987   7.442   5.870 -2.3215  2.2303  0.0271
   73MOL    H5817482   7.393   7.417   5.851 -0.3504 -2.2422 -0.8975
   73MOL    H5917483   7.297   7.546   5.813 -1.4013 -0.1327  0.6241
   73MOL    H6017484   7.253   7.388   5.744 -1.6705  0.3596  0.5699
   73MOL    H6117485   7.417   7.526   6.154 -1.3696  0.5439  0.7586
   73MOL    C6217486   7.134   7.286   5.972  0.5231 -0.1050  0.3280
   73MOL    C6317487   7.217   7.162   6.027 -0.4179  0.5578 -0.1603
   73MOL    C6417488   7.355   7.153   5.963 -0.0633 -0.1193  0.0258
   73MOL    C6517489   7.241   7.174   6.182 -0.7622  0.7007  0.4788
   73MOL    O6617490   7.347   7.201   6.241 -0.6299  0.5275  0.3474
   73MOL    O6717491   7.124   7.159   6.242  0.1151 -0.0651  0.2213
   73MOL    H6817492   7.048   7.295   6.038  0.3293  0.4368  0.0001
   73MOL    H6917493   7.090   7.261   5.876  1.3508  0.9807 -0.3497
   73MOL    H7017494   7.417   7.240   5.985 -2.4856  1.4778  0.6927
   73MOL    H7117495   7.359   7.133   5.856  1.1624  2.0067 -0.3513
   73MOL    H7217496   7.411   7.070   6.006  0.3968 -0.2471 -0.8158
   73MOL    H7317497   7.143   7.154   6.335  2.2876  0.8602 -0.1556
   73MOL    C7417498   7.135   7.031   6.008  0.0089  0.5948 -0.6088
   73MOL    C7517499   7.125   6.946   5.874 -0.8139  0.0642 -0.0332
   73MOL    C7617500   7.086   7.035   5.755  0.0369  0.2105  0.0305
   73MOL    C7717501   7.267   6.871   5.851  0.4058 -0.1073 -0.4782
   73MOL    O7817502   7.323   6.870   5.739  0.7204  0.2509  0.4512
   73MOL    O7917503   7.322   6.817   5.966  0.7486 -0.2184  0.1644
   73MOL    H8017504   7.161   6.961   6.087 -3.4174 -0.1739 -0.0745
   73MOL    H8117505   7.032   7.058   6.031 -0.6439 -2.2462 -0.0211
   73MOL    H8217506   6.995   7.090   5.779  0.5423  3.0258 -4.1678
   73MOL    H8317507   7.040   6.977   5.675 -1.3886  1.3545  0.0046
   73MOL    H8417508   7.158   7.103   5.709  1.8141 -1.5295  0.1661
   73MOL    H8517509   7.266   6.813   6.043 -0.8393  0.1636 -0.9482
   73MOL    C8617510   6.999   6.849   5.905 -0.0345  0.2665 -0.0086
   73MOL    C8717511   7.005   6.693   5.876 -0.0815 -0.2138 -0.3517
   73MOL    C8817512   7.049   6.674   5.733 -0.6115  0.1228  0.0282
   73MOL    C8917513   7.105   6.615   5.974 -0.4545  0.1824 -0.0546
   73MOL    O9017514   7.169   6.515   5.948 -0.0772  0.1438  0.1318
   73MOL    O9117515   7.119   6.675   6.094  0.4986  0.1259  0.1409
   73MOL    H9217516   6.961   6.873   6.005 -0.1146  0.0408  0.0142
   73MOL    H9317517   6.916   6.898   5.854  0.0681  2.0093  1.4246
   73MOL    H9417518   6.972   6.714   5.666 -0.8281 -0.2559  0.0434
   73MOL    H9517519   7.069   6.568   5.718 -2.6255 -0.3551  0.5263
   73MOL    H9617520   7.151   6.708   5.718 -0.0160 -0.8509  1.7348
   73MOL    H9717521   7.148   6.611   6.157  0.9090  0.8143  0.6586
   73MOL    C9817522   6.856   6.648   5.903 -0.8995 -0.0501  0.0701
   73MOL    C9917523   6.784   6.500   5.881 -0.8649 -0.8262  0.1208
   73MOL   C10017524   6.811   6.448   5.736 -0.6163 -0.1131  0.4489
   73MOL   C10117525   6.841   6.392   5.980  1.0808  0.1574 -0.0565
   73MOL   O10217526   6.897   6.417   6.087  0.3419 -0.0488 -0.2899
   73MOL   O10317527   6.808   6.267   5.935 -0.2044 -0.0791  0.1238
   73MOL   H10417528   6.833   6.675   6.006  2.4498 -2.1455  1.4653
   73MOL   H10517529   6.795   6.709   5.836 -0.7369 -0.9238 -0.8980
   73MOL   H10617530   6.907   6.397   5.731 -1.7627 -2.3135  0.1656
   73MOL   H10717531   6.797   6.527   5.662 -0.7217  0.4442  1.0616
   73MOL   H10817532   6.732   6.376   5.713  0.2197 -0.6943 -0.6724
   73MOL   H10917533   6.753   6.264   5.858  1.1127 -2.0588 -0.7685
   73MOL   C11017534   6.629   6.496   5.903  0.1272 -0.1785  0.2660
   73MOL   C11117535   6.556   6.565   6.028 -0.1310  0.5534  0.3597
   73MOL   C11217536   6.636   6.545   6.162 -0.2663  0.4821  0.0846
   73MOL   C11317537   6.560   6.716   6.000  0.5497  0.0097 -0.7393
   73MOL   O11417538   6.613   6.804   6.070  0.0895  0.6241  0.1055
   73MOL   O11517539   6.495   6.738   5.884  0.1556 -0.9462 -0.2408
   73MOL   H11617540   6.579   6.521   5.810  0.9010  2.1999  0.4664
   73MOL   H11717541   6.607   6.389   5.903  1.1032 -0.3892  0.6448
   73MOL   H11817542   6.660   6.441   6.184  1.0871  0.8921  0.6023
   73MOL   H11917543   6.591   6.595   6.248 -1.0957 -1.2230  0.6785
   73MOL   H12017544   6.729   6.601   6.151  0.9792 -1.6155 -0.5103
   73MOL   H12117545   6.490   6.832   5.874 -1.5640 -1.0538 -0.5458
   73MOL   C12217546   6.407   6.521   6.051 -0.5264  0.0536  0.4492
   73MOL   C12317547   6.298   6.602   6.130  0.3985  0.1335  0.3002
   73MOL   C12417548   6.194   6.509   6.197  0.4030 -0.1650  0.6467
   73MOL   C12517549   6.358   6.673   6.253 -0.6809 -0.1396 -0.3919
   73MOL   O12617550   6.383   6.794   6.268  0.7049 -0.0599 -0.0015
   73MOL   O12717551   6.384   6.585   6.352  0.2523  0.5382 -0.0922
   73MOL   H12817552   6.375   6.491   5.951  0.3200  1.8115 -0.3796
   73MOL   H12917553   6.418   6.429   6.109  0.7238 -0.8852 -1.2166
   73MOL   H13017554   6.135   6.460   6.119  1.0498 -1.3372  0.8832
   73MOL   H13117555   6.116   6.559   6.254  0.3187  0.7932 -0.2908
   73MOL   H13217556   6.238   6.435   6.263  0.1231 -0.6840  0.2602
   73MOL   H13317557   6.429   6.632   6.421 -1.1776 -1.0456  1.9574
   73MOL   C13417558   6.230   6.717   6.045 -0.4270 -0.2985  0.4305
   73MOL   C13517559   6.126   6.691   5.927 -0.2998  0.4216  0.5138
   73MOL   C13617560   6.196   6.593   5.833  0.3326  0.1928  0.0119
   73MOL   C13717561   5.991   6.636   5.966  0.3571  0.2065  0.0729
   73MOL   O13817562   5.939   6.635   6.079  0.2851  0.1052  0.4886
   73MOL   O13917563   5.922   6.582   5.861 -0.3158  0.3569 -0.0462
   73MOL   H14017564   6.177   6.780   6.115 -0.6389 -1.7069  1.5591
   73MOL   H14117565   6.306   6.783   6.001 -0.7628  0.7524  1.4168
   73MOL   H14217566   6.151   6.580   5.735  0.7401  0.4392 -0.2065
   73MOL   H14317567   6.181   6.490   5.866 -0.6616  0.2437 -0.2473
   73MOL   H14417568   6.298   6.610   5.801  0.9957 -2.2051  0.6877
   73MOL   H14517569   5.843   6.545   5.897  0.0133  1.1910  1.5931
   73MOL   C14617570   6.117   6.812   5.831 -0.0752  0.1599  0.0764
   73MOL   C14717571   6.017   6.935   5.854 -0.8139  0.4546 -0.2621
   73MOL   C14817572   5.867   6.887   5.858  0.1524 -0.2461  0.0800
   73MOL   C14917573   6.048   6.999   5.996 -0.3765  0.8031 -0.3932
   73MOL   O15017574   5.972   6.981   6.089 -0.5134  0.1155 -0.0423
   73MOL   O15117575   6.171   7.051   6.006  0.6268  0.2893 -0.0639
   73MOL   H15217576   6.221   6.844   5.824  0.3403 -1.5866 -2.4450
   73MOL   H15317577   6.091   6.776   5.731 -0.4146 -0.9759  0.5732
   73MOL   H15417578   5.861   6.828   5.766 -2.4472  0.0940  0.0138
   73MOL   H15517579   5.800   6.971   5.838  0.2983 -0.3762 -1.0081
   73MOL   H15617580   5.832   6.836   5.947  1.2056  0.0235  0.6631
   73MOL   H15717581   6.189   7.075   6.096 -1.6251  0.1347  0.4633
   73MOL   C15817582   6.026   7.032   5.730 -0.2384 -0.6323  0.6434
   73MOL   C15917583   6.007   7.193   5.729  0.1297 -0.3107 -0.4732
   73MOL   C16017584   5.867   7.220   5.794  0.3246 -0.3888 -0.0031
   73MOL   C16117585   6.123   7.263   5.813  0.0732  0.1818 -0.1769
   73MOL   O16217586   6.099   7.334   5.909 -0.1846 -0.1836  0.0170
   73MOL   O16317587   6.252   7.229   5.782 -0.0515  0.9709  0.6387
   73MOL   H16417588   6.114   7.008   5.670 -0.3103  1.5753 -0.3885
   73MOL   H16517589   5.965   6.988   5.652 -0.6702  1.1225 -0.0342
   73MOL   H16617590   5.787   7.178   5.733  0.2515  2.0982 -1.6545
   73MOL   H16717591   5.836   7.323   5.808 -0.0464 -0.1364 -2.5996
   73MOL   H16817592   5.867   7.186   5.898 -1.1157  2.5715  1.0213
   73MOL   H16917593   6.317   7.261   5.842  0.7753 -1.1739  0.9605
   73MOL   C17017594   6.017   7.253   5.591  0.2260 -0.7133  0.1079
   73MOL   C17117595   6.021   7.403   5.548 -0.1300  0.3845  0.3344
   73MOL   C17217596   5.953   7.407   5.410 -0.3308 -0.0900 -0.0105
   73MOL   C17317597   5.944   7.503   5.643  0.0703 -0.7522 -0.0408
   73MOL   O17417598   5.998   7.553   5.743  0.0516  0.4149 -0.1540
   73MOL   O17517599   5.811   7.524   5.613 -0.0661 -0.0017 -0.3329
   73MOL   H17617600   6.107   7.202   5.556  0.0621 -1.4410  0.7415
   73MOL   H17717601   5.927   7.214   5.545 -1.4226  1.9709  0.9656
   73MOL   H17817602   6.012   7.353   5.336  2.3245  2.4049  0.2076
   73MOL   H17917603   5.939   7.509   5.374  2.9533  0.2128 -0.5237
   73MOL   H18017604   5.851   7.370   5.395 -0.4571  0.3289 -0.2083
   73MOL   H18117605   5.765   7.571   5.681  1.7780  0.8191  0.3658
   73MOL   C18217606   6.174   7.459   5.517  0.2625  0.4452  0.4393
   73MOL   C18317607   6.213   7.582   5.422 -0.0403  0.3688  0.0697
   73MOL   C18417608   6.209   7.548   5.271 -0.6322  0.4420 -0.6521
   73MOL   C18517609   6.125   7.708   5.445 -0.3323 -0.3538 -0.5973
   73MOL   O18617610   6.113   7.760   5.549 -1.0442  0.2686 -0.3263
   73MOL   O18717611   6.054   7.751   5.339 -0.4352  0.4937  0.3007
   73MOL   H18817612   6.203   7.484   5.619  1.0015  0.0102  0.3369
   73MOL   H18917613   6.235   7.374   5.489 -0.4701  0.1994 -0.4086
   73MOL   H19017614   6.258   7.621   5.208  0.6813 -0.8987 -1.1981
   73MOL   H19117615   6.108   7.532   5.234 -0.7144  1.9388 -1.0827
   73MOL   H19217616   6.266   7.459   5.244  0.1889  0.1393  1.9561
   73MOL   H19317617   6.000   0.054   5.370  1.1361  1.9294 -0.0913
   73MOL   C19417618   6.359   7.632   5.465 -0.0195  0.0903  0.1476
   73MOL   C19517619   6.494   7.542   5.469 -0.4270  0.2866 -0.5797
   73MOL   C19617620   6.506   7.444   5.355 -0.1359  0.8987  0.3783
   73MOL   C19717621   6.612   7.641   5.456 -0.6098  0.5728 -0.6700
   73MOL   O19817622   6.700   7.629   5.367  0.4955 -0.9608 -0.4832
   73MOL   O19917623   6.617   7.729   5.561  0.2001 -0.0448  0.0989
   73MOL   H20017624   6.385   7.721   5.407 -0.9345  0.3925  0.1888
   73MOL   H20117625   6.359   7.671   5.567  0.1335 -0.9309  0.5402
   73MOL   H20217626   6.488   7.497   5.261 -0.1780  2.7799  1.4107
   73MOL   H20317627   6.427   7.371   5.370  0.2018  0.5794  0.6098
   73MOL   H20417628   6.601   7.394   5.339  0.4476  0.5157  4.5087
   73MOL   H20517629   6.685   0.027   5.557 -0.0964  0.2186 -0.7194
   73MOL   C20617630   6.511   7.468   5.615  0.0223 -0.3024 -0.0182
   73MOL   C20717631   6.614   7.344   5.642 -0.1190  0.2350 -0.4459
   73MOL   C20817632   6.762   7.372   5.610 -0.4424 -0.4530  0.0047
   73MOL   C20917633   6.605   7.313   5.794  0.9486 -0.1096 -0.0424
   73MOL   O21017634   6.494   7.318   5.850  0.2104 -0.4666  0.3373
   73MOL   O21117635   6.722   7.273   5.856 -0.0800  0.3414 -0.3701
   73MOL   H21217636   6.526   7.543   5.693  2.2286 -1.1806  0.4521
   73MOL   H21317637   6.414   7.428   5.643 -0.7251  1.7265  0.3896
   73MOL   H21417638   6.776   7.388   5.503 -0.2066  1.7436  0.3294
   73MOL   H21517639   6.834   7.295   5.638 -0.5870 -0.0460  1.5210
   73MOL   H21617640   6.792   7.465   5.658  0.7644 -0.5934 -0.4601
   73MOL   H21717641   6.691   7.247   5.942 -2.1111  1.7376 -0.6329
   73MOL   C21817642   6.570   7.212   5.557 -0.6433  1.2703 -0.4744
   73MOL   C21917643   6.610   7.059   5.591 -0.1465  0.5088  0.8651
   73MOL   C22017644   6.750   7.036   5.644  0.3915 -0.2346 -0.2238
   73MOL   C22117645   6.512   7.008   5.703 -0.1972 -0.2228 -0.4503
   73MOL   O22217646   6.544   6.996   5.827  0.9832 -0.4049  0.1423
   73MOL   O22317647   6.392   6.991   5.650 -0.0610  0.3342  0.2195
   73MOL   H22417648   6.462   7.214   5.547 -0.7331  1.2759  0.4580
   73MOL   H22517649   6.602   7.228   5.454 -1.7806  2.1266 -0.7062
   73MOL   H22617650   6.827   7.080   5.581  0.1783 -0.4210 -0.6241
   73MOL   H22717651   6.771   6.930   5.654  0.2708 -0.1097  1.4037
   73MOL   H22817652   6.775   7.068   5.744  2.4067  0.3432 -0.9022
   73MOL   H22917653   6.333   6.967   5.720  0.7042 -1.2197  0.3434
   73MOL   C23017654   6.590   6.978   5.455 -1.1175  0.2093 -0.0154
   73MOL   C23117655   6.639   6.830   5.445  0.2863 -0.0437  0.6445
   73MOL   C23217656   6.591   6.738   5.557  0.2484  0.0236 -0.0552
   73MOL   C23317657   6.593   6.770   5.308 -0.2729 -0.4181  0.7000
   73MOL   O23417658   6.486   6.707   5.300  0.1739 -0.1585 -0.3699
   73MOL   O23517659   6.669   6.818   5.207  0.0249 -0.0883 -0.4881
   73MOL   H23617660   6.488   6.994   5.420 -1.2258  0.8546  0.5973
   73MOL   H23717661   6.658   7.023   5.383 -1.9743  1.1458 -0.2463
   73MOL   H23817662   6.642   6.642   5.546  2.7735  1.5600 -2.5906
   73MOL   H23917663   6.485   6.718   5.541  0.3200 -0.6233  0.2504
   73MOL   H24017664   6.609   6.776   5.657  0.1226  1.0891 -0.4286
   73MOL   H24117665   6.624   6.790   5.129  0.1450  1.4277 -1.1180
   73MOL   H24217666   6.748   6.823   5.442  0.2774  0.2914 -0.5101
   74MOL     C117667   2.417   0.602   7.344  0.1825 -0.2163  0.4543
   74MOL     C217668   2.529   0.664   7.253 -0.2810 -0.2073  0.0058
   74MOL     C317669   2.500   0.817   7.251  0.1256 -0.4313 -0.0659
   74MOL     C417670   2.665   0.628   7.321  0.2931 -0.4177 -0.2470
   74MOL     O517671   2.762   0.705   7.322  0.1905 -0.0663  0.5424
   74MOL     O617672   2.673   0.506   7.371  0.2386 -0.1070 -0.1104
   74MOL     H717673   2.318   0.643   7.324  0.6219 -0.3824 -2.2118
   74MOL     H817674   2.430   0.608   7.452  0.6330 -1.3802  0.4750
   74MOL     H917675   2.492   0.850   7.355  3.2622  0.3252 -0.0027
   74MOL    H1017676   2.408   0.840   7.197 -1.1163 -1.3845  1.6012
   74MOL    H1117677   2.591   0.863   7.212  0.1120 -0.9059 -0.6743
   74MOL    H1217678   2.760   0.478   7.395  0.8144  1.4650 -0.3195
   74MOL    H1317679   2.402   0.498   7.313  2.2068 -0.5016  0.3255
   74MOL    C1417680   2.519   0.606   7.110  0.3804  0.0778 -0.3014
   74MOL    C1517681   2.584   0.466   7.063 -0.1382  0.1499 -0.1832
   74MOL    C1617682   2.543   0.461   6.913 -0.0888 -0.6120  0.4329
   74MOL    C1717683   2.742   0.477   7.062  0.0649 -0.2426  0.7935
   74MOL    O1817684   2.823   0.416   7.125  0.2540  0.5253 -0.7996
   74MOL    O1917685   2.775   0.584   6.982  0.1947 -0.2016 -0.6186
   74MOL    H2017686   2.414   0.607   7.078 -0.2823  1.0833  1.7993
   74MOL    H2117687   2.570   0.674   7.041 -0.0512 -1.0263 -1.7355
   74MOL    H2217688   2.565   0.369   6.859  0.9629  1.2311 -2.4316
   74MOL    H2317689   2.575   0.545   6.850 -0.2625 -0.8233  0.0610
   74MOL    H2417690   2.435   0.461   6.909 -0.1858  2.7602  1.3792
   74MOL    H2517691   2.866   0.611   6.980 -0.1060  0.8801 -0.1450
   74MOL    C2617692   2.528   0.339   7.134  0.0930 -0.4310  0.1576
   74MOL    C2717693   2.539   0.180   7.115 -0.4975  0.0694  0.1101
   74MOL    C2817694   2.427   0.131   7.015 -0.3340  0.9630  0.6286
   74MOL    C2917695   2.684   0.142   7.065 -0.3011  0.2772  1.2868
   74MOL    O3017696   2.776   0.113   7.140 -0.2058 -0.1895  0.5136
   74MOL    O3117697   2.696   0.157   6.927  0.3360 -0.8498 -0.0381
   74MOL    H3217698   2.564   0.361   7.235 -1.6750 -2.9766  1.4073
   74MOL    H3317699   2.420   0.351   7.128 -0.3976 -3.5193  1.6826
   74MOL    H3417700   2.326   0.165   7.036 -0.6234  0.9109 -0.6562
   74MOL    H3517701   2.424   0.022   7.005 -1.7974  1.1392 -0.9955
   74MOL    H3617702   2.452   0.155   6.912 -0.0791  0.4642  0.5710
   74MOL    H3717703   2.782   0.141   6.892 -0.3205  1.4238 -2.8191
   74MOL    C3817704   2.528   0.107   7.258 -0.0105 -0.2780  0.0747
   74MOL    C3917705   2.403   0.083   7.346  0.2277 -0.5891  0.2661
   74MOL    C4017706   2.320   7.736   7.269 -0.3376  0.1066 -0.4088
   74MOL    C4117707   2.458   0.019   7.475 -0.9352  0.3667  0.2770
   74MOL    O4217708   2.445   7.667   7.500 -0.4092 -0.0271  0.3030
   74MOL    O4317709   2.548   0.094   7.537 -0.4600 -0.0949  0.0825
   74MOL    H4417710   2.560   0.006   7.233  0.2295 -0.1295 -0.2290
   74MOL    H4517711   2.609   0.159   7.311 -0.1817  0.3143 -0.2339
   74MOL    H4617712   2.255   7.679   7.336 -0.2636  0.6504  0.1375
   74MOL    H4717713   2.383   7.655   7.234  1.2737  1.6486 -1.1241
   74MOL    H4817714   2.266   0.012   7.185  1.2135  0.9137 -0.9917
   74MOL    H4917715   2.578   0.041   7.609 -0.7792  0.5694  0.7150
   74MOL    C5017716   2.325   0.216   7.374 -0.1387 -0.1794 -0.1593
   74MOL    C5117717   2.185   0.233   7.453 -0.9693  0.1336  0.7055
   74MOL    C5217718   2.071   0.147   7.385  0.1986 -0.5559 -0.1062
   74MOL    C5317719   2.219   0.183   7.595 -0.1972  0.6241 -0.0991
   74MOL    O5417720   2.279   0.246   7.681  0.5736  0.3291 -0.2842
   74MOL    O5517721   2.158   0.059   7.625  0.1303  0.0233  0.0295
   74MOL    H5617722   2.394   0.295   7.404  1.6967 -2.7575  2.7555
   74MOL    H5717723   2.286   0.236   7.275 -0.8283 -2.1798 -0.3106
   74MOL    H5817724   2.090   0.044   7.356 -1.8364 -0.7353 -0.8475
   74MOL    H5917725   2.050   0.197   7.290  1.6503  1.1611  0.4262
   74MOL    H6017726   1.981   0.148   7.446  1.6240  1.8801  2.0884
   74MOL    H6117727   2.194   0.020   7.703  0.1063 -0.6213 -0.2863
   74MOL    C6217728   2.156   0.392   7.457 -0.3922  0.5500  0.0630
   74MOL    C6317729   2.014   0.448   7.504  0.2232  0.4111  0.0334
   74MOL    C6417730   2.035   0.597   7.473 -0.5421 -0.2795  0.3350
   74MOL    C6517731   1.897   0.398   7.415  1.0331  0.0004 -0.6607
   74MOL    O6617732   1.819   0.314   7.453 -0.3590  0.1655  0.1624
   74MOL    O6717733   1.895   0.463   7.293  0.0019 -0.5467 -0.1674
   74MOL    H6817734   2.232   0.445   7.513 -1.4631 -1.8878  4.0225
   74MOL    H6917735   2.159   0.429   7.354 -1.9023 -0.1163 -0.2389
   74MOL    H7017736   2.064   0.620   7.371  0.5112  0.2898  0.7507
   74MOL    H7117737   2.116   0.642   7.531 -1.5784  0.6690  1.0863
   74MOL    H7217738   1.945   0.659   7.479 -1.0750 -1.0563  0.5126
   74MOL    H7317739   1.827   0.421   7.242 -1.8077  0.0580  1.6468
   74MOL    C7417740   1.990   0.429   7.661 -0.1165 -0.3759  0.3039
   74MOL    C7517741   1.894   0.517   7.755  0.5234  0.0383  0.5035
   74MOL    C7617742   1.952   0.656   0.015 -1.2704 -0.2000 -0.7843
   74MOL    C7717743   1.760   0.553   7.678 -0.6887  0.3493 -0.1814
   74MOL    O7817744   1.743   0.658   7.622  0.4571 -0.3510  0.1882
   74MOL    O7917745   1.681   0.445   7.661  0.1739  1.0728 -0.1022
   74MOL    H8017746   1.958   0.325   7.671 -0.4934 -0.1280  1.7137
   74MOL    H8117747   2.087   0.451   7.705  0.0126 -0.8740  0.2753
   74MOL    H8217748   1.888   0.722   0.074  0.8774  2.4153 -1.2640
   74MOL    H8317749   1.987   0.713   7.696 -2.3463  0.7546 -0.6028
   74MOL    H8417750   2.042   0.634   0.072 -1.6307 -0.1757 -0.1945
   74MOL    H8517751   1.614   0.473   7.600  0.4486 -0.6674 -1.2724
   74MOL    C8617752   1.866   0.441   0.116 -0.1065 -0.1533  0.3294
   74MOL    C8717753   1.826   0.504   0.258  0.5004 -0.6282  0.0519
   74MOL    C8817754   1.796   0.375   0.336 -0.0700 -0.3290 -0.1742
   74MOL    C8917755   1.944   0.579   0.325  0.1069 -0.4725 -0.3871
   74MOL    O9017756   1.951   0.699   0.341  0.5077  0.2643  0.9630
   74MOL    O9117757   2.034   0.490   0.375 -0.5008 -0.0072  0.4797
   74MOL    H9217758   1.810   0.351   0.094  2.2629 -1.5816  0.0265
   74MOL    H9317759   1.961   0.392   0.137  0.0464 -0.7173 -1.6441
   74MOL    H9417760   1.694   0.337   0.328 -0.1404  0.2131 -2.0058
   74MOL    H9517761   1.815   0.388   0.443 -2.1805 -1.3043  0.3257
   74MOL    H9617762   1.865   0.296   0.306  1.5256  0.3820  1.4707
   74MOL    H9717763   2.104   0.535   0.420 -0.1996  0.5208 -0.5012
   74MOL    C9817764   1.692   0.593   0.244  0.5092  0.1304  0.8128
   74MOL    C9917765   1.615   0.657   0.365  0.7752 -0.2078 -0.3794
   74MOL   C10017766   1.620   0.566   0.491  0.0417  0.6363  0.3028
   74MOL   C10117767   1.682   0.790   0.409  0.2736 -1.1961  0.2520
   74MOL   O10217768   1.722   0.828   0.517  0.4345 -0.3430 -0.3165
   74MOL   O10317769   1.701   0.865   0.290  0.1962  0.0979 -0.1758
   74MOL   H10417770   1.704   0.659   0.157  0.3407 -2.7332 -1.4500
   74MOL   H10517771   1.622   0.523   0.198 -1.7283  1.4345  2.1412
   74MOL   H10617772   1.713   0.553   0.546 -0.7461  0.6771  1.6808
   74MOL   H10717773   1.582   0.469   0.459  1.0436  0.2691  0.2377
   74MOL   H10817774   1.551   0.601   0.569 -0.8641  1.8271 -1.0123
   74MOL   H10917775   1.737   0.949   0.314  0.3123 -0.3352  1.2439
   74MOL   C11017776   1.469   0.697   0.324  0.9779  0.4372 -0.0200
   74MOL   C11117777   1.349   0.604   0.287 -0.3004  0.1258 -0.1471
   74MOL   C11217778   1.374   0.534   0.152  0.0695 -0.2227 -0.7669
   74MOL   C11317779   1.330   0.488   0.388 -0.3770  0.4992 -0.1495
   74MOL   O11417780   1.326   0.371   0.356  0.3299  0.0459  0.3388
   74MOL   O11517781   1.321   0.537   0.519  0.3770  0.3318 -0.2764
   74MOL   H11617782   1.428   0.766   0.398  0.7487 -0.5291  0.7522
   74MOL   H11717783   1.469   0.753   0.230 -1.1946  1.5866  0.6406
   74MOL   H11817784   1.286   0.482   0.112 -0.0957 -1.5655  1.2969
   74MOL   H11917785   1.444   0.451   0.152 -2.2641 -2.2664  1.2158
   74MOL   H12017786   1.400   0.609   0.077 -0.8355  1.2935  0.3937
   74MOL   H12117787   1.304   0.465   0.578  1.6207 -0.2870 -0.6556
   74MOL   C12217788   1.210   0.679   0.285  0.4191  0.6024  0.3048
   74MOL   C12317789   1.174   0.814   0.214 -0.5998 -1.1740 -0.7941
   74MOL   C12417790   1.222   0.935   0.303 -0.0135  0.7215 -0.7038
   74MOL   C12517791   1.240   0.822   0.078 -0.0461 -0.5299  0.0923
   74MOL   O12617792   1.206   0.744   7.754  0.2044 -0.5019 -0.0569
   74MOL   O12717793   1.348   0.909   0.077  0.0319 -0.1609 -0.2783
   74MOL   H12817794   1.144   0.596   0.261  1.3197  0.7471 -2.9180
   74MOL   H12917795   1.184   0.692   0.389 -0.0030 -1.6836  0.5022
   74MOL   H13017796   1.204   1.034   0.261 -2.2189 -0.3983 -2.4857
   74MOL   H13117797   1.324   0.928   0.340 -0.1596  2.8315  0.2426
   74MOL   H13217798   1.167   0.941   0.398  2.7517  0.0701  0.9967
   74MOL   H13317799   1.402   0.894   0.001 -1.1829 -0.9238 -1.0022
   74MOL   C13417800   1.018   0.823   0.201  0.0467 -0.4069  0.1289
   74MOL   C13517801   0.922   0.946   0.161 -0.1424  0.2402 -0.1306
   74MOL   C13617802   0.790   0.878   0.128  0.3052 -0.3083  0.2471
   74MOL   C13717803   0.900   1.030   0.283 -0.2931 -0.4930  0.5513
   74MOL   O13817804   0.951   1.142   0.293 -0.2684  0.1190  0.1472
   74MOL   O13917805   0.821   0.983   0.384 -0.2338 -0.0232 -0.0905
   74MOL   H14017806   0.990   0.743   0.133 -2.4375  0.7084 -0.2272
   74MOL   H14117807   0.974   0.783   0.292 -0.9467  1.3081  0.4289
   74MOL   H14217808   0.705   0.943   0.110 -1.2972 -1.5711  2.9648
   74MOL   H14317809   0.761   0.809   0.208  1.0093  0.2686  1.0032
   74MOL   H14417810   0.799   0.823   0.034 -1.0930 -0.6590  0.3062
   74MOL   H14517811   0.793   1.059   0.433 -2.3871 -0.7138 -0.1848
   74MOL   C14617812   0.988   1.023   0.039  0.3987  0.1648 -0.1287
   74MOL   C14717813   0.913   1.114   7.701  0.4256  0.3415 -0.1333
   74MOL   C14817814   1.010   1.196   7.610  0.2313 -0.1665  0.0965
   74MOL   C14917815   0.847   1.017   7.597  0.2846 -0.1579 -0.7548
   74MOL   O15017816   0.726   0.987   7.584 -0.3524 -0.0436 -0.2745
   74MOL   O15117817   0.940   0.953   7.522 -0.1686  0.3835  0.2886
   74MOL   H15217818   1.077   1.072   0.078  1.1485 -1.0709 -0.2471
   74MOL   H15317819   1.031   0.951   7.736  1.2404  0.9915 -0.4733
   74MOL   H15417820   0.946   1.245   7.536 -0.0220 -2.1176 -1.0326
   74MOL   H15517821   1.087   1.131   7.567  3.1090  2.6596  0.7380
   74MOL   H15617822   1.069   1.260   7.675 -1.3579 -1.2304  2.6603
   74MOL   H15717823   0.900   0.907   7.449 -0.7464  0.7112  0.3895
   74MOL   C15817824   0.818   1.219   0.008  0.0496  0.4514  0.6010
   74MOL   C15917825   0.698   1.301   7.714 -0.7524  0.4952  0.6974
   74MOL   C16017826   0.732   1.351   7.568 -0.2581  0.3690 -0.3809
   74MOL   C16117827   0.568   1.222   7.704 -1.1141  0.4641 -0.1671
   74MOL   O16217828   0.476   1.244   7.625 -0.0094  0.4867  0.4507
   74MOL   O16317829   0.560   1.125   0.027  0.3570  0.1493 -0.4382
   74MOL   H16417830   0.788   1.183   0.106 -0.1595  2.7497  1.3927
   74MOL   H16517831   0.887   1.302   0.023 -0.3510  1.1193 -1.1664
   74MOL   H16617832   0.755   1.286   7.483 -0.3690 -0.3084  0.1013
   74MOL   H16717833   0.822   1.412   7.572 -0.1405  0.1207  0.7751
   74MOL   H16817834   0.646   1.411   7.538  0.1651  0.4625 -1.4206
   74MOL   H16917835   0.477   1.081   0.020  1.2393 -2.1304  2.3476
   74MOL   C17017836   0.667   1.430   0.034 -0.3446 -0.1334  0.0266
   74MOL   C17117837   0.669   1.448   0.189 -0.4904 -0.3859 -0.3716
   74MOL   C17217838   0.585   1.331   0.260 -0.1288  0.0712  0.7382
   74MOL   C17317839   0.817   1.443   0.243  0.4453  0.3348 -0.0026
   74MOL   O17417840   0.917   1.472   0.176 -0.2567  0.2026  0.3917
   74MOL   O17517841   0.823   1.403   0.372  0.6808  0.3658  0.6742
   74MOL   H17617842   0.738   1.508   0.006  0.8514 -1.1451  0.2043
   74MOL   H17717843   0.578   1.478   7.759 -1.1330 -1.8611 -0.3122
   74MOL   H17817844   0.641   1.237   0.255  2.6684  1.6671  0.8068
   74MOL   H17917845   0.488   1.313   0.215  0.4682 -1.9052  0.1793
   74MOL   H18017846   0.574   1.345   0.368  0.0200  0.1122  0.7488
   74MOL   H18117847   0.915   1.390   0.390  0.3382 -0.7567  1.6907
   74MOL   C18217848   0.619   1.595   0.219 -0.5385  0.1625 -0.3769
   74MOL   C18317849   0.464   1.626   0.227  0.3549 -0.5675 -0.4060
   74MOL   C18417850   0.372   1.575   0.114  0.3566 -0.7070 -0.4289
   74MOL   C18517851   0.412   1.568   0.363 -0.5890 -0.6282 -0.1475
   74MOL   O18617852   0.319   1.487   0.365 -0.1889 -0.1182 -0.3385
   74MOL   O18717853   0.479   1.607   0.478  0.1123  0.5762  0.3500
   74MOL   H18817854   0.664   1.632   0.311 -0.8263  0.3084 -0.2967
   74MOL   H18917855   0.669   1.663   0.149  2.0082 -1.3038 -0.0469
   74MOL   H19017856   0.417   1.595   0.017  0.0706  1.6332 -0.0965
   74MOL   H19117857   0.271   1.613   0.131  0.4830  0.4632 -2.1778
   74MOL   H19217858   0.361   1.467   0.104 -3.3144 -0.4196 -0.4267
   74MOL   H19317859   0.447   1.561   0.554  0.5752 -2.9934 -1.5275
   74MOL   C19417860   0.446   1.786   0.229  0.8903  0.5459  0.3634
   74MOL   C19517861   0.454   1.886   0.104 -0.0530 -0.7292  0.3781
   74MOL   C19617862   0.460   2.020   0.174 -0.0613  0.0156  0.4495
   74MOL   C19717863   0.587   1.880   0.024  0.4721  0.4152 -0.4165
   74MOL   O19817864   0.690   1.936   0.053  0.0094  0.1051 -0.1226
   74MOL   O19917865   0.585   1.784   7.697  0.8832 -0.3616  0.3914
   74MOL   H20017866   0.349   1.803   0.276 -0.0387  0.3197 -1.4489
   74MOL   H20117867   0.524   1.809   0.301  1.1622 -1.7594  0.8383
   74MOL   H20217868   0.493   2.108   0.119  3.1160 -0.8581  0.8338
   74MOL   H20317869   0.540   2.007   0.248 -0.8316  0.0843  1.3001
   74MOL   H20417870   0.373   2.050   0.233 -0.0152 -0.5975  0.8366
   74MOL   H20517871   0.672   1.777   7.662  0.3682 -2.0408 -0.6765
   74MOL   C20617872   0.328   1.865   0.008 -0.5227 -0.4169 -0.1774
   74MOL   C20717873   0.272   1.974   7.679 -0.5861  0.0262  0.3327
   74MOL   C20817874   0.392   2.026   7.594 -0.1378 -0.6707 -0.4373
   74MOL   C20917875   0.170   1.897   7.585 -0.0142 -1.0398 -0.7771
   74MOL   O21017876   0.069   1.837   7.625  0.1704 -0.0044  0.2427
   74MOL   O21117877   0.190   1.908   7.445  0.1791 -0.6700  0.6041
   74MOL   H21217878   0.341   1.772   7.720  1.2895 -0.0820 -0.3483
   74MOL   H21317879   0.248   1.851   0.080 -0.3711  0.3893  0.1523
   74MOL   H21417880   0.363   2.116   7.539 -0.6514 -0.3436  0.3446
   74MOL   H21517881   0.432   1.953   7.525 -0.1670 -1.2706  0.1741
   74MOL   H21617882   0.466   2.067   7.663  0.7976 -2.1430 -0.5456
   74MOL   H21717883   0.130   1.859   7.391 -0.2051  2.6315 -2.1390
   74MOL   C21817884   0.192   2.086   7.752 -0.0511  1.2355 -0.4044
   74MOL   C21917885   0.100   2.196   7.686  0.1652  0.7568  0.0239
   74MOL   C22017886   0.161   2.256   7.554 -0.1748  0.9045  0.1765
   74MOL   C22117887   7.725   2.143   7.660  1.2019  0.2630  0.0045
   74MOL   O22217888   7.675   2.145   7.554 -0.1075  0.0153  0.1685
   74MOL   O22317889   7.663   2.086   7.766  0.0001  0.0058 -0.7507
   74MOL   H22417890   0.134   2.049   0.069  1.1045  2.1535  0.8225
   74MOL   H22517891   0.269   2.143   0.037 -0.0060  1.6836 -0.9599
   74MOL   H22617892   0.097   2.333   7.511 -2.0301  0.8362  2.6764
   74MOL   H22717893   0.175   2.186   7.472  0.9071  0.1359  0.9942
   74MOL   H22817894   0.264   2.285   7.577  0.4014  0.1550 -1.3932
   74MOL   H22917895   7.580   2.064   7.726  0.4381 -0.1187 -1.5920
   74MOL   C23017896   0.100   2.310   0.033 -0.2726  0.7001 -0.0826
   74MOL   C23117897   0.026   2.444   0.014  0.0251  0.7575  0.4377
   74MOL   C23217898   7.638   2.421   0.027  0.2747 -0.8189 -0.2338
   74MOL   C23317899   0.063   2.540   0.121 -0.2872 -0.0737  0.1470
   74MOL   O23417900   0.118   2.506   0.224 -0.4576 -0.5411  0.1586
   74MOL   O23517901   0.027   2.665   0.091 -0.1929 -0.0571  0.8349
   74MOL   H23617902   0.062   2.264   0.125  0.7694  1.9281  0.9775
   74MOL   H23717903   0.206   2.332   0.047 -0.0528  0.0274 -0.6290
   74MOL   H23817904   7.598   2.519   0.005 -1.1571 -1.1340  0.9169
   74MOL   H23917905   7.593   2.387   0.121 -0.8314  1.5200  0.1069
   74MOL   H24017906   7.602   2.357   7.714 -2.9524  0.7795 -0.1391
   74MOL   H24117907   0.062   2.723   0.157  1.1504  0.6074 -0.4178
   74MOL   H24217908   0.063   2.486   7.688  1.9602 -1.2500  0.2786
   75MOL     C117909   6.349   1.982   5.448 -0.4466 -0.0309 -0.4499
   75MOL     C217910   6.459   2.083   5.405 -0.9229  0.3438  0.1889
   75MOL     C317911   6.384   2.176   5.313 -0.4251 -0.0822 -0.2898
   75MOL     C417912   6.498   2.150   5.542 -0.5785 -0.4300 -0.2446
   75MOL     O517913   6.444   2.252   5.592 -0.8316 -0.1932  0.3970
   75MOL     O617914   6.589   2.073   5.607 -0.0251  0.6079 -0.3192
   75MOL     H717915   6.370   1.920   5.535 -1.0573 -1.4216 -1.2812
   75MOL     H817916   6.326   1.909   5.370  2.0447 -0.5642 -0.7196
   75MOL     H917917   6.340   2.128   5.226 -2.4378  1.7858 -0.3608
   75MOL    H1017918   6.433   2.271   5.291 -1.1674  0.9078  2.1150
   75MOL    H1117919   6.304   2.221   5.372  1.2209  0.0780  1.8737
   75MOL    H1217920   6.627   2.119   5.681  0.1440 -0.1562  0.0735
   75MOL    H1317921   6.263   2.040   5.480  0.1087  0.9041 -0.6222
   75MOL    C1417922   6.586   2.017   5.338  0.5398 -0.5807 -0.5441
   75MOL    C1517923   6.684   2.093   5.240 -0.1168 -0.2783 -0.3703
   75MOL    C1617924   6.611   2.111   5.102 -0.0749  0.3511  0.2812
   75MOL    C1717925   6.716   2.234   5.293  0.7975  0.3902 -0.0917
   75MOL    O1817926   6.688   2.340   5.238  0.3197 -0.1909  0.8237
   75MOL    O1917927   6.774   2.231   5.416  0.1745 -0.2360  0.2687
   75MOL    H2017928   6.642   1.967   5.417 -1.1836  0.2886  1.2786
   75MOL    H2117929   6.548   1.931   5.283 -0.5271 -0.5897  0.1944
   75MOL    H2217930   6.562   2.017   5.075  0.6121 -0.3800  1.5322
   75MOL    H2317931   6.676   2.135   5.018 -1.9774 -0.4553 -1.4608
   75MOL    H2417932   6.540   2.193   5.107  1.7092  1.9514  0.2407
   75MOL    H2517933   6.777   2.317   5.455 -2.3290  0.7250 -1.5344
   75MOL    C2617934   6.817   2.012   5.230  0.6575 -0.7991  0.2658
   75MOL    C2717935   6.920   2.006   5.105  0.3115 -0.1839  0.1198
   75MOL    C2817936   7.038   1.906   5.152  0.5426  0.0078  0.8793
   75MOL    C2917937   6.854   1.933   4.985  1.3622  1.0498  0.4727
   75MOL    O3017938   6.874   1.964   4.866  0.0360  0.1570 -0.1658
   75MOL    O3117939   6.767   1.838   5.030 -0.5545 -0.9828 -0.1546
   75MOL    H3217940   6.881   2.045   5.311 -1.5674 -1.8689  2.5267
   75MOL    H3317941   6.789   1.915   5.272  0.6498 -0.1290  1.8294
   75MOL    H3417942   6.996   1.818   5.202 -2.3975  0.5661 -0.4861
   75MOL    H3517943   7.094   1.962   5.227 -1.2162 -0.1515  2.3704
   75MOL    H3617944   7.102   1.856   5.079  0.0806  0.0661  0.4279
   75MOL    H3717945   6.736   1.794   4.953 -0.5548 -1.1518 -0.0574
   75MOL    C3817946   6.977   2.153   5.097  1.3595  0.2269 -0.1579
   75MOL    C3917947   7.082   2.206   4.991  0.1491 -0.0429  0.5605
   75MOL    C4017948   7.174   2.307   5.065 -0.4337 -0.0080 -0.5872
   75MOL    C4117949   7.182   2.105   4.925 -0.4900  0.5848 -0.1627
   75MOL    O4217950   7.304   2.108   4.943 -0.4197 -0.3652 -0.1292
   75MOL    O4317951   7.126   2.011   4.844 -0.3761 -0.0516  0.7421
   75MOL    H4417952   6.890   2.219   5.093  0.0156 -1.4529  0.4804
   75MOL    H4517953   7.020   2.164   5.196 -0.0561 -0.9284  0.6161
   75MOL    H4617954   7.120   2.382   5.124 -0.4148 -1.3152  1.1244
   75MOL    H4717955   7.260   2.350   5.012  0.7882 -1.1953  0.4112
   75MOL    H4817956   7.222   2.243   5.139  1.0364  0.5605 -1.0254
   75MOL    H4917957   7.032   2.020   4.842 -0.2664  2.2989  3.1629
   75MOL    C5017958   6.993   2.285   4.886 -0.0759  0.3537  0.1332
   75MOL    C5117959   7.043   2.355   4.749 -0.4828 -0.6876  0.3166
   75MOL    C5217960   7.157   2.451   4.780  0.2114 -0.7813  0.0755
   75MOL    C5317961   7.083   2.246   4.640 -0.4130 -0.0540  0.3495
   75MOL    O5417962   7.177   2.251   4.562 -0.3925  0.4079  0.0720
   75MOL    O5517963   6.983   2.149   4.627 -0.6577  0.0692  0.6230
   75MOL    H5617964   6.907   2.228   4.852 -1.0263  1.0973  1.2434
   75MOL    H5717965   6.964   2.371   4.947  3.2766  1.0799  0.8248
   75MOL    H5817966   7.171   2.498   4.683 -0.8344 -0.7314 -0.0660
   75MOL    H5917967   7.248   2.396   4.801 -0.8188 -2.0310  1.4392
   75MOL    H6017968   7.132   2.524   4.857  2.7361 -1.8827  2.0068
   75MOL    H6117969   6.992   2.078   4.565 -1.6621  2.0000 -1.7995
   75MOL    C6217970   6.926   2.442   4.678  0.4078  0.5956 -0.1121
   75MOL    C6317971   6.784   2.488   4.737 -0.1012  0.1606  0.2420
   75MOL    C6417972   6.702   2.549   4.615  0.4526  0.0237 -0.0506
   75MOL    C6517973   6.704   2.360   4.778  0.1483  0.3229 -0.1746
   75MOL    O6617974   6.652   2.354   4.892  0.1392 -0.6945 -0.5833
   75MOL    O6717975   6.691   2.260   4.685 -0.0094 -0.6772 -0.0159
   75MOL    H6817976   6.965   2.531   4.629  0.6238  0.0847 -0.8868
   75MOL    H6917977   6.893   2.384   4.591  0.0941 -0.8192  0.9189
   75MOL    H7017978   6.705   2.483   4.528 -0.5499 -0.1400  0.0284
   75MOL    H7117979   6.751   2.641   4.582 -0.9876  0.3593 -1.2879
   75MOL    H7217980   6.599   2.563   4.649  0.3328 -0.9748 -0.0072
   75MOL    H7317981   6.651   2.184   4.722 -1.1172  0.3823  1.0131
   75MOL    C7417982   6.799   2.590   4.855  0.0868 -0.1985  0.1811
   75MOL    C7517983   6.829   2.745   4.837 -0.0526  0.8506  0.2075
   75MOL    C7617984   6.949   2.776   4.735 -0.2285 -0.2549 -0.0376
   75MOL    C7717985   6.709   2.823   4.791  0.8759 -0.3826  0.0127
   75MOL    O7817986   6.596   2.781   4.772 -0.1846  0.2330  0.9459
   75MOL    O7917987   6.740   2.958   4.776 -0.1485  0.1219  0.5879
   75MOL    H8017988   6.710   2.588   4.917  0.0406 -1.5484  0.0826
   75MOL    H8117989   6.884   2.553   4.914  1.1654  0.7785 -0.7394
   75MOL    H8217990   6.924   2.748   4.633 -0.4848 -1.4289  0.3375
   75MOL    H8317991   7.033   2.715   4.766  0.3991 -0.3070 -1.8064
   75MOL    H8417992   6.974   2.882   4.735 -0.4871 -0.1925 -0.2936
   75MOL    H8517993   6.658   3.004   4.764  1.3725  2.1267 -2.5704
   75MOL    C8617994   6.871   2.799   4.979 -0.1396  0.0071 -0.3532
   75MOL    C8717995   6.794   2.801   5.113 -0.1563 -0.2464  0.4984
   75MOL    C8817996   6.636   2.807   5.087 -0.1720 -0.0067 -0.2772
   75MOL    C8917997   6.828   2.675   5.189  0.7762 -0.0375 -0.1912
   75MOL    O9017998   6.940   2.627   5.202  0.0235 -0.2766 -0.6468
   75MOL    O9117999   6.717   2.616   5.246 -0.7358 -0.1753  0.2960
   75MOL    H9218000   6.971   2.756   4.992 -0.6507 -0.8980  0.6542
   75MOL    H9318001   6.892   2.903   4.953 -0.1523  0.7324  2.3938
   75MOL    H9418002   6.603   2.895   5.033 -1.0624  1.0308  1.9334
   75MOL    H9518003   6.588   2.816   5.184 -1.5673  0.8107 -1.0304
   75MOL    H9618004   6.606   2.717   5.033  0.8449 -0.1673 -0.6048
   75MOL    H9718005   6.738   2.540   5.299  2.2433 -1.8483 -3.0485
   75MOL    C9818006   6.831   2.935   5.198  0.5194 -0.6409 -0.3844
   75MOL    C9918007   6.965   3.022   5.203  0.2810 -0.1738 -0.9853
   75MOL   C10018008   7.089   2.927   5.197  0.0953 -0.1072 -0.6311
   75MOL   C10118009   6.980   3.118   5.077 -0.3660 -0.8565 -0.0649
   75MOL   O10218010   6.902   3.127   4.983  0.2599  0.9469 -1.0849
   75MOL   O10318011   7.097   3.184   5.079 -0.7085  0.4333  0.0107
   75MOL   H10418012   6.746   3.002   5.187 -0.7108 -1.9840  0.6751
   75MOL   H10518013   6.816   2.900   5.300  0.6547  0.3427 -0.0169
   75MOL   H10618014   7.100   2.875   5.102  0.2202 -0.8914 -0.1909
   75MOL   H10718015   7.093   2.862   5.284 -3.4818 -1.0598 -1.0801
   75MOL   H10818016   7.179   2.987   5.209  0.9043 -1.2658 -0.8940
   75MOL   H10918017   7.135   3.166   5.164 -2.1800 -3.6601 -0.0824
   75MOL   C11018018   6.971   3.113   5.343  0.6273  0.3975  0.2819
   75MOL   C11118019   6.857   3.199   5.402 -0.2123 -0.5747  0.1710
   75MOL   C11218020   6.796   3.294   5.289 -0.2537 -0.4444  0.7749
   75MOL   C11318021   6.750   3.101   5.468  0.8612 -0.6439 -0.4343
   75MOL   O11418022   6.633   3.113   5.456  0.1328 -0.3830  0.0033
   75MOL   O11518023   6.804   2.998   5.535  0.0442 -0.4495  0.4667
   75MOL   H11618024   7.015   3.048   5.419  1.8010 -0.5556 -1.1657
   75MOL   H11718025   7.039   3.197   5.327 -0.0054  1.0526  1.0654
   75MOL   H11818026   6.735   3.240   5.217  0.3861  1.1909 -1.0255
   75MOL   H11918027   6.866   3.362   5.241 -0.0701 -1.2398 -0.1023
   75MOL   H12018028   6.722   3.365   5.325  0.8156  1.4985 -0.7540
   75MOL   H12118029   6.726   2.956   5.567 -1.8009  2.3226 -0.1856
   75MOL   C12218030   6.917   3.310   5.510  0.7487 -0.1189  0.1842
   75MOL   C12318031   6.975   3.279   5.655 -0.5171  0.2280 -0.0840
   75MOL   C12418032   6.858   3.263   5.755 -0.8086 -0.0865  0.3958
   75MOL   C12518033   7.070   3.156   5.654  0.3772 -0.1327  0.1489
   75MOL   O12618034   7.042   3.051   5.717  0.1094  0.0249 -0.0939
   75MOL   O12718035   7.187   3.176   5.583  0.2348 -0.2526  0.1034
   75MOL   H12818036   6.994   3.367   5.458  1.2163  1.3069  2.3889
   75MOL   H12918037   6.836   3.381   5.529 -0.3722 -1.6096  1.1256
   75MOL   H13018038   6.818   3.164   5.734 -0.3085 -0.1430 -0.3336
   75MOL   H13118039   6.773   3.328   5.733  0.5963  1.9989  0.9642
   75MOL   H13218040   6.879   3.264   5.862  0.8904 -1.8968  0.1022
   75MOL   H13318041   7.240   3.098   5.572 -2.4821 -2.0926 -0.3750
   75MOL   C13418042   7.074   3.401   5.673 -0.4388  0.0895 -0.2601
   75MOL   C13518043   7.139   3.455   5.812 -0.4397 -0.0524  0.4206
   75MOL   C13618044   7.192   3.343   5.911  0.7438  1.1895 -0.7263
   75MOL   C13718045   7.264   3.525   5.751 -0.5023  0.4338 -0.9916
   75MOL   O13818046   7.380   3.499   5.788 -0.0618  0.3143 -0.0979
   75MOL   O13918047   7.240   3.613   5.652 -0.0557 -0.2788  0.3077
   75MOL   H14018048   7.154   3.386   5.599  0.1264 -1.5923  0.6638
   75MOL   H14118049   7.031   3.495   5.638  0.3146  0.7837  0.6447
   75MOL   H14218050   7.251   3.265   5.862 -1.6259 -0.8961 -0.3664
   75MOL   H14318051   7.103   3.287   5.940 -0.1852  2.2637 -1.4483
   75MOL   H14418052   7.254   3.372   5.995 -0.4044  2.8305 -0.4183
   75MOL   H14518053   7.318   3.650   5.614 -0.1241  0.8709  1.2837
   75MOL   C14618054   7.030   3.543   5.884 -0.1754 -1.0210 -0.3845
   75MOL   C14718055   7.038   3.640   6.006  0.0984 -0.2131 -0.2596
   75MOL   C14818056   7.166   3.733   5.997 -0.3196 -0.4950  0.2605
   75MOL   C14918057   6.911   3.725   6.001  0.0288 -0.6527 -0.1792
   75MOL   O15018058   6.904   3.846   5.983 -0.0688 -0.4712  0.2049
   75MOL   O15118059   6.799   3.643   6.016 -0.3664  0.1431  0.2041
   75MOL   H15218060   6.995   3.606   5.802  1.9671  0.5471 -0.1178
   75MOL   H15318061   6.955   3.467   5.905 -1.3830 -0.0894 -1.1925
   75MOL   H15418062   7.160   3.774   5.896 -0.1898 -1.4740 -0.1517
   75MOL   H15518063   7.247   3.661   5.992 -0.8152 -0.9312 -2.3923
   75MOL   H15618064   7.188   3.814   6.066 -0.8610 -0.6691  0.6448
   75MOL   H15718065   6.724   3.700   6.010 -0.3865  0.4639  2.7319
   75MOL   C15818066   7.038   3.569   6.145 -0.1891 -0.1477 -0.3531
   75MOL   C15918067   7.091   3.615   6.278 -0.4599  0.5393 -0.8360
   75MOL   C16018068   7.248   3.589   6.269  0.3489 -0.6464 -0.4536
   75MOL   C16118069   7.060   3.763   6.301 -0.7691  0.6421 -0.4132
   75MOL   O16218070   7.142   3.856   6.308 -0.1027 -0.1958 -0.0566
   75MOL   O16318071   6.932   3.790   6.314 -0.1390  0.0467  0.1458
   75MOL   H16418072   6.939   3.524   6.159  0.0447 -0.7258 -0.5247
   75MOL   H16518073   7.094   3.478   6.121  1.6428  0.8519  0.0803
   75MOL   H16618074   7.287   3.656   6.192  0.0915 -1.4443 -1.2746
   75MOL   H16718075   7.281   3.490   6.239  1.0856 -0.8266  0.9134
   75MOL   H16818076   7.294   3.619   6.363  1.4158  1.1397 -1.5082
   75MOL   H16918077   6.940   3.885   6.312  2.0209 -0.0821  1.1401
   75MOL   C17018078   7.026   3.521   6.385  0.3831 -0.5954  0.5330
   75MOL   C17118079   7.059   3.519   6.545  0.6710  0.0074  0.4532
   75MOL   C17218080   7.065   3.662   6.599 -0.4874  0.1069 -0.4835
   75MOL   C17318081   6.919   3.462   6.601 -0.5005  0.3297  0.0126
   75MOL   O17418082   6.850   3.526   6.680 -0.0338  0.5053 -0.0020
   75MOL   O17518083   6.881   3.343   6.553 -0.1307 -0.0051  0.2847
   75MOL   H17618084   6.920   3.548   6.378  0.3928 -0.7934 -0.6045
   75MOL   H17718085   7.026   3.417   6.354  1.6768 -0.2692 -0.6155
   75MOL   H17818086   7.165   3.701   6.582  0.0230 -0.7875  0.4080
   75MOL   H17918087   7.070   3.668   6.708 -0.3509  1.5627 -0.5580
   75MOL   H18018088   6.978   3.724   6.574 -1.1101 -0.3403  0.5250
   75MOL   H18118089   6.800   3.319   6.595  1.1175 -2.5165  1.3803
   75MOL   C18218090   7.177   3.428   6.570  0.5452 -0.4375  0.4127
   75MOL   C18318091   7.254   3.410   6.707  0.4129 -0.3511  0.5921
   75MOL   C18418092   7.350   3.284   6.673  0.1859 -0.3427  0.1141
   75MOL   C18518093   7.343   3.529   6.740 -0.4488 -0.0967 -0.0859
   75MOL   O18618094   7.363   3.573   6.850 -0.0310 -0.4324 -0.2271
   75MOL   O18718095   7.407   3.570   6.630  0.2243 -0.6764 -0.4126
   75MOL   H18818096   7.144   3.329   6.539  0.2638  0.3873 -2.0459
   75MOL   H18918097   7.254   3.441   6.494  0.0129 -1.0418 -0.2422
   75MOL   H19018098   7.433   3.270   6.743  0.6109  0.1743 -0.2741
   75MOL   H19118099   7.396   3.291   6.574 -0.2210  1.7443  0.0489
   75MOL   H19218100   7.292   3.193   6.678  1.1358 -0.9590  0.0483
   75MOL   H19318101   7.464   3.639   6.662  0.4915 -1.5714  1.0738
   75MOL   C19418102   7.153   3.368   6.813 -0.2028  0.1252  0.0829
   75MOL   C19518103   7.179   3.339   6.964 -0.8076  0.3210  0.1542
   75MOL   C19618104   7.324   3.283   6.986  0.4833 -0.0433 -0.1281
   75MOL   C19718105   7.169   3.467   7.049 -0.1783  0.0169 -0.0781
   75MOL   O19818106   7.127   3.577   7.005  0.1138 -0.0248 -0.0662
   75MOL   O19918107   7.213   3.457   7.176 -1.0393 -0.8112 -0.0975
   75MOL   H20018108   7.072   3.441   6.815  1.1756  1.6806 -0.2037
   75MOL   H20118109   7.102   3.280   6.773 -2.9651  1.5917  0.2556
   75MOL   H20218110   7.406   3.354   6.976 -1.0249  1.8138  0.4152
   75MOL   H20318111   7.327   3.199   6.917 -3.5099 -1.0279  0.7290
   75MOL   H20418112   7.342   3.238   7.084  1.0546 -1.0197 -0.6693
   75MOL   H20518113   7.187   3.532   7.228 -0.3049 -0.6615  0.0621
   75MOL   C20618114   7.064   3.239   7.027 -0.2611 -0.5630  0.3744
   75MOL   C20718115   6.908   3.263   7.037  1.0843  0.0367 -0.5379
   75MOL   C20818116   6.865   3.412   7.058 -0.2263 -0.7011  0.3734
   75MOL   C20918117   6.840   3.213   6.904 -0.8007 -0.1404  0.1000
   75MOL   O21018118   6.900   3.165   6.810  0.5705 -0.6761  0.3610
   75MOL   O21118119   6.702   3.225   6.906 -0.0292  0.3327  0.0660
   75MOL   H21218120   7.092   3.140   6.992  0.4641 -0.2885  0.1617
   75MOL   H21318121   7.091   3.237   7.133  1.0743 -2.4360  0.0269
   75MOL   H21418122   6.759   3.433   7.068 -0.5972 -0.9918 -2.5507
   75MOL   H21518123   6.903   3.477   6.980 -1.6734  0.4742  0.6210
   75MOL   H21618124   6.908   3.444   7.153  0.5430  0.0955 -0.2458
   75MOL   H21718125   6.676   3.177   6.829  1.0149  1.9107 -1.3027
   75MOL   C21818126   6.838   3.188   7.162 -0.0314 -0.5128  0.4867
   75MOL   C21918127   6.834   3.031   7.184  0.2227 -0.3166 -0.5937
   75MOL   C22018128   6.711   2.972   7.108  0.5640 -0.8733 -0.1731
   75MOL   C22118129   6.966   2.967   7.138 -0.7773 -0.3554 -0.1195
   75MOL   O22218130   7.071   2.988   7.194 -0.5689 -0.4315  0.1554
   75MOL   O22318131   6.948   2.887   7.032  0.1331  0.1540  0.3201
   75MOL   H22418132   6.856   3.249   7.250  1.3282  0.2258 -0.2733
   75MOL   H22518133   6.735   3.222   7.152  0.1414 -0.4707 -1.3740
   75MOL   H22618134   6.620   3.029   7.124  0.1117 -1.7998  0.6314
   75MOL   H22718135   6.694   2.873   7.150  0.8721 -0.3883  1.1022
   75MOL   H22818136   6.725   2.965   7.000  1.7421 -0.2150 -0.0665
   75MOL   H22918137   7.026   2.845   7.000 -0.2026  0.4731 -0.9375
   75MOL   C23018138   6.802   3.005   7.334  0.3680  0.1867  0.3872
   75MOL   C23118139   6.830   2.859   7.388  0.6361  0.5542 -0.0976
   75MOL   C23218140   6.941   2.852   7.496 -0.4162 -0.5745 -0.4623
   75MOL   C23318141   6.705   2.787   7.438 -0.2874 -0.0606  1.1050
   75MOL   O23418142   6.604   2.779   7.368  0.1365  1.0345 -0.0698
   75MOL   O23518143   6.722   2.716   7.553  0.0890  0.3714 -0.2262
   75MOL   H23618144   6.868   3.069   7.393  1.6169 -0.8432  0.1378
   75MOL   H23718145   6.700   3.032   7.359 -0.4842 -1.5589 -1.1199
   75MOL   H23818146   7.039   2.892   7.472 -0.5663  0.3445  0.4586
   75MOL   H23918147   6.964   2.749   7.522 -1.4085 -0.9858 -1.1474
   75MOL   H24018148   6.899   2.903   7.583 -1.4246 -0.6882 -0.8692
   75MOL   H24118149   6.652   2.653   7.567 -0.8778  1.1254 -1.5831
   75MOL   H24218150   6.864   2.790   7.311  1.3058 -1.8945  2.2991
   76MOL     C118151   1.699   4.975   6.247 -0.2673  0.5112  0.1890
   76MOL     C218152   1.644   4.836   6.280  0.2017 -0.8326 -0.2234
   76MOL     C318153   1.497   4.825   6.222  0.0501  0.3514 -0.0830
   76MOL     C418154   1.720   4.727   6.208  0.1721 -0.2105 -0.5152
   76MOL     O518155   1.800   4.743   6.114  0.1886 -0.4079 -0.3972
   76MOL     O618156   1.692   4.605   6.261  0.1819 -0.2240  0.4915
   76MOL     H718157   1.670   5.014   6.149  0.1632  0.1378 -0.0948
   76MOL     H818158   1.808   4.977   6.242 -0.2057  0.2388  1.3687
   76MOL     H918159   1.436   4.910   6.255  0.1007 -0.4460  2.1127
   76MOL    H1018160   1.446   4.733   6.251  1.8782 -0.4723  0.5821
   76MOL    H1118161   1.486   4.855   6.117 -0.4436  0.6388  0.0499
   76MOL    H1218162   1.653   4.621   6.345 -1.5483  0.5167 -0.4246
   76MOL    H1318163   1.669   5.056   6.312 -2.1027 -0.5472  0.6768
   76MOL    C1418164   1.630   4.810   6.435  0.4335 -0.7017  0.0957
   76MOL    C1518165   1.744   4.804   6.535  0.3387  0.2539 -0.4642
   76MOL    C1618166   1.812   4.669   6.537 -0.1929  0.4777 -0.3808
   76MOL    C1718167   1.850   4.908   6.508  0.1759  0.1864 -0.2671
   76MOL    O1818168   1.962   4.891   6.455 -1.0168 -0.5001 -0.2954
   76MOL    O1918169   1.805   5.027   6.542 -0.3725 -0.5273  0.2110
   76MOL    H2018170   1.563   4.895   6.453  1.0710  0.9717 -4.7825
   76MOL    H2118171   1.562   4.727   6.453 -0.0243 -0.5060 -0.7032
   76MOL    H2218172   1.871   4.667   6.445  0.8036  3.2430  0.1661
   76MOL    H2318173   1.746   4.582   6.532 -1.0194  0.9833  1.3786
   76MOL    H2418174   1.880   4.659   6.621  1.3703  0.9845 -1.5634
   76MOL    H2518175   1.874   5.091   6.533 -0.1383 -1.1009 -2.5139
   76MOL    C2618176   1.697   4.823   6.691 -0.0800 -0.5135 -0.2211
   76MOL    C2718177   1.556   4.795   6.748 -0.0444  0.3011  0.0449
   76MOL    C2818178   1.455   4.912   6.712 -0.1715 -0.3434  0.1175
   76MOL    C2918179   1.506   4.648   6.707 -0.4301  0.2546 -1.0355
   76MOL    O3018180   1.405   4.619   6.647  0.0914 -0.1673  0.2047
   76MOL    O3118181   1.604   4.557   6.737 -0.2408  0.0702 -0.3807
   76MOL    H3218182   1.752   4.749   6.748  1.3079  1.4003  1.0131
   76MOL    H3318183   1.730   4.920   6.729  2.7949 -1.0867 -1.0715
   76MOL    H3418184   1.508   4.993   6.661  1.3905 -1.5955 -0.2912
   76MOL    H3518185   1.398   4.960   6.792  0.6587 -1.3753  1.3448
   76MOL    H3618186   1.377   4.869   6.649 -2.0019  2.6881  0.1904
   76MOL    H3718187   1.571   4.468   6.742 -0.0379  0.0544  0.9119
   76MOL    C3818188   1.560   4.792   6.904 -0.4214  0.2247  0.1217
   76MOL    C3918189   1.460   4.725   7.010  0.3544  0.6178  0.8973
   76MOL    C4018190   1.312   4.739   6.962 -0.0800  0.1048 -0.5938
   76MOL    C4118191   1.500   4.575   7.025 -0.6786  0.2133 -0.4309
   76MOL    O4218192   1.419   4.483   7.015  0.8758  0.2878  0.1735
   76MOL    O4318193   1.637   4.546   7.030  0.1516 -0.0416 -0.1310
   76MOL    H4418194   1.660   4.766   6.939 -0.2412  1.0225  0.1872
   76MOL    H4518195   1.563   4.897   6.931 -2.1897  0.3862 -0.2695
   76MOL    H4618196   1.230   4.708   7.027 -1.3645  1.0855 -1.7265
   76MOL    H4718197   1.302   4.677   6.873 -1.6946  1.6852 -1.5472
   76MOL    H4818198   1.283   4.843   6.945 -0.3446  0.2592  0.6992
   76MOL    H4918199   1.651   4.457   7.057  0.5255  0.7618  2.4999
   76MOL    C5018200   1.465   4.792   7.153 -0.0585 -0.2481 -0.9328
   76MOL    C5118201   1.576   4.782   7.267  0.3178 -0.1114 -0.5053
   76MOL    C5218202   1.712   4.813   7.201  0.3752 -0.5901  0.0916
   76MOL    C5318203   1.533   4.894   7.363  0.1548 -0.1657  0.2576
   76MOL    O5418204   1.609   4.986   7.393 -0.9685  0.4691 -0.6541
   76MOL    O5518205   1.411   4.877   7.396  0.6491  0.0461 -0.0367
   76MOL    H5618206   1.470   4.898   7.130  0.8118 -0.4417 -1.6465
   76MOL    H5718207   1.368   4.772   7.199  0.3071 -0.4988 -0.2614
   76MOL    H5818208   1.705   4.904   7.141 -1.4000 -0.2806  0.7148
   76MOL    H5918209   1.757   4.726   7.154 -1.0377 -1.4313  0.2720
   76MOL    H6018210   1.785   4.834   7.279 -0.4137  1.0532  0.4101
   76MOL    H6118211   1.376   4.941   7.456 -0.2514 -1.0245  0.5966
   76MOL    C6218212   1.571   4.645   7.348 -0.2509 -1.2301  0.6681
   76MOL    C6318213   1.676   4.603   7.450  0.0639  0.6590  0.8089
   76MOL    C6418214   1.623   4.465   7.494  0.1588 -0.1988  0.3028
   76MOL    C6518215   1.812   4.579   7.376 -1.0669  0.1908 -0.0909
   76MOL    O6618216   1.916   4.641   7.399  0.0046 -0.4636 -0.2748
   76MOL    O6718217   1.808   4.481   7.283 -0.5809 -0.1039 -0.1132
   76MOL    H6818218   1.476   4.634   7.402  0.7752 -1.9062  2.3577
   76MOL    H6918219   1.566   4.568   7.270  0.0586 -0.7299  0.1569
   76MOL    H7018220   1.556   4.471   7.580  1.4192 -0.8877  1.3477
   76MOL    H7118221   1.710   4.407   7.526  1.1618  1.1395  0.0571
   76MOL    H7218222   1.572   4.419   7.409  0.3010  0.0142  0.1044
   76MOL    H7318223   1.896   4.461   7.255 -0.4386 -2.8211  2.0984
   76MOL    C7418224   1.678   4.698   7.575 -1.4033  0.5086  0.6038
   76MOL    C7518225   1.779   4.705   7.687  0.2506 -0.0544 -0.0028
   76MOL    C7618226   1.813   4.559   7.717  0.2090  0.0805 -0.8457
   76MOL    C7718227   1.906   4.781   7.651  0.8625  1.0556 -0.3001
   76MOL    O7818228   2.021   4.741   7.662  0.5193  0.3435  0.5276
   76MOL    O7918229   1.876   4.908   7.609 -0.0754 -0.2634  0.2400
   76MOL    H8018230   1.684   4.802   7.541  4.2784  0.6160  1.4108
   76MOL    H8118231   1.580   4.694   7.622 -0.2522  0.4458  3.0244
   76MOL    H8218232   1.729   4.502   7.756  0.2203  0.0869 -0.8124
   76MOL    H8318233   1.897   4.540   0.017  1.0915  0.1850 -1.9136
   76MOL    H8418234   1.858   4.513   7.629 -1.8457  0.4128 -2.1141
   76MOL    H8518235   1.943   4.968   7.580 -1.9528  3.1006  2.6119
   76MOL    C8618236   1.701   4.752   0.049 -0.3114 -0.0437  0.4013
   76MOL    C8718237   1.779   4.819   0.167 -0.1429  0.4064 -1.0457
   76MOL    C8818238   1.898   4.733   0.212 -0.3648  0.2620 -0.3763
   76MOL    C8918239   1.835   4.966   0.136 -0.0541 -0.5327 -0.1749
   76MOL    O9018240   1.955   5.000   0.151  0.0042 -0.5625  0.0857
   76MOL    O9118241   1.746   5.052   0.082 -0.1424  0.2402  0.0355
   76MOL    H9218242   1.630   4.830   0.021 -1.7019 -1.0500  1.0772
   76MOL    H9318243   1.630   4.680   0.088 -1.1549  0.9460  0.7124
   76MOL    H9418244   1.952   4.776   0.297  0.7406 -1.4630 -0.1665
   76MOL    H9518245   1.973   4.716   0.135 -0.6639  0.2945 -0.6744
   76MOL    H9618246   1.862   4.633   0.237  1.9381 -0.8997 -1.5467
   76MOL    H9718247   1.786   5.138   0.081 -0.9981  0.6428 -0.4484
   76MOL    C9818248   1.663   4.841   0.280  0.3782 -0.5677  0.5793
   76MOL    C9918249   1.687   4.852   0.438  0.4290 -0.0793  0.6176
   76MOL   C10018250   1.545   4.862   0.499  0.1705  0.2313  0.0845
   76MOL   C10118251   1.758   4.721   0.487  0.1183 -0.0705  0.0393
   76MOL   O10218252   1.873   4.721   0.535  0.4346  0.2300 -0.5299
   76MOL   O10318253   1.683   4.602   0.477 -0.1734  0.0469 -0.3887
   76MOL   H10418254   1.607   4.929   0.246 -1.3210 -1.7493  0.2780
   76MOL   H10518255   1.589   4.761   0.275 -0.5296  0.2965 -0.1465
   76MOL   H10618256   1.526   4.969   0.503  0.1666  0.1667  1.8650
   76MOL   H10718257   1.525   4.814   0.595 -4.0808  1.3515 -0.1442
   76MOL   H10818258   1.465   4.812   0.444  0.5291 -1.3642  0.9672
   76MOL   H10918259   1.723   4.524   0.511  1.0183  0.8116  0.0011
   76MOL   C11018260   1.766   4.987   0.466 -0.3273 -0.3918  0.1507
   76MOL   C11118261   1.832   5.033   0.597  0.8026  0.3198 -0.4878
   76MOL   C11218262   1.737   4.991   0.723 -0.3014 -0.1561 -0.4013
   76MOL   C11318263   1.975   4.974   0.630 -0.6008 -0.5325 -0.7452
   76MOL   O11418264   2.066   4.949   0.547  0.7150  0.7944 -0.5236
   76MOL   O11518265   1.999   4.971   0.766  0.1915  0.0452  0.6256
   76MOL   H11618266   1.853   4.976   0.401 -0.0361  1.4602  0.2032
   76MOL   H11718267   1.701   5.061   0.419 -1.5480 -1.2867  0.4009
   76MOL   H11818268   1.630   5.008   0.711 -0.1258  1.5706  0.3203
   76MOL   H11918269   1.777   5.039   0.812 -1.2365  2.6283 -1.4589
   76MOL   H12018270   1.742   4.883   0.741  1.2744 -0.2167 -1.1583
   76MOL   H12118271   2.089   4.942   0.765  0.7120  1.6024  0.4896
   76MOL   C12218272   1.833   5.194   0.596 -0.4009  0.6704  0.1156
   76MOL   C12318273   1.887   5.286   0.481  0.1619 -0.1690  0.1556
   76MOL   C12418274   2.011   5.217   0.407 -0.3281 -0.4199 -0.3919
   76MOL   C12518275   1.777   5.307   0.372 -0.1878  0.6121 -0.7144
   76MOL   O12618276   1.775   5.288   0.249 -0.2129  0.1683 -0.2199
   76MOL   O12718277   1.677   5.369   0.440 -0.1370 -0.3979 -0.3317
   76MOL   H12818278   1.731   5.228   0.617 -0.4213 -0.8727  2.5955
   76MOL   H12918279   1.880   5.222   0.690 -1.0811 -1.8270  1.2361
   76MOL   H13018280   2.062   5.275   0.331 -0.9884  0.8580  0.1309
   76MOL   H13118281   1.989   5.118   0.366 -0.1657 -0.0692 -1.3231
   76MOL   H13218282   2.088   5.193   0.481 -2.8686 -5.0553  0.9589
   76MOL   H13318283   1.607   5.401   0.384 -1.9930 -2.0181  1.0078
   76MOL   C13418284   1.936   5.424   0.539 -0.9195 -0.7640 -0.0041
   76MOL   C13518285   2.033   5.529   0.463 -0.3207  0.2214 -0.0059
   76MOL   C13618286   2.180   5.486   0.501  0.0751  0.6185  0.2398
   76MOL   C13718287   2.017   5.537   0.314  0.1561 -0.3558  0.9245
   76MOL   O13818288   2.102   5.502   0.237  0.0974  0.4221 -0.0968
   76MOL   O13918289   1.890   5.583   0.277  0.3515 -0.1143 -0.1079
   76MOL   H14018290   1.846   5.472   0.576 -1.4327 -1.6617 -0.0932
   76MOL   H14118291   2.000   5.401   0.625  1.0517  1.2631 -0.8668
   76MOL   H14218292   2.207   5.511   0.604 -0.4221  1.0590  0.2650
   76MOL   H14318293   2.257   5.531   0.439  0.6862 -1.2405 -0.3813
   76MOL   H14418294   2.191   5.379   0.484 -2.4454  0.7228 -2.4482
   76MOL   H14518295   1.903   5.594   0.184  1.3859  2.0104  0.2624
   76MOL   C14618296   2.002   5.665   0.543  0.7915 -0.1448  1.2637
   76MOL   C14718297   2.071   5.808   0.533  1.3932 -0.6646 -0.1335
   76MOL   C14818298   2.215   5.794   0.591  0.1766 -0.4032 -0.1195
   76MOL   C14918299   2.077   5.865   0.383 -0.4254  0.2987 -0.5362
   76MOL   O15018300   2.167   5.934   0.339 -0.4327  0.2022 -0.1655
   76MOL   O15118301   1.963   5.838   0.319  0.3085  0.4612  0.1004
   76MOL   H15218302   1.898   5.672   0.512  0.1471  0.7867  3.5664
   76MOL   H15318303   2.000   5.636   0.648  2.3996 -1.3352  0.9808
   76MOL   H15418304   2.216   5.765   0.696  0.9405  0.2793  0.0642
   76MOL   H15518305   2.254   5.896   0.595  0.5818 -0.5839  0.6338
   76MOL   H15618306   2.286   5.734   0.535  0.9197 -0.5641  0.9658
   76MOL   H15718307   1.904   5.789   0.375  0.0274  2.9511  2.0944
   76MOL   C15818308   1.979   5.921   0.603  0.2363 -0.1021 -0.3131
   76MOL   C15918309   2.005   5.988   0.744 -0.2428 -0.0589 -0.4692
   76MOL   C16018310   1.856   6.051   0.767 -0.7110  0.7343  0.1172
   76MOL   C16118311   2.023   5.878   0.852  0.2258 -0.4283 -0.0508
   76MOL   O16218312   2.122   5.862   0.915 -0.1933  0.4523  0.1988
   76MOL   O16318313   1.913   5.806   0.880  0.0461 -0.9706  0.0054
   76MOL   H16418314   1.976   6.005   0.534  2.2712  1.4887  1.4927
   76MOL   H16518315   1.880   5.874   0.603 -0.1706  0.7460  0.8237
   76MOL   H16618316   1.810   6.085   0.674  0.7865 -2.6728 -1.9856
   76MOL   H16718317   1.837   6.125   0.845 -0.8476  0.3527  0.4454
   76MOL   H16818318   1.789   5.972   0.799 -0.8109  0.7249 -0.1172
   76MOL   H16918319   1.932   5.748   0.952 -0.8553  0.4290  1.4244
   76MOL   C17018320   2.125   6.091   0.736 -0.6486  0.6982  0.4741
   76MOL   C17118321   2.114   6.240   0.773  0.6193 -0.5405  1.5075
   76MOL   C17218322   2.020   6.307   0.663  0.3041 -0.0600  0.2140
   76MOL   C17318323   2.046   6.254   0.908  0.2094  0.1415  0.4001
   76MOL   O17418324   1.979   6.350   0.937 -0.6507 -0.8626 -0.3282
   76MOL   O17518325   2.055   6.150   0.994  0.1950  0.3698  0.5943
   76MOL   H17618326   2.215   6.055   0.786 -0.4900 -0.8739 -0.9006
   76MOL   H17718327   2.167   6.089   0.635 -0.1939  0.7119  0.6604
   76MOL   H17818328   1.913   6.300   0.686  0.8008 -0.7874  2.4094
   76MOL   H17918329   2.046   6.280   0.561  1.7670  0.1044  0.5319
   76MOL   H18018330   2.038   6.414   0.675  0.3174  0.1594 -1.6794
   76MOL   H18118331   2.124   6.090   0.971 -1.0017 -0.7146 -0.2331
   76MOL   C18218332   2.254   6.312   0.761 -0.0342 -0.8537 -0.6812
   76MOL   C18318333   2.372   6.319   0.863 -0.3867 -0.6396  1.3248
   76MOL   C18418334   2.335   6.410   0.978  0.2027 -0.5948  0.2735
   76MOL   C18518335   2.404   6.173   0.908 -0.7369 -0.6634 -0.9707
   76MOL   O18618336   2.369   6.126   1.015  0.3258 -0.2984  0.2265
   76MOL   O18718337   2.459   6.092   0.814  0.4544 -0.6985  0.7075
   76MOL   H18818338   2.286   6.280   0.662  3.0693  1.4110 -0.4619
   76MOL   H18918339   2.229   6.417   0.744  4.3968  0.5884  1.0800
   76MOL   H19018340   2.236   6.387   1.016 -0.2440  0.0798 -0.4776
   76MOL   H19118341   2.339   6.513   0.944 -0.9590 -0.6986 -0.1626
   76MOL   H19218342   2.399   6.397   1.066 -0.0898 -3.5077  0.0873
   76MOL   H19318343   2.483   6.141   0.737 -0.3632  1.7312  1.9676
   76MOL   C19418344   2.494   6.396   0.788 -0.1579 -0.5167  0.6891
   76MOL   C19518345   2.634   6.441   0.854  0.6922  0.0501 -0.1034
   76MOL   C19618346   2.612   6.557   0.949 -0.7062 -0.2685  0.5217
   76MOL   C19718347   2.690   6.315   0.936  0.6366 -0.3633  0.2756
   76MOL   O19818348   2.714   6.303   1.054  0.8293 -0.0247  0.4106
   76MOL   O19918349   2.704   6.214   0.853 -0.5126 -0.0152  0.1195
   76MOL   H20018350   2.511   6.319   0.713 -1.1984 -0.4356  0.3636
   76MOL   H20118351   2.453   6.484   0.739  0.9308 -0.9542 -1.0361
   76MOL   H20218352   2.577   6.646   0.896  3.0712  0.8194 -0.3286
   76MOL   H20318353   2.710   6.579   0.993 -0.6265  1.7920 -0.6262
   76MOL   H20418354   2.552   6.534   1.037  0.4664  2.4187  2.1195
   76MOL   H20518355   2.748   6.139   0.889 -1.7053 -0.4420  0.7033
   76MOL   C20618356   2.721   6.472   0.730 -0.2932 -0.7490 -0.0281
   76MOL   C20718357   2.875   6.509   0.716  0.7131 -0.2168  0.0001
   76MOL   C20818358   2.891   6.576   0.571 -0.3248  0.0367  0.2354
   76MOL   C20918359   2.911   6.618   0.817 -0.0951  0.0378  0.9133
   76MOL   O21018360   2.880   6.739   0.801  0.2583  0.4371  0.1904
   76MOL   O21118361   2.962   6.568   0.926  0.0484 -0.3140 -0.0253
   76MOL   H21218362   2.702   6.393   0.657  1.0201 -0.9347 -0.1717
   76MOL   H21318363   2.670   6.556   0.681 -1.0438 -1.4986 -0.5617
   76MOL   H21418364   2.827   6.662   0.554  0.4162  0.8597  1.5034
   76MOL   H21518365   2.871   6.510   0.486 -0.2308  2.5195 -1.8016
   76MOL   H21618366   2.990   6.621   0.571 -0.8607  1.2367  0.7312
   76MOL   H21718367   2.989   6.636   0.985 -0.0668 -1.6944  1.6654
   76MOL   C21818368   2.965   6.382   0.729  0.0299 -0.0415 -0.5157
   76MOL   C21918369   3.115   6.381   0.705 -0.1447  0.6295 -0.2904
   76MOL   C22018370   3.142   6.359   0.553 -0.4942 -0.6473  0.3629
   76MOL   C22118371   3.201   6.501   0.765  0.4091  0.1155 -0.3117
   76MOL   O22218372   3.260   6.500   0.870  0.2549 -0.4511  0.0357
   76MOL   O22318373   3.202   6.613   0.689  0.2623  0.2824 -0.1812
   76MOL   H22418374   2.942   6.318   0.814 -1.8142 -1.4582 -2.0111
   76MOL   H22518375   2.927   6.309   0.658 -2.0342 -0.5838  1.1030
   76MOL   H22618376   3.241   6.316   0.538 -1.0287 -2.1981  1.1559
   76MOL   H22718377   3.128   6.447   0.491 -0.9860  0.5489  2.1268
   76MOL   H22818378   3.069   6.285   0.522 -0.1005 -1.5459  1.5448
   76MOL   H22918379   3.265   6.673   0.726  0.2700  0.1751 -0.0208
   76MOL   C23018380   3.173   6.244   0.776 -0.6402 -0.1466 -1.2844
   76MOL   C23118381   3.124   6.097   0.728  0.5079 -0.6988 -0.2807
   76MOL   C23218382   3.215   6.021   0.628  0.1820 -0.3888  0.7165
   76MOL   C23318383   3.072   6.011   0.841  0.0055  0.3055  0.1000
   76MOL   O23418384   3.129   5.917   0.887 -0.0136 -0.0461 -0.1093
   76MOL   O23518385   2.946   6.039   0.876 -0.4987 -0.2440 -0.1557
   76MOL   H23618386   3.282   6.247   0.777 -0.6641  0.6419  0.3986
   76MOL   H23718387   3.153   6.254   0.882  0.5014 -2.3394 -0.8485
   76MOL   H23818388   3.165   5.929   0.599 -1.3882  0.2941  1.1676
   76MOL   H23918389   3.309   6.001   0.680  1.0799 -1.2920 -1.2091
   76MOL   H24018390   3.237   6.079   0.539  1.3455  0.4585  1.5361
   76MOL   H24118391   2.911   5.976   0.938 -0.5020 -0.2354 -0.1490
   76MOL   H24218392   3.032   6.115   0.672 -0.7125 -1.0745  1.5501
   77MOL     C118393   6.198   1.084   6.774 -0.3811  0.1388 -0.0352
   77MOL     C218394   6.294   1.001   6.676 -0.6445  0.0781  0.7906
   77MOL     C318395   6.276   0.849   6.719 -0.6181  0.4232  0.1701
   77MOL     C418396   6.248   1.003   6.536 -0.5113 -0.5189 -0.6241
   77MOL     O518397   6.176   1.096   6.499  0.0267 -0.4210 -0.4976
   77MOL     O618398   6.296   0.904   6.461 -0.4847  0.4777  0.7201
   77MOL     H718399   6.095   1.052   6.785 -0.7086  0.9545 -0.6904
   77MOL     H818400   6.187   1.188   6.741  1.4603  0.0150 -1.1010
   77MOL     H918401   6.256   0.842   6.826 -0.3495 -2.1446  0.0931
   77MOL    H1018402   6.374   0.801   6.714 -2.0526 -2.3868 -2.2362
   77MOL    H1118403   6.194   0.791   6.676  1.1019 -1.4769 -0.6447
   77MOL    H1218404   6.248   0.900   6.380 -1.4422 -0.7248  1.3313
   77MOL    H1318405   6.219   1.093   6.881 -1.8697 -1.4002  0.3942
   77MOL    C1418406   6.446   1.032   6.683  0.1405 -0.1548  0.5776
   77MOL    C1518407   6.503   1.183   6.670 -0.7567  0.4701 -0.8618
   77MOL    C1618408   6.433   1.258   6.554  0.9738  0.5948  0.6446
   77MOL    C1718409   6.490   1.266   6.798 -0.3436 -0.8910 -0.1972
   77MOL    O1818410   6.469   1.211   6.906 -0.9484  1.1075  0.0568
   77MOL    O1918411   6.513   1.399   6.775  0.8637 -0.0394  0.4750
   77MOL    H2018412   6.484   0.992   6.777  0.8361  0.0359  0.3825
   77MOL    H2118413   6.495   0.967   6.611  1.5961  0.8623  0.6046
   77MOL    H2218414   6.334   1.295   6.581  0.6893 -0.0379  0.4633
   77MOL    H2318415   6.438   1.195   6.466  1.6927 -1.7239  2.3063
   77MOL    H2418416   6.479   1.350   6.518  0.0800 -0.2639 -2.8456
   77MOL    H2518417   6.492   1.455   6.848  0.0898  0.1604  0.1086
   77MOL    C2618418   6.658   1.180   6.628 -0.4879  0.1848 -0.2773
   77MOL    C2718419   6.789   1.147   6.711  0.0983  0.0785  0.3305
   77MOL    C2818420   6.750   1.008   6.776 -0.1298  0.1766  0.3014
   77MOL    C2918421   6.901   1.109   6.611 -0.0802 -0.2307  0.5417
   77MOL    O3018422   6.986   1.023   6.639 -0.2563 -0.1848  0.5237
   77MOL    O3118423   6.901   1.158   6.480  0.7963  0.6155 -0.2691
   77MOL    H3218424   6.666   1.116   6.540 -0.5360  0.9909 -0.8771
   77MOL    H3318425   6.688   1.280   6.595  2.2806 -0.4595  0.2158
   77MOL    H3418426   6.829   0.951   6.826 -2.1157  0.0153  3.3522
   77MOL    H3518427   6.710   0.933   6.708 -1.9614  1.5119 -0.1136
   77MOL    H3618428   6.678   1.022   6.857  0.8942 -0.5078  1.3605
   77MOL    H3718429   6.843   1.229   6.455 -0.8113 -0.6036 -0.0707
   77MOL    C3818430   6.815   1.258   6.810 -0.6553  0.2296  0.7098
   77MOL    C3918431   6.942   1.253   6.910 -0.2867  0.6789  0.9181
   77MOL    C4018432   6.953   1.117   6.983  0.1570 -0.0582 -0.5069
   77MOL    C4118433   7.080   1.277   6.834  0.5958  0.1786  0.0199
   77MOL    O4218434   7.187   1.235   6.875 -0.0508  0.4417  0.3213
   77MOL    O4318435   7.069   1.345   6.721 -0.1690 -0.2828  0.0894
   77MOL    H4418436   6.809   1.355   6.760 -0.0837  0.6060  1.3736
   77MOL    H4518437   6.730   1.258   6.878 -2.8068 -1.6316 -1.8583
   77MOL    H4618438   6.989   1.044   6.910  2.5384  1.2212 -0.6517
   77MOL    H4718439   6.857   1.089   7.026 -0.7791  2.1044 -1.1016
   77MOL    H4818440   7.028   1.109   7.062 -0.7195 -2.7202  0.0955
   77MOL    H4918441   7.157   1.332   6.688 -0.9005 -3.1551 -0.8033
   77MOL    C5018442   6.933   1.372   7.010  0.9378 -0.2028  0.0036
   77MOL    C5118443   6.830   1.378   7.131 -0.2594 -0.1455 -0.3995
   77MOL    C5218444   6.693   1.306   7.115  0.5997  1.0755  0.2665
   77MOL    C5318445   6.909   1.311   7.244 -0.1953 -0.0187 -0.5807
   77MOL    O5418446   7.003   1.360   7.312  0.4284 -0.3695  0.4990
   77MOL    O5518447   6.852   1.193   7.283 -0.1204  0.3453 -0.2387
   77MOL    H5618448   7.034   1.373   7.049  0.7836  0.5491  0.3882
   77MOL    H5718449   6.918   1.465   6.955  2.1691  0.1262  0.2271
   77MOL    H5818450   6.698   1.207   7.070  0.5131  1.8828 -1.5882
   77MOL    H5918451   6.638   1.361   7.038  0.2523  1.4375  0.7676
   77MOL    H6018452   6.629   1.301   7.203  2.3516 -1.0624  1.4862
   77MOL    H6118453   6.775   1.161   7.238  0.5385  0.3228 -1.3629
   77MOL    C6218454   6.828   1.535   7.159  0.3886 -0.1115  0.2494
   77MOL    C6318455   6.707   1.631   7.114 -0.2912  0.0442  0.2659
   77MOL    C6418456   6.694   1.626   6.962  0.3576  0.4870  0.9562
   77MOL    C6518457   6.573   1.584   7.174 -0.1068  0.0227  0.1297
   77MOL    O6618458   6.468   1.594   7.118  0.3609  0.3808  0.2426
   77MOL    O6718459   6.589   1.542   7.303  0.7007 -0.1125 -0.3298
   77MOL    H6818460   6.829   1.538   7.268  2.7275 -3.8435  0.4328
   77MOL    H6918461   6.925   1.576   7.132 -0.8214  0.6736 -3.1686
   77MOL    H7018462   6.700   1.524   6.923 -0.4288  0.9448 -0.3796
   77MOL    H7118463   6.778   1.683   6.921 -1.0414  1.1849 -1.0129
   77MOL    H7218464   6.604   1.672   6.923  0.4086  1.9410  2.5211
   77MOL    H7318465   6.499   1.549   7.330  0.6866 -0.2011 -0.3546
   77MOL    C7418466   6.751   1.774   7.174 -0.1523  0.0600 -0.6501
   77MOL    C7518467   6.669   1.908   7.161 -0.0843  0.1160  0.7855
   77MOL    C7618468   6.681   1.969   7.015 -0.0335  0.1529  0.7733
   77MOL    C7718469   6.527   1.888   7.209 -0.0873 -0.7465 -0.1281
   77MOL    O7818470   6.512   1.859   7.323  0.2481  0.0038  0.4444
   77MOL    O7918471   6.430   1.892   7.114 -0.5223 -0.2082  0.0716
   77MOL    H8018472   6.755   1.765   7.283 -1.0131  1.7772 -0.4604
   77MOL    H8118473   6.851   1.802   7.143 -0.1017  1.1922  0.4861
   77MOL    H8218474   6.633   2.067   7.007  1.1814  0.7994  1.2201
   77MOL    H8318475   6.657   1.892   6.942  0.9390 -1.4254  2.0819
   77MOL    H8418476   6.780   1.998   6.979  0.2829 -1.1209  0.6215
   77MOL    H8518477   6.350   1.863   7.155  0.2121  0.4861  2.0607
   77MOL    C8618478   6.741   2.006   7.260  0.4611  0.7795  0.1200
   77MOL    C8718479   6.705   2.166   7.271 -0.5444  0.0285 -0.3834
   77MOL    C8818480   6.553   2.187   7.286  0.2905  0.0396 -0.7234
   77MOL    C8918481   6.760   2.212   7.413 -0.0923  0.5927 -0.2742
   77MOL    O9018482   6.692   2.255   7.508 -0.2132 -0.1534 -0.3818
   77MOL    O9118483   6.894   2.190   7.425 -0.3889 -0.2990  0.0588
   77MOL    H9218484   6.742   1.970   7.362  2.1895 -3.1167 -1.1807
   77MOL    H9318485   6.848   1.993   7.243  0.2443 -1.2311  0.2113
   77MOL    H9418486   6.491   2.146   7.206 -0.3253  0.1012 -0.2820
   77MOL    H9518487   6.529   2.293   7.286  2.6654  0.6052 -1.1691
   77MOL    H9618488   6.521   2.139   7.378  0.9532  0.0163 -0.5036
   77MOL    H9718489   6.922   2.225   7.509 -0.6747  0.0965 -0.0113
   77MOL    C9818490   6.777   2.251   7.160  0.5068  0.0216  0.2446
   77MOL    C9918491   6.725   2.381   7.096 -0.0265 -0.2100  0.0545
   77MOL   C10018492   6.596   2.357   7.018 -0.3428 -0.4861 -0.2932
   77MOL   C10118493   6.686   2.486   7.201 -0.3017 -0.1843 -0.3392
   77MOL   O10218494   6.689   2.475   7.322  0.0507  0.4180  0.3287
   77MOL   O10318495   6.643   2.601   7.136 -0.1064 -0.0366 -1.0289
   77MOL   H10418496   6.877   2.268   7.198  0.3799  1.3325 -0.0038
   77MOL   H10518497   6.802   2.181   7.080  1.8675 -1.9272  2.3052
   77MOL   H10618498   6.504   2.371   7.075 -0.8265 -1.0267 -0.9289
   77MOL   H10718499   6.593   2.256   6.977 -0.6375 -1.2364  1.5358
   77MOL   H10818500   6.582   2.421   6.931  0.6109 -0.2109 -0.2445
   77MOL   H10918501   6.611   2.663   7.200 -1.1590 -0.6024 -0.9978
   77MOL   C11018502   6.831   2.439   6.993  0.0102 -0.8249  0.2974
   77MOL   C11118503   6.976   2.487   7.033 -0.5585 -0.2126 -0.5961
   77MOL   C11218504   6.975   2.575   7.159  0.0357 -0.0296  0.1692
   77MOL   C11318505   7.071   2.370   7.077  0.3643  0.0354  0.1403
   77MOL   O11418506   7.158   2.383   7.163  0.0656  0.1689  0.1019
   77MOL   O11518507   7.047   2.253   7.014  0.2634 -0.0765  0.4469
   77MOL   H11618508   6.838   2.365   6.913 -0.1305 -1.5233  0.9249
   77MOL   H11718509   6.784   2.525   6.944  0.6795 -0.5432  0.1494
   77MOL   H11818510   7.072   2.617   7.188  1.0705 -1.5040 -1.0602
   77MOL   H11918511   6.949   2.517   7.247  1.2169 -0.4897  0.2320
   77MOL   H12018512   6.901   2.653   7.145  1.5541  1.2781 -0.8177
   77MOL   H12118513   7.105   2.199   7.065 -2.5464 -0.0776  3.8043
   77MOL   C12218514   7.028   2.579   6.908  0.0051  0.3121  0.7832
   77MOL   C12318515   7.152   2.534   6.819  0.6392 -0.4138  0.1713
   77MOL   C12418516   7.280   2.525   6.897 -1.3162  0.1148  0.0168
   77MOL   C12518517   7.138   2.388   6.766  1.1448  0.5999  1.2385
   77MOL   O12618518   7.216   2.292   6.782  0.0053  0.6918 -0.0012
   77MOL   O12718519   7.016   2.379   6.712  0.1156  0.4894 -0.0347
   77MOL   H12818520   6.948   2.601   6.837  0.8893 -0.3359 -0.4322
   77MOL   H12918521   7.040   2.679   6.950 -0.9186  1.6953 -2.1312
   77MOL   H13018522   7.274   2.595   6.980 -0.9862  1.3965 -1.0224
   77MOL   H13118523   7.368   2.555   6.839  0.4996  0.8425  3.0558
   77MOL   H13218524   7.310   2.429   6.937 -1.2342 -1.4470 -3.5369
   77MOL   H13318525   6.994   2.287   6.712  1.7484  0.0805  0.5494
   77MOL   C13418526   7.180   2.631   6.698  0.5643 -0.0456  0.2290
   77MOL   C13518527   7.166   2.788   6.693 -0.4397  1.0921  0.3952
   77MOL   C13618528   7.009   2.816   6.695 -0.5839 -0.5053  0.3876
   77MOL   C13718529   7.238   2.846   6.822 -0.1061  0.2110  0.7995
   77MOL   O13818530   7.183   2.898   6.921 -0.0018 -0.2407  0.0099
   77MOL   O13918531   7.370   2.814   6.816 -0.6786 -0.7363  0.3794
   77MOL   H14018532   7.282   2.611   6.663 -0.0169 -3.7780  0.4617
   77MOL   H14118533   7.120   2.614   6.608  1.8204  0.6361 -0.7659
   77MOL   H14218534   6.955   2.814   6.790 -1.7162 -0.4491 -0.2430
   77MOL   H14318535   6.948   2.749   6.634  0.9794 -1.2566 -0.3702
   77MOL   H14418536   6.996   2.917   6.657 -1.9315 -1.1846 -0.9847
   77MOL   H14518537   7.431   2.861   6.871 -0.7113  1.8170 -1.6398
   77MOL   C14618538   7.243   2.858   6.574 -0.3303  0.0385 -0.2061
   77MOL   C14718539   7.206   2.850   6.419  1.0046  0.0844 -0.5163
   77MOL   C14818540   7.336   2.906   6.355 -0.2014 -0.5702 -0.7144
   77MOL   C14918541   7.180   2.706   6.380 -0.3910 -0.2645  0.3880
   77MOL   O15018542   7.069   2.665   6.354  0.1012 -0.3079  0.0712
   77MOL   O15118543   7.291   2.637   6.369  0.2710 -0.2197 -0.2429
   77MOL   H15218544   7.236   2.962   6.607  0.0861 -0.0834  0.2881
   77MOL   H15318545   7.350   2.841   6.590 -0.2185  0.8595 -0.0666
   77MOL   H15418546   7.426   2.847   6.374 -0.5524 -1.0521 -0.5406
   77MOL   H15518547   7.356   3.009   6.384 -0.5530 -1.3050  2.3163
   77MOL   H15618548   7.320   2.913   6.247 -0.0458 -0.9273 -0.7636
   77MOL   H15718549   7.274   2.546   6.350 -1.2988  0.2127 -0.9585
   77MOL   C15818550   7.073   2.935   6.398 -0.2697 -0.3085  0.1522
   77MOL   C15918551   7.055   3.029   6.270  0.8869 -0.0865  0.5559
   77MOL   C16018552   7.150   3.155   6.279 -0.8312  0.0187  0.6105
   77MOL   C16118553   7.076   2.958   6.131 -0.6791  0.6161 -0.0477
   77MOL   O16218554   7.098   2.841   6.105 -0.6247 -0.0881  0.6719
   77MOL   O16318555   7.080   3.051   6.032 -0.6149 -0.4526  0.0743
   77MOL   H16418556   6.984   2.874   6.414 -1.2764  1.4478  1.4380
   77MOL   H16518557   7.076   3.007   6.480  3.4868  0.3875 -0.5256
   77MOL   H16618558   7.092   3.240   6.244  0.7580  0.9761  0.2878
   77MOL   H16718559   7.237   3.140   6.215 -1.2924 -1.0369  0.2104
   77MOL   H16818560   7.174   3.181   6.382 -1.6090  1.9242  0.3301
   77MOL   H16918561   7.078   3.010   5.946  1.9082 -0.7311  0.1110
   77MOL   C17018562   6.903   3.082   6.274 -0.4639 -0.1833 -0.0128
   77MOL   C17118563   6.773   3.006   6.313 -0.2557  0.3111 -0.5174
   77MOL   C17218564   6.775   2.887   6.227  0.4708  0.5316 -0.3824
   77MOL   C17318565   6.767   2.983   6.469 -0.0576 -0.1688 -0.1247
   77MOL   O17418566   6.789   3.073   6.548 -0.2130  0.3029 -0.0065
   77MOL   O17518567   6.725   2.863   6.506  0.0258  0.3933  0.2133
   77MOL   H17618568   6.898   3.178   6.325 -0.0117 -0.3951  0.4403
   77MOL   H17718569   6.884   3.121   6.174 -0.5350 -0.1494  0.0137
   77MOL   H17818570   6.790   2.913   6.122 -1.0380 -1.2444 -1.0727
   77MOL   H17918571   6.680   2.834   6.240  0.2429  1.1959  0.7259
   77MOL   H18018572   6.855   2.814   6.244 -1.5212 -1.1370  2.1699
   77MOL   H18118573   6.749   2.850   6.596  0.0527  0.5498  0.2289
   77MOL   C18218574   6.658   3.100   6.258  0.1408 -0.0791  0.6644
   77MOL   C18318575   6.503   3.080   6.288  0.5262  0.3708 -0.4631
   77MOL   C18418576   6.457   2.929   6.305 -0.8670 -0.6644 -0.5979
   77MOL   C18518577   6.460   3.153   6.418 -0.0243 -0.1655  0.1856
   77MOL   O18618578   6.528   3.246   6.457 -0.0542  0.6164  0.5288
   77MOL   O18718579   6.341   3.106   6.466 -0.1313  0.5330 -0.7630
   77MOL   H18818580   6.676   3.207   6.265 -2.5382  0.4377 -0.0053
   77MOL   H18918581   6.675   3.089   6.151  0.1932  3.2536  0.2832
   77MOL   H19018582   6.350   2.911   6.308 -1.1015  0.8678  1.7853
   77MOL   H19118583   6.499   2.877   6.391 -1.5633 -1.1269 -0.5358
   77MOL   H19218584   6.482   2.876   6.213  1.5602 -0.4506 -0.0915
   77MOL   H19318585   6.315   3.156   6.543  2.5971 -0.7590  1.0531
   77MOL   C19418586   6.412   3.135   6.172  0.0792  0.2401  0.5240
   77MOL   C19518587   6.411   3.272   6.107 -0.2216 -0.6228  0.1932
   77MOL   C19618588   6.365   3.376   6.216 -0.9793 -0.0982 -0.2442
   77MOL   C19718589   6.551   3.311   6.054  1.0696 -0.0282 -0.1152
   77MOL   O19818590   6.603   3.245   5.961  0.3333 -0.7717 -0.0970
   77MOL   O19918591   6.610   3.416   6.114  0.4858  0.2467  0.1748
   77MOL   H20018592   6.410   3.054   6.099 -0.4995 -0.2684  1.1041
   77MOL   H20118593   6.313   3.136   6.217  0.4584 -1.5362  1.4408
   77MOL   H20218594   6.276   3.342   6.267  0.6581 -0.9095  2.1549
   77MOL   H20318595   6.348   3.468   6.159 -0.8683 -1.0483 -1.8540
   77MOL   H20418596   6.446   3.393   6.288 -2.6045  0.5529  1.4639
   77MOL   H20518597   6.689   3.432   6.065 -0.5044  0.1304 -1.4755
   77MOL   C20618598   6.324   3.278   5.979  0.5472 -0.1379 -0.3395
   77MOL   C20718599   6.183   3.219   5.965 -0.0891 -0.0982 -0.4250
   77MOL   C20818600   6.194   3.064   5.956  0.0055 -0.0867 -0.1922
   77MOL   C20918601   6.085   3.263   6.078  0.0561  0.5568  0.0783
   77MOL   O21018602   6.002   3.203   6.147 -0.1110  0.2728 -0.0429
   77MOL   O21118603   6.087   3.398   6.077  0.2216  0.0203 -0.0643
   77MOL   H21218604   6.324   3.383   5.953  0.1503  0.1379  0.7411
   77MOL   H21318605   6.381   3.239   5.894  0.5625  0.5536 -0.6459
   77MOL   H21418606   6.125   3.022   5.883  0.1747  0.4356 -0.6504
   77MOL   H21518607   6.190   3.015   6.054 -1.3964  0.8439  0.2282
   77MOL   H21618608   6.292   3.046   5.911 -0.6362  0.7680 -1.9659
   77MOL   H21718609   6.015   3.422   6.133 -1.2639 -0.7056 -1.6059
   77MOL   C21818610   6.143   3.275   5.822 -0.2135  0.3292  0.1004
   77MOL   C21918611   5.995   3.270   5.765  0.1398 -0.0201  0.3534
   77MOL   C22018612   5.924   3.132   5.789 -0.5017  0.2252 -0.1677
   77MOL   C22118613   5.902   3.378   5.829 -0.2065  0.6827 -0.5855
   77MOL   O22218614   5.793   3.351   5.872  0.5979 -0.6585  0.3711
   77MOL   O22318615   5.952   3.504   5.819 -0.2454 -0.0736 -0.3205
   77MOL   H22418616   6.156   3.383   5.826 -0.8603  0.4113  0.0978
   77MOL   H22518617   6.206   3.240   5.740 -0.4480  2.8255 -1.2123
   77MOL   H22618618   5.961   3.053   5.723  1.1703 -0.4328  1.5150
   77MOL   H22718619   5.822   3.144   5.752 -0.4624 -0.6406 -0.5832
   77MOL   H22818620   5.915   3.101   5.893  0.8303 -3.9646 -1.1842
   77MOL   H22918621   5.895   3.565   5.862 -1.4314  0.5101 -2.6500
   77MOL   C23018622   6.003   3.290   5.604  0.1738  0.0450 -0.1185
   77MOL   C23118623   6.064   3.420   5.547  0.1507 -0.8264 -0.3197
   77MOL   C23218624   6.147   3.399   5.424 -0.3651  1.1266 -0.1949
   77MOL   C23318625   5.949   3.516   5.515  0.8981 -0.3699  1.1224
   77MOL   O23418626   5.842   3.479   5.462  0.4103 -0.6250 -0.4725
   77MOL   O23518627   5.983   3.650   5.529  0.4899 -0.4826  0.4645
   77MOL   H23618628   6.066   3.209   5.568 -0.0003 -0.3387  0.4484
   77MOL   H23718629   5.903   3.272   5.566 -0.4088  1.3115  0.7763
   77MOL   H23818630   6.190   3.488   5.378  0.1349  0.4832 -1.0004
   77MOL   H23918631   6.079   3.356   5.349 -1.6006  1.7549  0.5488
   77MOL   H24018632   6.229   3.332   5.448 -1.0368 -0.2390 -1.5275
   77MOL   H24118633   5.908   3.691   5.488  0.9051 -1.9152 -1.8246
   77MOL   H24218634   6.136   3.471   5.611  0.2676 -0.6388 -0.5958
   78MOL     C118635   2.808   0.796   5.678  0.1263  0.4700 -0.7281
   78MOL     C218636   2.889   0.750   5.807 -0.9263  0.0981  0.3518
   78MOL     C318637   2.833   0.820   5.930 -0.3866  0.2579  0.7258
   78MOL     C418638   2.893   0.595   5.824  0.3936 -0.7706  0.5606
   78MOL     O518639   2.987   0.528   5.855  0.4742  0.5553 -0.0693
   78MOL     O618640   2.768   0.542   5.809 -0.0183  0.0914 -0.0307
   78MOL     H718641   2.841   0.739   5.592  2.5459  2.2300 -1.0520
   78MOL     H818642   2.825   0.897   5.640 -0.7589  1.5826  1.7177
   78MOL     H918643   2.733   0.785   5.954 -0.0541 -0.9253  0.4226
   78MOL    H1018644   2.830   0.929   5.926 -0.9249  0.2519  0.9880
   78MOL    H1118645   2.896   0.797   6.017  1.5449  2.2427 -0.1138
   78MOL    H1218646   2.767   0.448   5.819 -1.7941  0.0992 -0.0436
   78MOL    H1318647   2.700   0.788   5.687  0.3200 -1.1915  0.3662
   78MOL    C1418648   3.038   0.810   5.803 -0.1887  0.0186  0.7853
   78MOL    C1518649   3.128   0.806   5.673 -0.3140  0.2348 -0.5944
   78MOL    C1618650   3.147   0.658   5.620 -0.3374 -0.3823  0.3004
   78MOL    C1718651   3.077   0.901   5.559 -0.3064 -0.2846  0.4667
   78MOL    O1818652   3.056   1.016   5.581  0.0218 -0.3963  0.2671
   78MOL    O1918653   3.099   0.841   5.434  0.6709 -0.7270 -0.2575
   78MOL    H2018654   3.034   0.915   5.830  0.8789 -0.2790  2.1385
   78MOL    H2118655   3.098   0.774   5.886  1.1378  0.7205  0.1467
   78MOL    H2218656   3.053   0.629   5.573 -0.4428  0.4035  0.0192
   78MOL    H2318657   3.181   0.579   5.686 -1.1629 -2.1360 -1.3317
   78MOL    H2418658   3.226   0.653   5.545 -0.0366 -2.5389  0.7243
   78MOL    H2518659   3.069   0.894   5.362  2.1191  1.4316  0.6609
   78MOL    C2618660   3.266   0.857   5.724  0.3626  0.0785 -0.5072
   78MOL    C2718661   3.387   0.926   5.643 -0.5442 -0.0877 -0.0933
   78MOL    C2818662   3.409   0.864   5.500  0.1539 -0.4823  0.5757
   78MOL    C2918663   3.375   1.081   5.630  0.0851 -0.1610  0.0828
   78MOL    O3018664   3.313   1.144   5.712 -0.1893  0.1521 -0.2024
   78MOL    O3118665   3.450   1.137   5.534  0.5271  0.1386 -0.6330
   78MOL    H3218666   3.241   0.926   5.805 -0.4422 -1.5504  0.6447
   78MOL    H3318667   3.304   0.768   5.773 -1.1719 -0.5724 -0.4850
   78MOL    H3418668   3.345   0.905   5.422 -0.1319 -2.7429 -0.4427
   78MOL    H3518669   3.404   0.756   5.485  0.1000 -0.3059 -0.8013
   78MOL    H3618670   3.506   0.885   5.455  0.8776 -1.4274  1.6568
   78MOL    H3718671   3.424   1.227   5.523 -0.8691 -0.5534 -3.4585
   78MOL    C3818672   3.514   0.875   5.720 -0.3720 -0.3650  0.1639
   78MOL    C3918673   3.567   0.938   5.857  0.5527  0.2994 -0.1761
   78MOL    C4018674   3.451   0.970   5.962 -0.2150 -0.1081  0.2218
   78MOL    C4118675   3.667   0.831   5.906 -0.5404 -0.3236 -1.4532
   78MOL    O4218676   3.746   0.769   5.832 -0.6583 -0.1227 -0.3492
   78MOL    O4318677   3.658   0.814   6.036 -0.0919  0.1636 -0.3501
   78MOL    H4418678   3.508   0.768   5.738  0.1427 -0.2882  0.8489
   78MOL    H4518679   3.602   0.884   5.656  0.5556 -0.2728  1.4266
   78MOL    H4618680   3.392   0.879   5.978  0.0477 -0.1153  1.2067
   78MOL    H4718681   3.395   1.052   5.916 -0.0567  0.5517  1.1964
   78MOL    H4818682   3.487   1.009   6.057  2.0865  0.1205 -0.7230
   78MOL    H4918683   3.710   0.742   6.068 -0.4064 -0.7721 -1.8853
   78MOL    C5018684   3.641   1.080   5.838 -0.3281 -0.2777  0.1864
   78MOL    C5118685   3.750   1.155   5.932  0.0459  0.5523 -1.1076
   78MOL    C5218686   3.698   1.146   6.077  0.8542 -0.5966  0.2918
   78MOL    C5318687   3.882   1.076   5.931  0.3700 -0.3467 -0.0271
   78MOL    O5418688   3.947   1.034   6.024 -0.2380 -0.1846  0.4528
   78MOL    O5518689   3.932   1.069   5.806 -0.3530  0.3621  0.2182
   78MOL    H5618690   3.684   1.080   5.737  0.4770  0.7120  0.5277
   78MOL    H5718691   3.566   1.156   5.815  1.2826  2.1084  2.5874
   78MOL    H5818692   3.597   1.184   6.089  0.4926 -0.7406 -2.1086
   78MOL    H5918693   3.764   1.201   6.144 -0.1291  0.7074  0.2097
   78MOL    H6018694   3.698   1.041   6.108 -0.5483 -0.5670  0.4246
   78MOL    H6118695   4.009   1.015   5.794 -0.8690 -0.1251 -0.9806
   78MOL    C6218696   3.789   1.300   5.861 -0.0118 -0.2202 -0.3390
   78MOL    C6318697   3.706   1.433   5.893 -0.4331  0.4440  0.7844
   78MOL    C6418698   3.763   1.545   5.792  0.4602  0.0591 -0.2003
   78MOL    C6518699   3.555   1.408   5.867 -0.0832  0.6705 -0.2574
   78MOL    O6618700   3.509   1.410   5.754  0.1744  0.1788 -0.1118
   78MOL    O6718701   3.489   1.366   5.978 -0.2974  0.5831  0.1403
   78MOL    H6818702   3.894   1.312   5.886  0.7244 -3.1897 -1.7661
   78MOL    H6918703   3.795   1.280   5.754  1.3716 -2.1840  0.0990
   78MOL    H7018704   3.694   1.629   5.801  0.2392 -0.3171  1.8847
   78MOL    H7118705   3.768   1.503   5.692  1.6848  1.7909 -0.8766
   78MOL    H7218706   3.862   1.580   5.823 -0.1148  1.1721  0.3924
   78MOL    H7318707   3.398   1.353   5.957  0.1439 -0.4944 -1.2045
   78MOL    C7418708   3.741   1.484   6.035 -0.2298 -0.0456 -0.3262
   78MOL    C7518709   3.717   1.628   6.106 -0.1901  0.4729 -0.3749
   78MOL    C7618710   3.803   1.740   6.040  0.0570 -0.0870  0.5068
   78MOL    C7718711   3.564   1.652   6.092  0.2597  0.2917 -0.3230
   78MOL    O7818712   3.518   1.746   6.028 -0.1853  0.0883  0.2813
   78MOL    O7918713   3.483   1.573   6.159 -0.0658 -0.4250 -0.5535
   78MOL    H8018714   3.692   1.418   6.107  0.7233  0.1237  0.4910
   78MOL    H8118715   3.849   1.469   6.042 -0.0892  0.7246 -0.7814
   78MOL    H8218716   3.782   1.769   5.937  0.0102  2.2893  1.1479
   78MOL    H8318717   3.910   1.722   6.045  0.0138 -0.3817  0.3318
   78MOL    H8418718   3.788   1.839   6.085 -1.9048 -0.8357  1.5385
   78MOL    H8518719   3.528   1.494   6.186  0.4470  0.4590  1.2490
   78MOL    C8618720   3.754   1.621   6.258  0.5796 -0.0629 -0.1723
   78MOL    C8718721   3.712   1.726   6.372 -0.8537 -0.4882 -0.0568
   78MOL    C8818722   3.751   1.872   6.344 -0.2314 -0.0984 -0.1849
   78MOL    C8918723   3.561   1.730   6.408  0.0909 -0.4447 -0.4434
   78MOL    O9018724   3.491   1.829   6.420 -0.0972 -0.3874 -0.3521
   78MOL    O9118725   3.518   1.609   6.456  0.3820 -0.0388  0.1638
   78MOL    H9218726   3.741   1.517   6.288  1.3907  0.1877  1.0645
   78MOL    H9318727   3.859   1.645   6.245  0.8961 -2.1557 -1.8259
   78MOL    H9418728   3.701   1.914   6.256  1.3339  1.7363 -0.2270
   78MOL    H9518729   3.858   1.876   6.324 -0.3108  1.1521 -0.3936
   78MOL    H9618730   3.726   1.938   6.427  0.9147  1.3865 -0.9996
   78MOL    H9718731   3.428   1.620   6.484 -0.0869  2.7269 -2.1420
   78MOL    C9818732   3.779   1.685   6.511 -0.0100  0.2098 -0.1516
   78MOL    C9918733   3.934   1.687   6.545 -0.2801 -0.8031 -0.3608
   78MOL   C10018734   4.019   1.622   6.435 -0.0704  0.5724 -0.1145
   78MOL   C10118735   3.994   1.830   6.565  0.6658 -0.0563  0.5494
   78MOL   O10218736   3.927   1.935   6.581  0.6487  0.6887  0.4774
   78MOL   O10318737   4.123   1.825   6.564  0.1362  0.2069  0.3282
   78MOL   H10418738   3.725   1.742   6.587  0.7874  0.7867 -0.0149
   78MOL   H10518739   3.745   1.583   6.529  0.0052 -0.0895 -1.8008
   78MOL   H10618740   3.974   1.530   6.396  2.2848 -1.5311  1.9768
   78MOL   H10718741   4.109   1.582   6.481 -1.0518 -0.1849  1.1828
   78MOL   H10818742   4.037   1.685   6.348 -0.9783  1.9365  0.6700
   78MOL   H10918743   4.151   1.915   6.552 -3.6857  1.6125  1.3250
   78MOL   C11018744   3.960   1.623   6.683 -0.1811  0.4209  0.4149
   78MOL   C11118745   3.916   1.483   6.720  0.1268  0.8481  0.0380
   78MOL   C11218746   3.784   1.493   6.800 -0.6132 -0.7437 -0.4985
   78MOL   C11318747   3.895   1.382   6.602  0.2527  0.1234 -0.3744
   78MOL   O11418748   3.784   1.333   6.575  0.3585 -0.0805 -0.1275
   78MOL   O11518749   4.009   1.347   6.542 -0.0502 -0.1515  0.7355
   78MOL   H11618750   4.068   1.630   6.692  0.1755 -2.4142 -1.1153
   78MOL   H11718751   3.916   1.695   6.753 -2.0052  0.3145 -0.5839
   78MOL   H11818752   3.805   1.522   6.903 -1.1144  0.4196 -0.7171
   78MOL   H11918753   3.728   1.400   6.809  0.3100 -1.5466 -2.6950
   78MOL   H12018754   3.719   1.570   6.758  0.1334  0.2238  0.0929
   78MOL   H12118755   4.005   1.279   6.477  0.1752  0.1966  0.3508
   78MOL   C12218756   4.029   1.432   6.820 -0.3393  0.1505 -0.4824
   78MOL   C12318757   4.043   1.293   6.902  0.0267  0.1135  0.2507
   78MOL   C12418758   4.171   1.293   6.988 -0.1047  0.3939 -0.6586
   78MOL   C12518759   3.928   1.301   7.004  0.2372 -0.5786  0.2200
   78MOL   O12618760   3.931   1.390   7.086 -0.2486 -0.2446 -0.3277
   78MOL   O12718761   3.819   1.226   6.969  0.3442 -0.4691 -0.5570
   78MOL   H12818762   4.125   1.438   6.770 -1.1119 -0.1301 -2.0276
   78MOL   H12918763   4.043   1.516   6.888 -1.3436  0.0944 -0.1889
   78MOL   H13018764   4.266   1.292   6.935 -0.2097  1.3106 -0.8758
   78MOL   H13118765   4.172   1.216   7.064 -0.4238 -1.3906 -2.4236
   78MOL   H13218766   4.185   1.385   7.044  1.1078  0.0354 -0.3557
   78MOL   H13318767   3.763   1.246   7.042  1.3634  0.3718  0.0074
   78MOL   C13418768   4.035   1.177   6.807 -0.5368 -0.6491  0.4233
   78MOL   C13518769   4.076   1.025   6.823 -0.5818 -0.6284  0.1741
   78MOL   C13618770   4.228   1.023   6.830 -0.1784  0.0498 -0.2157
   78MOL   C13718771   4.024   0.948   6.950  0.6890  0.1460 -0.3887
   78MOL   O13818772   4.095   0.874   7.022  0.4034 -0.1888  0.0938
   78MOL   O13918773   3.895   0.962   6.983  0.7283 -0.4018  0.0305
   78MOL   H14018774   3.932   1.172   6.770 -0.2798  2.0057 -0.7948
   78MOL   H14118775   4.099   1.198   6.721  0.2355 -2.4281  0.5440
   78MOL   H14218776   4.282   1.079   6.754  1.7152  1.0202  1.8020
   78MOL   H14318777   4.277   0.926   6.837 -0.1980 -0.0302 -1.1242
   78MOL   H14418778   4.261   1.068   6.924 -1.5233  0.0310  0.2790
   78MOL   H14518779   3.839   1.028   6.944  0.9926 -0.3946 -0.3383
   78MOL   C14618780   4.033   0.965   6.686 -0.1172  0.2786 -0.2690
   78MOL   C14718781   4.022   0.806   6.656  0.3482  0.3771  0.6818
   78MOL   C14818782   4.140   0.726   6.710 -0.3327 -0.6272  0.4763
   78MOL   C14918783   3.888   0.748   6.719 -0.2393  0.3334 -0.5258
   78MOL   O15018784   3.791   0.820   6.741  0.2057  0.5576 -0.0088
   78MOL   O15118785   3.888   0.616   6.749 -0.3441 -0.2160  0.3633
   78MOL   H15218786   3.933   1.002   6.664  0.5910  2.6352  0.3179
   78MOL   H15318787   4.088   1.014   6.605 -0.4209  1.7486  0.3949
   78MOL   H15418788   4.140   0.723   6.819 -0.5137 -0.6101  0.4762
   78MOL   H15518789   4.231   0.778   6.679 -0.6962  0.4031  1.0969
   78MOL   H15618790   4.146   0.622   6.678 -1.4556 -0.9758  1.3882
   78MOL   H15718791   3.805   0.596   6.789 -1.5767 -0.3140 -2.1370
   78MOL   C15818792   4.025   0.771   6.500 -0.6592 -0.1399  0.0545
   78MOL   C15918793   3.904   0.797   6.398  0.0520 -0.4556 -0.0809
   78MOL   C16018794   3.806   0.683   6.413 -0.5147 -0.1323  0.5970
   78MOL   C16118795   3.831   0.927   6.427  0.8501 -0.2813 -0.1709
   78MOL   O16218796   3.888   1.038   6.432 -0.0211 -0.1023 -0.3177
   78MOL   O16318797   3.699   0.923   6.459  0.0009 -0.6829  0.0981
   78MOL   H16418798   4.120   0.815   6.471 -1.4287  0.4143 -1.7203
   78MOL   H16518799   4.039   0.664   6.510 -1.0386 -0.4704 -2.7221
   78MOL   H16618800   3.858   0.587   6.418 -1.4061 -0.5387  2.7712
   78MOL   H16718801   3.726   0.688   6.338  1.1128 -0.5672 -1.2066
   78MOL   H16818802   3.751   0.673   6.507 -0.8096  0.9537  0.5447
   78MOL   H16918803   3.667   1.006   6.491 -0.1523 -0.3758 -0.8390
   78MOL   C17018804   3.953   0.809   6.248  0.1330  0.2230 -0.1458
   78MOL   C17118805   4.022   0.692   6.168  0.1347 -0.5244 -0.0601
   78MOL   C17218806   4.145   0.632   6.247 -0.3494 -0.0122  0.0198
   78MOL   C17318807   3.907   0.592   6.143 -0.6381  0.4382  0.9555
   78MOL   O17418808   3.799   0.618   6.097 -0.0845  0.0208  0.3348
   78MOL   O17518809   3.948   0.467   6.165 -0.4826  0.5838 -0.5511
   78MOL   H17618810   3.866   0.847   6.195 -0.0280 -0.1229 -0.1266
   78MOL   H17718811   4.022   0.894   6.244  0.3143  0.0596 -0.5202
   78MOL   H17818812   4.213   0.715   6.269 -3.1486  2.5122 -0.5103
   78MOL   H17918813   4.202   0.558   6.191  1.7522  2.8573 -1.7489
   78MOL   H18018814   4.112   0.584   6.339  1.3902 -1.4821 -0.0990
   78MOL   H18118815   3.876   0.410   6.142 -0.7366  0.2532  0.9877
   78MOL   C18218816   4.072   0.758   6.032  0.4437 -0.4483 -0.2553
   78MOL   C18318817   4.141   0.678   5.909 -0.2075 -0.2794  0.6646
   78MOL   C18418818   4.099   0.529   5.907  0.1800 -0.1974 -0.2629
   78MOL   C18518819   4.099   0.756   5.778  0.2796 -0.3746  0.0910
   78MOL   O18618820   4.116   0.877   5.763 -0.2501  0.2557 -0.0058
   78MOL   O18718821   4.010   0.684   5.699  0.0335  0.2885  0.3717
   78MOL   H18818822   3.981   0.798   5.987  0.6240  0.3559  0.0725
   78MOL   H18918823   4.124   0.853   6.046 -0.0548 -0.4706  1.9328
   78MOL   H19018824   4.139   0.478   5.995 -2.4845 -0.1553  1.0391
   78MOL   H19118825   4.156   0.473   5.833  0.5120 -1.0683  0.6415
   78MOL   H19218826   3.990   0.520   5.901  0.2989 -1.6294 -0.6109
   78MOL   H19318827   3.954   0.743   5.650  0.4411  0.6931  0.3887
   78MOL   C19418828   4.295   0.681   5.934  0.2177 -0.2757 -0.2285
   78MOL   C19518829   4.410   0.697   5.817  0.4182  0.1727  0.2647
   78MOL   C19618830   4.420   0.851   5.783  0.0479  0.0074 -0.2669
   78MOL   C19718831   4.544   0.646   5.887 -0.2581 -0.2587  0.1728
   78MOL   O19818832   4.653   0.707   5.888 -0.2730  0.4599 -0.0315
   78MOL   O19918833   4.536   0.519   5.941  0.3559 -0.1339 -0.6091
   78MOL   H20018834   4.310   0.763   6.005 -1.5539 -0.8749  0.8890
   78MOL   H20118835   4.318   0.594   5.995 -1.7943 -0.3647  0.4472
   78MOL   H20218836   4.339   0.911   5.826  0.2084  0.5424 -0.7046
   78MOL   H20318837   4.416   0.877   5.678 -1.6764  1.2346  0.0784
   78MOL   H20418838   4.508   0.903   5.823 -0.5909  0.7667  0.1709
   78MOL   H20518839   4.617   0.486   5.978 -1.1368 -0.6605  2.3241
   78MOL   C20618840   4.371   0.605   5.697 -0.1904 -0.1656  0.2748
   78MOL   C20718841   4.472   0.568   5.578 -0.3119 -0.4266 -0.5580
   78MOL   C20818842   4.541   0.696   5.533 -0.3523  0.1416 -0.4320
   78MOL   C20918843   4.574   0.459   5.623 -0.1525 -0.1452 -0.6601
   78MOL   O21018844   4.695   0.474   5.610  0.4985 -0.6312  0.1851
   78MOL   O21118845   4.502   0.351   5.673  0.4323 -0.1958 -0.5777
   78MOL   H21218846   4.333   0.516   5.748 -1.9905  0.5782  0.2558
   78MOL   H21318847   4.290   0.647   5.637  1.9931  0.3636 -2.4389
   78MOL   H21418848   4.468   0.771   5.505  1.2496  2.0846  0.4797
   78MOL   H21518849   4.614   0.685   5.452 -0.4252 -1.8474 -0.2581
   78MOL   H21618850   4.588   0.744   5.618  0.7268 -1.3123 -0.1713
   78MOL   H21718851   4.554   0.271   5.675 -0.6194 -0.9001 -1.3264
   78MOL   C21818852   4.390   0.517   5.450 -0.2804 -0.1588  0.3730
   78MOL   C21918853   4.458   0.415   5.339  0.2986 -0.4392  0.4361
   78MOL   C22018854   4.601   0.455   5.302 -0.0880  0.4118 -0.4190
   78MOL   C22118855   4.461   0.267   5.396  0.7502 -0.6171 -0.4700
   78MOL   O22218856   4.562   0.204   5.423 -0.1404 -0.0956  0.0155
   78MOL   O22318857   4.334   0.225   5.421 -0.1407  0.1563  0.0681
   78MOL   H22418858   4.296   0.469   5.477 -0.8525 -1.2217 -3.2728
   78MOL   H22518859   4.344   0.603   5.402 -1.3337 -0.5852  0.6077
   78MOL   H22618860   4.641   0.410   5.210  0.9230 -1.1805  0.7741
   78MOL   H22718861   4.675   0.430   5.378 -1.0982  0.4266  0.5610
   78MOL   H22818862   4.605   0.560   5.275 -0.5243  0.6493  0.4411
   78MOL   H22918863   4.341   0.136   5.453  0.9960 -0.1326 -0.9573
   78MOL   C23018864   4.369   0.408   5.204 -0.9343 -0.0756 -0.2830
   78MOL   C23118865   4.395   0.288   5.101  0.7308  0.2444  0.4771
   78MOL   C23218866   4.290   0.175   5.128  0.3775 -0.1108 -0.4711
   78MOL   C23318867   4.398   0.338   4.954 -0.1202  0.2559 -0.1203
   78MOL   O23418868   4.308   0.328   4.870  0.6518 -0.2501  0.0348
   78MOL   O23518869   4.520   0.391   4.931  0.4565  0.3106 -0.0810
   78MOL   H23618870   4.263   0.423   5.224 -0.9637  2.2838 -2.0086
   78MOL   H23718871   4.384   0.502   5.151 -2.8211  1.2185  1.4019
   78MOL   H23818872   4.195   0.223   5.152  1.0459  0.4853  1.0594
   78MOL   H23918873   4.306   0.104   5.209 -2.1883 -0.5469 -0.2957
   78MOL   H24018874   4.291   0.104   5.045 -0.7734 -1.6292  0.7813
   78MOL   H24118875   4.535   0.428   4.846 -0.7425  0.2485 -0.3208
   78MOL   H24218876   4.496   0.247   5.108  0.2738 -0.9211  0.3514
   79MOL     C118877   2.147   4.553   3.881  0.5381  0.0459 -0.0467
   79MOL     C218878   2.000   4.495   3.895  0.4044 -0.4487 -0.0227
   79MOL     C318879   2.000   4.339   3.876  0.4023  0.1747  0.3320
   79MOL     C418880   1.953   4.535   4.039  0.7202  0.2806  0.1579
   79MOL     O518881   1.940   4.457   4.136  0.6466  0.4373  0.4317
   79MOL     O618882   1.919   4.665   4.038 -0.6461 -0.2006  0.0507
   79MOL     H718883   2.141   4.657   3.849  1.0824  0.2364  0.4699
   79MOL     H818884   2.205   4.508   3.799  1.4316  0.9343  0.0906
   79MOL     H918885   2.001   4.322   3.768 -3.1137  1.2253  0.0962
   79MOL    H1018886   1.917   4.292   3.928 -1.2083  1.4577 -1.0109
   79MOL    H1118887   2.097   4.300   3.907  0.1043  1.7434  3.4463
   79MOL    H1218888   1.874   4.690   4.118 -2.0101  0.6594 -0.9610
   79MOL    H1318889   2.202   4.552   3.975  1.7496  0.3888 -0.7269
   79MOL    C1418890   1.905   4.557   3.788  0.3328 -0.0980  0.4129
   79MOL    C1518891   1.751   4.516   3.771 -0.5035  0.0622  0.0492
   79MOL    C1618892   1.732   4.401   3.671  0.4303  0.7129  0.6433
   79MOL    C1718893   1.682   4.480   3.905 -0.3173 -0.9210 -0.7379
   79MOL    O1818894   1.640   4.566   3.983 -0.3479  0.9372  0.1240
   79MOL    O1918895   1.696   4.353   3.937  0.3919  0.0141  0.1979
   79MOL    H2018896   1.922   4.665   3.795  0.3388 -0.0537 -0.2686
   79MOL    H2118897   1.951   4.535   3.692  1.3295  1.5047  0.5071
   79MOL    H2218898   1.792   4.411   3.580  0.9908  0.5658  0.9924
   79MOL    H2318899   1.629   4.383   3.639  0.6600  1.1689 -0.3827
   79MOL    H2418900   1.767   4.304   3.704  2.8124  1.2259 -0.2737
   79MOL    H2518901   1.689   4.327   4.027  1.8351  1.0030  0.6158
   79MOL    C2618902   1.678   4.650   3.719 -0.5739  0.0072  0.1109
   79MOL    C2718903   1.668   4.707   3.572  0.4813 -0.1496  0.5976
   79MOL    C2818904   1.809   4.715   3.512  0.0022  0.6110  0.4412
   79MOL    C2918905   1.574   4.625   3.474  0.5050 -0.0207 -0.0965
   79MOL    O3018906   1.605   4.588   3.361 -0.2344  0.2423  0.2568
   79MOL    O3118907   1.449   4.618   3.532  0.1710 -0.4053  0.4513
   79MOL    H3218908   1.572   4.638   3.740 -0.9448  2.8764  0.0749
   79MOL    H3318909   1.714   4.725   3.789 -1.1406 -0.6367  1.1050
   79MOL    H3418910   1.879   4.758   3.584 -0.6876 -0.7522  1.9558
   79MOL    H3518911   1.817   4.761   3.414 -0.4456  0.5229  0.3613
   79MOL    H3618912   1.844   4.613   3.502 -1.2212  0.0588  1.5483
   79MOL    H3718913   1.377   4.581   3.483  1.5653 -0.5326 -1.5610
   79MOL    C3818914   1.606   4.856   3.591  0.0008  0.0471  0.0348
   79MOL    C3918915   1.615   4.971   3.482  1.3341 -0.3749 -0.3187
   79MOL    C4018916   1.584   4.915   3.340 -0.1579 -0.2925  0.1123
   79MOL    C4118917   1.503   5.070   3.532  0.3529  0.5363  0.5334
   79MOL    O4218918   1.404   5.091   3.465  0.1237 -0.2030  0.0198
   79MOL    O4318919   1.523   5.131   3.652 -0.4487  0.8234  0.3009
   79MOL    H4418920   1.515   4.848   3.650  0.8715 -0.4173  1.3629
   79MOL    H4518921   1.677   4.902   3.661 -1.8778  0.9612  1.3747
   79MOL    H4618922   1.670   4.858   3.305  1.2445 -0.1175  3.0814
   79MOL    H4718923   1.571   4.990   3.262 -3.0242  0.6353  1.4141
   79MOL    H4818924   1.495   4.851   3.345 -1.3508  1.3722  0.5303
   79MOL    H4918925   1.460   5.200   3.670  0.1707  2.9188 -4.7961
   79MOL    C5018926   1.753   5.042   3.484 -0.5369  0.5553  0.5657
   79MOL    C5118927   1.805   5.153   3.377 -0.5223 -0.3296  0.1489
   79MOL    C5218928   1.862   5.086   3.255  0.0725 -0.8466 -0.6514
   79MOL    C5318929   1.693   5.248   3.332  0.2468  0.4650  0.0272
   79MOL    O5418930   1.654   5.257   3.212  0.4605 -0.4327 -0.1712
   79MOL    O5518931   1.641   5.321   3.437  0.1246  0.4673 -0.0076
   79MOL    H5618932   1.763   5.088   3.582  2.5799 -0.2327  0.6814
   79MOL    H5718933   1.826   4.961   3.473 -1.6771 -0.3956 -0.1159
   79MOL    H5818934   1.881   5.154   3.172 -4.4181 -0.3652 -1.4394
   79MOL    H5918935   1.796   5.006   3.221 -0.1509 -1.5546  1.3882
   79MOL    H6018936   1.952   5.032   3.282 -0.8362 -2.3151 -0.4728
   79MOL    H6118937   1.560   5.360   3.409  1.0017  2.1572 -0.2657
   79MOL    C6218938   1.926   5.241   3.442 -0.4534 -0.2104  0.4983
   79MOL    C6318939   1.990   5.381   3.397  0.8547 -0.1543  0.7885
   79MOL    C6418940   2.128   5.385   3.461 -0.6948 -0.3058 -0.4573
   79MOL    C6518941   2.009   5.374   3.243  0.0597  0.0602  0.4254
   79MOL    O6618942   2.120   5.361   3.189  0.2623 -1.0772  0.3546
   79MOL    O6718943   1.897   5.401   3.169 -0.2795  0.4966 -0.1244
   79MOL    H6818944   1.907   5.262   3.547  0.9507  1.9687  0.3428
   79MOL    H6918945   2.013   5.175   3.437 -0.7571 -0.5798 -0.0518
   79MOL    H7018946   2.190   5.310   3.413  1.3439  0.2714  1.2192
   79MOL    H7118947   2.126   5.368   3.569  0.7870 -0.1587 -0.4008
   79MOL    H7218948   2.191   5.469   3.432  1.0206 -1.5088 -0.2991
   79MOL    H7318949   1.909   5.392   3.076  2.4658 -1.6621  0.3869
   79MOL    C7418950   1.906   5.502   3.449  0.2102  0.3182 -0.0763
   79MOL    C7518951   1.946   5.657   3.432  0.0835  0.4991 -0.3784
   79MOL    C7618952   2.004   5.676   3.294 -0.4188 -0.8949 -0.5764
   79MOL    C7718953   1.804   5.730   3.443  0.2417  0.3043 -0.8224
   79MOL    O7818954   1.768   5.807   3.354 -0.6352 -0.0911  0.0134
   79MOL    O7918955   1.729   5.701   3.553 -0.1539 -0.0535  0.4056
   79MOL    H8018956   1.803   5.489   3.415 -0.1756  0.0271  1.1737
   79MOL    H8118957   1.893   5.491   3.557  1.7963  3.9655  0.5581
   79MOL    H8218958   2.011   5.781   3.266 -1.1717 -0.2786  1.4793
   79MOL    H8318959   1.931   5.642   3.220 -0.0292 -1.1568 -0.8399
   79MOL    H8418960   2.103   5.631   3.288 -0.5632 -1.2333 -0.4694
   79MOL    H8518961   1.650   5.747   3.533 -0.8056 -0.8297  1.1530
   79MOL    C8618962   2.023   5.699   3.559 -0.2350 -0.9827 -0.3476
   79MOL    C8718963   2.104   5.828   3.572 -0.1836  0.3562  0.2264
   79MOL    C8818964   2.029   5.951   3.505 -0.8597  0.1898 -0.9581
   79MOL    C8918965   2.129   5.863   3.726 -0.2538 -0.1405  0.4390
   79MOL    O9018966   2.102   5.974   3.776  0.0515 -0.0166  0.5331
   79MOL    O9118967   2.162   5.756   3.802 -0.2069  0.5484 -0.1762
   79MOL    H9218968   1.957   5.692   3.645  0.5316  0.2781  0.3582
   79MOL    H9318969   2.091   5.615   3.573 -0.2197 -0.8221  0.5169
   79MOL    H9418970   2.018   5.953   3.397  2.1431 -1.9792 -1.3622
   79MOL    H9518971   2.095   6.034   3.532  0.1287 -1.0827  0.6762
   79MOL    H9618972   1.932   5.968   3.553 -0.8213  0.7545 -1.0718
   79MOL    H9718973   2.179   5.768   3.895 -0.9621  2.3672 -0.2478
   79MOL    C9818974   2.241   5.799   3.499  0.0506  0.0169  0.1551
   79MOL    C9918975   2.355   5.901   3.458  0.3189 -0.2457  0.1374
   79MOL   C10018976   2.311   5.998   3.343  0.5314 -0.2841  0.3012
   79MOL   C10118977   2.404   5.986   3.587  0.7223 -0.2468 -0.3268
   79MOL   O10218978   2.391   6.106   3.605 -0.0593 -0.2198  0.2640
   79MOL   O10318979   2.441   5.902   3.689  0.4675 -0.5091 -0.1907
   79MOL   H10418980   2.284   5.707   3.539  1.2661  0.9775  1.1059
   79MOL   H10518981   2.209   5.777   3.397 -0.0353 -0.7849  0.3528
   79MOL   H10618982   2.390   6.068   3.316  0.2405 -0.3014 -0.6293
   79MOL   H10718983   2.224   6.057   3.370 -0.4887  0.1708 -3.6182
   79MOL   H10818984   2.300   5.951   3.245  0.5612 -0.7688  0.5302
   79MOL   H10918985   2.470   5.945   3.768 -1.1379 -0.0125  0.1635
   79MOL   C11018986   2.488   5.827   3.419  0.3239 -0.3449  0.4384
   79MOL   C11118987   2.505   5.732   3.287  0.2850 -0.0596  0.0209
   79MOL   C11218988   2.395   5.637   3.261  0.3473  0.2973 -0.2753
   79MOL   C11318989   2.528   5.822   3.158  0.5030 -0.4334 -0.2224
   79MOL   O11418990   2.557   5.942   3.153  0.0172 -0.0547 -0.7906
   79MOL   O11518991   2.514   5.743   3.047  0.5150 -0.2263  0.1165
   79MOL   H11618992   2.571   5.898   3.427  0.1072 -0.2398  1.8670
   79MOL   H11718993   2.501   5.765   3.508  0.2599 -2.0473 -0.7366
   79MOL   H11818994   2.311   5.690   3.215 -0.6008 -2.4212 -1.7582
   79MOL   H11918995   2.373   5.581   3.352 -3.8160 -0.1550 -1.4545
   79MOL   H12018996   2.424   5.570   3.181  1.7127  0.7017 -0.1344
   79MOL   H12118997   2.515   5.792   2.966  2.2732  0.3215  0.4425
   79MOL   C12218998   2.649   5.657   3.302 -0.0180  0.0522 -0.4155
   79MOL   C12318999   2.705   5.592   3.437 -0.3773  0.3995  0.1975
   79MOL   C12419000   2.781   5.702   3.516  0.4501 -0.1363 -0.6437
   79MOL   C12519001   2.598   5.532   3.530  0.9445 -0.6679 -0.1235
   79MOL   O12619002   2.574   5.566   3.648  0.1321 -0.2645  0.1544
   79MOL   O12719003   2.519   5.442   3.474  0.2904  0.2083  0.3428
   79MOL   H12819004   2.645   5.574   3.231 -0.9940 -0.2297 -0.0492
   79MOL   H12919005   2.734   5.713   3.265  2.7133 -0.4546  4.6670
   79MOL   H13019006   2.781   5.699   3.625  1.1373  0.6056 -0.6164
   79MOL   H13119007   2.762   5.805   3.483  0.3080  0.0264 -0.0635
   79MOL   H13219008   2.883   5.686   3.483  0.3513  0.8289 -1.4304
   79MOL   H13319009   2.456   5.425   3.542  1.2831 -3.6828  0.4435
   79MOL   C13419010   2.805   5.474   3.396  1.1050 -0.2248 -0.0552
   79MOL   C13519011   2.878   5.384   3.502  0.2719  0.1539 -0.4375
   79MOL   C13619012   2.905   5.461   3.635  0.8868 -0.3780  0.2022
   79MOL   C13719013   2.791   5.264   3.530  0.0261  0.6873  0.2398
   79MOL   O13819014   2.749   5.219   3.639 -0.0383  0.2955 -0.1405
   79MOL   O13919015   2.766   5.197   3.412  0.1179 -0.5477 -0.0284
   79MOL   H14019016   2.756   5.416   3.317  1.8172 -1.4443  0.3916
   79MOL   H14119017   2.879   5.515   3.328 -1.5024  2.8480 -1.1926
   79MOL   H14219018   2.964   5.553   3.629  0.8039 -0.3338  0.0698
   79MOL   H14319019   2.974   5.396   3.688  2.0642  0.3983 -0.3413
   79MOL   H14419020   2.812   5.476   3.689  1.4892 -1.0331  1.4241
   79MOL   H14519021   2.726   5.118   3.444 -0.2425 -0.1830  0.4224
   79MOL   C14619022   3.003   5.330   3.432 -1.0667  0.0320 -0.4489
   79MOL   C14719023   3.141   5.410   3.423 -0.9116 -0.0443  0.4539
   79MOL   C14819024   3.127   5.548   3.351  0.5850  0.7495 -0.1260
   79MOL   C14919025   3.213   5.418   3.560  0.4797  0.3385 -0.2391
   79MOL   O15019026   3.262   5.522   3.609 -0.1391  0.3717  0.0627
   79MOL   O15119027   3.231   5.290   3.611 -1.0548 -0.1835  0.4825
   79MOL   H15219028   3.036   5.234   3.470  2.0484  0.3944 -2.0538
   79MOL   H15319029   2.985   5.298   3.329  3.5997 -3.5916 -0.2636
   79MOL   H15419030   3.050   5.601   3.408  0.1392  0.3264 -0.3294
   79MOL   H15519031   3.090   5.524   3.251 -1.2386  0.2716  0.6330
   79MOL   H15619032   3.224   5.598   3.346  0.7428  0.5801  1.0890
   79MOL   H15719033   3.280   5.305   3.691  2.8263  1.6073 -2.0888
   79MOL   C15819034   3.223   5.321   3.325  0.0383 -0.0246  0.9697
   79MOL   C15919035   3.381   5.325   3.306  0.3971  0.3066 -0.3248
   79MOL   C16019036   3.442   5.462   3.314  0.4256 -0.0918  0.2929
   79MOL   C16119037   3.453   5.235   3.412  0.2174 -0.1249  0.2206
   79MOL   O16219038   3.535   5.277   3.492 -0.5618 -1.2578 -0.4582
   79MOL   O16319039   3.408   5.104   3.402 -0.0690 -0.0410  0.9514
   79MOL   H16419040   3.210   5.214   3.341 -0.2031 -0.2880 -0.9068
   79MOL   H16519041   3.177   5.344   3.229 -0.7957  1.7268  1.7642
   79MOL   H16619042   3.404   5.513   3.225 -0.3154 -1.8826 -0.4417
   79MOL   H16719043   3.551   5.463   3.311  0.4498  1.9469  1.3285
   79MOL   H16819044   3.415   5.522   3.401 -3.0264 -0.9996 -0.0840
   79MOL   H16919045   3.442   5.047   3.470  0.7316 -0.9014 -0.1363
   79MOL   C17019046   3.409   5.259   3.166 -0.0926 -0.3081 -0.4753
   79MOL   C17119047   3.403   5.333   3.029  0.0706 -0.1315 -0.0315
   79MOL   C17219048   3.279   5.421   3.012 -0.4042  0.4105 -0.0111
   79MOL   C17319049   3.530   5.420   3.023 -0.5134  0.7373  0.3362
   79MOL   O17419050   3.520   5.542   3.016  0.0461  0.3004  0.4222
   79MOL   O17519051   3.644   5.351   3.019 -0.4690  0.4213 -0.5144
   79MOL   H17619052   3.511   5.224   3.178 -0.3346 -0.6616  0.6061
   79MOL   H17719053   3.369   5.157   3.173  0.8354 -0.6091  0.5929
   79MOL   H17819054   3.192   5.355   3.016  1.3270 -1.8992  0.4224
   79MOL   H17919055   3.292   5.463   2.912  0.5978  0.2576  0.0507
   79MOL   H18019056   3.262   5.507   3.078  1.1615 -0.2119  1.2410
   79MOL   H18119057   3.710   5.420   3.020  0.0681 -0.0389  3.1883
   79MOL   C18219058   3.420   5.227   2.911  0.4919  0.9350  0.6399
   79MOL   C18319059   3.295   5.144   2.849  0.0483  0.7013 -1.1430
   79MOL   C18419060   3.210   5.078   2.963 -0.7517 -0.3418 -0.3076
   79MOL   C18519061   3.211   5.228   2.757  0.5346  0.2598  0.0864
   79MOL   O18619062   3.262   5.299   2.667 -0.5304  0.4824  0.4725
   79MOL   O18719063   3.072   5.206   2.770  0.2792 -0.3868 -0.6376
   79MOL   H18819064   3.473   5.268   2.825  2.0534 -0.6576  0.8126
   79MOL   H18919065   3.494   5.153   2.941 -1.5348 -1.8288 -0.8740
   79MOL   H19019066   3.113   5.047   2.922 -0.6397  0.3973 -1.1274
   79MOL   H19119067   3.177   5.139   3.047  0.0149  1.6708 -1.4397
   79MOL   H19219068   3.246   4.986   3.011 -0.6679  0.4430  1.1641
   79MOL   H19319069   3.015   5.236   2.702 -0.4669  0.2238  0.2401
   79MOL   C19419070   3.378   5.027   2.774  0.6794  0.2743  0.2522
   79MOL   C19519071   3.308   4.930   2.667  0.1030  0.4584 -0.4956
   79MOL   C19619072   3.408   4.808   2.650 -0.4939  0.1640 -0.3301
   79MOL   C19719073   3.182   4.872   2.735 -0.0604 -0.0036  0.1073
   79MOL   O19819074   3.072   4.923   2.716 -0.3718  0.3304 -0.6221
   79MOL   O19919075   3.211   4.784   2.833  0.0766  0.3968  0.5297
   79MOL   H20019076   3.453   5.080   2.715  3.2697 -1.0455  2.2510
   79MOL   H20119077   3.441   4.969   2.842  0.3674 -1.4772 -0.9126
   79MOL   H20219078   3.500   4.831   2.597  0.7188 -4.6641 -0.4751
   79MOL   H20319079   3.364   4.723   2.599 -0.9331  0.4061 -0.3638
   79MOL   H20419080   3.443   4.770   2.745 -0.5025  1.8730  0.3801
   79MOL   H20519081   3.130   4.771   2.879  0.2836  0.1908  0.8407
   79MOL   C20619082   3.279   5.012   2.530  0.2001 -0.5248  0.1147
   79MOL   C20719083   3.273   4.938   2.389  0.1961  0.5705 -0.0357
   79MOL   C20819084   3.421   4.907   2.358  0.1527  0.4820 -0.2108
   79MOL   C20919085   3.198   4.804   2.393  0.1723 -0.1734 -0.6415
   79MOL   O21019086   3.115   4.768   2.475 -0.4039 -0.1800 -0.6268
   79MOL   O21119087   3.234   4.735   2.283  0.1668 -0.2302 -0.3569
   79MOL   H21219088   3.194   5.077   2.551  1.1015  0.3279  1.2543
   79MOL   H21319089   3.364   5.081   2.527 -0.3097  0.0203 -2.2878
   79MOL   H21419090   3.438   4.917   2.251  1.1527 -0.0650 -0.1048
   79MOL   H21519091   3.450   4.805   2.383 -0.6293 -0.0763 -1.4948
   79MOL   H21619092   3.485   4.975   2.413 -0.3897  0.2705  0.6922
   79MOL   H21719093   3.188   4.653   2.282  0.1688 -0.2839  1.9219
   79MOL   C21819094   3.208   5.035   2.275 -0.0635 -0.5360  0.6013
   79MOL   C21919095   3.057   5.081   2.257  0.5707 -0.6396  0.0757
   79MOL   C22019096   2.991   4.982   2.160 -0.5910 -0.0751  0.0408
   79MOL   C22119097   2.986   5.079   2.399  0.8767 -0.5010  0.5805
   79MOL   O22219098   2.997   5.170   2.482 -0.5211 -0.2976 -0.7706
   79MOL   O22319099   2.903   4.974   2.423 -0.1597 -0.5490 -0.3810
   79MOL   H22419100   3.269   5.126   2.277  0.5611 -0.9201 -0.2570
   79MOL   H22519101   3.240   5.009   2.174 -1.4893 -0.1977  0.0473
   79MOL   H22619102   3.001   4.876   2.184 -1.0302  0.3800  2.3492
   79MOL   H22719103   3.038   4.995   2.063 -1.3997  3.1183  0.0333
   79MOL   H22819104   2.884   4.996   2.146 -0.5377  0.3484  0.0697
   79MOL   H22919105   2.904   4.962   2.517 -2.0221  0.8740 -0.1550
   79MOL   C23019106   3.056   5.229   2.198  0.3251  0.2766  0.2937
   79MOL   C23119107   2.925   5.285   2.127 -0.2931  0.4919 -0.3061
   79MOL   C23219108   2.806   5.280   2.219 -0.2613  0.2257 -0.0537
   79MOL   C23319109   2.938   5.426   2.064 -0.2432  0.7262 -0.3075
   79MOL   O23419110   2.901   5.528   2.125 -0.1942 -0.5118 -0.2519
   79MOL   O23519111   3.017   5.418   1.950 -0.5608  0.0080 -0.0928
   79MOL   H23619112   3.096   5.292   2.277 -2.7945  1.0651  1.2941
   79MOL   H23719113   3.133   5.220   2.121  3.2160  0.9808  2.9984
   79MOL   H23819114   2.811   5.340   2.310  2.6118  1.3481 -0.8926
   79MOL   H23919115   2.785   5.181   2.259 -2.0704  0.5708 -0.1016
   79MOL   H24019116   2.725   5.327   2.164  0.6907 -0.2499 -1.9230
   79MOL   H24119117   3.022   5.504   1.911  2.1226  0.5715  1.3833
   79MOL   H24219118   2.901   5.217   2.044  1.0052  0.5921 -0.7832
   80MOL     C119119   1.575   2.339   2.805  0.0527 -0.0372 -0.0509
   80MOL     C219120   1.727   2.371   2.773  0.0661 -0.1045  0.5904
   80MOL     C319121   1.731   2.531   2.761  0.7568  0.4729  0.5403
   80MOL     C419122   1.817   2.304   2.895 -0.6445  0.4791 -0.2880
   80MOL     O519123   1.878   2.369   2.983 -0.5133  0.4298 -0.1906
   80MOL     O619124   1.823   2.164   2.887  0.4133  0.9567 -0.5756
   80MOL     H719125   1.542   2.240   2.773 -0.0666  0.4973 -1.6161
   80MOL     H819126   1.511   2.413   2.758 -0.2694 -1.0099 -1.1693
   80MOL     H919127   1.836   2.554   2.740 -0.2428  3.2640 -1.7614
   80MOL    H1019128   1.686   2.567   2.853  1.6263  2.0265  0.3828
   80MOL    H1119129   1.665   2.578   2.688 -0.1367  0.4587  1.3265
   80MOL    H1219130   1.764   2.129   2.822 -1.6189  0.3105  1.5446
   80MOL    H1319131   1.563   2.342   2.913 -1.3680 -1.7833 -0.1339
   80MOL    C1419132   1.763   2.299   2.638  0.6785  0.3702  0.9132
   80MOL    C1519133   1.876   2.331   2.541  0.0366 -0.5160  0.1788
   80MOL    C1619134   1.889   2.221   2.442 -0.1350 -0.1235  0.1458
   80MOL    C1719135   1.841   2.462   2.466 -1.1642  0.1496  0.2370
   80MOL    O1819136   1.884   2.577   2.493 -0.5086  0.7255 -0.3580
   80MOL    O1919137   1.763   2.438   2.365 -0.0127 -0.3010 -0.2914
   80MOL    H2019138   1.755   2.190   2.644  0.3437  0.2072 -1.9110
   80MOL    H2119139   1.670   2.316   2.583  0.8988 -0.6852  0.2069
   80MOL    H2219140   1.939   2.140   2.495  2.3068  1.5414  0.4416
   80MOL    H2319141   1.951   2.253   2.358 -0.9298  2.7256  0.5973
   80MOL    H2419142   1.794   2.190   2.398  0.6784  0.7906 -2.3545
   80MOL    H2519143   1.751   2.514   2.309  0.5645  0.1137  0.1384
   80MOL    C2619144   2.002   2.349   2.626  0.0460  0.0056  0.5607
   80MOL    C2719145   2.150   2.375   2.566  0.2951  0.3859 -0.0453
   80MOL    C2819146   2.150   2.453   2.435  0.0532  0.5038 -0.0750
   80MOL    C2919147   2.221   2.459   2.671 -0.2008  0.2762  0.5429
   80MOL    O3019148   2.289   2.558   2.652  0.2754  0.7308  0.0877
   80MOL    O3119149   2.209   2.410   2.793 -0.1837 -0.1884  0.1786
   80MOL    H3219150   1.982   2.430   2.696 -1.4678 -1.3054  1.6846
   80MOL    H3319151   2.015   2.274   2.705 -0.5258  1.9779  2.5768
   80MOL    H3419152   2.118   2.557   2.442 -1.8382 -0.0124 -0.6807
   80MOL    H3519153   2.114   2.401   2.346  0.5213 -1.3997  0.8211
   80MOL    H3619154   2.251   2.464   2.396 -0.0119 -0.7691 -0.6511
   80MOL    H3719155   2.261   2.466   2.849  0.1674 -0.5928  0.2624
   80MOL    C3819156   2.220   2.236   2.529  0.1887  0.4155 -0.0150
   80MOL    C3919157   2.353   2.185   2.602  0.7656 -0.6095 -0.1759
   80MOL    C4019158   2.475   2.284   2.577 -0.1021 -0.2023  0.0870
   80MOL    C4119159   2.322   2.156   2.750 -1.3405 -0.0232  0.2677
   80MOL    O4219160   2.401   2.193   2.839  0.2361  0.6102 -0.4673
   80MOL    O4319161   2.209   2.087   2.781  0.0791 -0.6492  0.3095
   80MOL    H4419162   2.145   2.157   2.528  1.3362 -0.6894 -0.3031
   80MOL    H4519163   2.242   2.234   2.422  0.9190 -0.2463  0.1434
   80MOL    H4619164   2.457   2.391   2.590  1.0355  0.0714 -0.5437
   80MOL    H4719165   2.505   2.267   2.474  1.7069  0.7526  0.4430
   80MOL    H4819166   2.553   2.269   2.651  0.6196  0.4659 -0.5281
   80MOL    H4919167   2.185   2.082   2.872  2.8183 -1.4853  1.0097
   80MOL    C5019168   2.379   2.045   2.530 -0.0026 -0.0879 -0.5829
   80MOL    C5119169   2.475   1.937   2.596 -0.0095 -0.3678 -0.3584
   80MOL    C5219170   2.605   1.993   2.662 -0.4767 -0.1442  0.3388
   80MOL    C5319171   2.399   1.854   2.708 -0.2209 -0.1005  0.0036
   80MOL    O5419172   2.443   1.844   2.820 -0.6013  0.6155  0.2847
   80MOL    O5519173   2.289   1.789   2.664 -0.1203  0.5028  0.6625
   80MOL    H5619174   2.284   1.994   2.513  0.5743 -0.8971 -1.4728
   80MOL    H5719175   2.415   2.069   2.430  0.4867  1.6044 -0.0158
   80MOL    H5819176   2.687   1.922   2.672  0.7675  0.6513 -3.2740
   80MOL    H5919177   2.568   2.047   2.749 -0.8955  0.6811 -0.3406
   80MOL    H6019178   2.650   2.079   2.612  0.2332 -1.0120 -0.5587
   80MOL    H6119179   2.250   1.736   2.731  0.8782 -0.5117  0.4592
   80MOL    C6219180   2.520   1.828   2.489 -0.2904  0.0328 -0.0837
   80MOL    C6319181   2.602   1.844   2.350  0.6857 -0.6921 -0.7163
   80MOL    C6419182   2.497   1.884   2.230  0.5639 -0.3262 -0.9239
   80MOL    C6519183   2.706   1.959   2.369 -1.0465  0.2685  0.9226
   80MOL    O6619184   2.825   1.937   2.402 -0.7817 -0.5411  0.2949
   80MOL    O6719185   2.657   2.085   2.351 -0.0718 -0.3757 -0.3130
   80MOL    H6819186   2.563   1.747   2.548 -1.2878  0.8586  1.8090
   80MOL    H6919187   2.430   1.782   2.449  0.4774 -0.0207 -1.8141
   80MOL    H7019188   2.408   1.822   2.221 -0.8157  1.4071  0.2991
   80MOL    H7119189   2.553   1.880   2.137 -0.0835  1.1870 -1.4023
   80MOL    H7219190   2.456   1.985   2.240  1.0830 -0.3510  1.7289
   80MOL    H7319191   2.732   2.143   2.350  0.0223 -0.4764  0.3717
   80MOL    C7419192   2.682   1.721   2.311  0.3442  1.1276  0.2252
   80MOL    C7519193   2.625   1.583   2.275  0.2977  0.5888  0.3608
   80MOL    C7619194   2.745   1.483   2.281 -0.6517  0.5652  0.3052
   80MOL    C7719195   2.516   1.539   2.380 -0.2624 -0.7252  0.0082
   80MOL    O7819196   2.401   1.547   2.357  0.1512  0.1569  0.1512
   80MOL    O7919197   2.568   1.492   2.496  0.0056  0.0536  0.3426
   80MOL    H8019198   2.758   1.748   2.238 -0.1595 -1.7352 -1.4171
   80MOL    H8119199   2.737   1.697   2.402  0.1429 -2.4786 -0.5327
   80MOL    H8219200   2.832   1.519   2.226 -0.6675 -0.0477 -0.1223
   80MOL    H8319201   2.720   1.380   2.260  0.7355  0.6060 -1.6772
   80MOL    H8419202   2.788   1.488   2.381 -0.2510  1.5461  0.0969
   80MOL    H8519203   2.495   1.460   2.546 -0.9424  2.3592  0.4788
   80MOL    C8619204   2.567   1.589   2.127 -0.0479 -0.6226  0.2933
   80MOL    C8719205   2.562   1.461   2.033 -0.4150  0.2008  0.0746
   80MOL    C8819206   2.697   1.432   1.969  0.1436  0.2399 -0.3793
   80MOL    C8919207   2.505   1.344   2.114 -0.0389 -0.0150 -0.2165
   80MOL    O9019208   2.574   1.244   2.132 -0.1315 -0.2011 -0.0211
   80MOL    O9119209   2.376   1.354   2.168  0.3321 -0.1885  0.3819
   80MOL    H9219210   2.469   1.636   2.132  0.0287 -0.5186  0.7850
   80MOL    H9319211   2.624   1.668   2.077 -0.8876 -1.2793 -1.7541
   80MOL    H9419212   2.698   1.331   1.927  1.2640 -0.0693  0.3532
   80MOL    H9519213   2.768   1.434   2.052 -0.8267 -1.3187  0.5094
   80MOL    H9619214   2.735   1.506   1.899  1.6750 -0.8268 -0.7087
   80MOL    H9719215   2.340   1.277   2.210 -1.6107  0.0738 -0.7266
   80MOL    C9819216   2.457   1.490   1.913 -0.5513  0.0541 -0.0393
   80MOL    C9919217   2.427   1.430   1.767 -0.0119 -0.1787  0.0991
   80MOL   C10019218   2.551   1.444   1.678 -0.2128  0.1019  0.6328
   80MOL   C10119219   2.396   1.272   1.759  0.2450 -0.1301  0.2842
   80MOL   O10219220   2.395   1.203   1.654 -0.1171 -0.3076 -0.5354
   80MOL   O10319221   2.373   1.213   1.884 -0.3162 -0.2038 -0.2504
   80MOL   H10419222   2.364   1.501   1.969 -0.4962  1.9696 -0.2893
   80MOL   H10519223   2.480   1.593   1.886  3.3018  0.4876  4.3421
   80MOL   H10619224   2.641   1.390   1.709  0.3131  0.1083 -0.8510
   80MOL   H10719225   2.586   1.548   1.685 -2.2274  0.6629  3.3696
   80MOL   H10819226   2.535   1.419   1.574 -1.0650 -1.4556  1.1306
   80MOL   H10919227   2.349   1.122   1.878  0.0587 -0.2838 -0.5201
   80MOL   C11019228   2.299   1.503   1.703  0.4838 -0.7523 -0.4899
   80MOL   C11119229   2.149   1.473   1.731  0.2020  0.1343  0.4331
   80MOL   C11219230   2.070   1.591   1.665  0.0828  0.5858  0.4617
   80MOL   C11319231   2.105   1.344   1.656  0.0523 -0.5896 -0.1163
   80MOL   O11419232   2.084   1.231   1.710 -0.4154 -0.9827 -0.0151
   80MOL   O11519233   2.126   1.363   1.519 -0.1314  0.1159  0.0870
   80MOL   H11619234   2.315   1.605   1.735 -0.8650 -0.2299 -1.4132
   80MOL   H11719235   2.321   1.508   1.596  1.6700  3.3932 -0.1232
   80MOL   H11819236   1.972   1.566   1.622  0.1486 -0.3475  0.8588
   80MOL   H11919237   2.120   1.623   1.573  2.6388  0.4874  1.7908
   80MOL   H12019238   2.062   1.678   1.730 -0.9978 -0.0020  1.1279
   80MOL   H12119239   2.122   1.272   1.495  1.2156 -0.3671  1.6052
   80MOL   C12219240   2.108   1.467   1.885 -0.0295 -0.2687  0.1358
   80MOL   C12319241   1.963   1.439   1.942 -0.5045 -0.0346 -0.5518
   80MOL   C12419242   1.854   1.502   1.860 -0.2468 -0.4290  0.2141
   80MOL   C12519243   1.949   1.284   1.959  0.1286  0.0531  0.0807
   80MOL   O12619244   1.861   1.214   1.904 -0.7887 -0.7702 -0.0056
   80MOL   O12719245   2.050   1.226   2.031  0.2078 -0.2648  0.3030
   80MOL   H12819246   2.171   1.390   1.928 -1.7224 -1.8283 -0.1432
   80MOL   H12919247   2.148   1.560   1.926  0.1761 -0.8212  1.2073
   80MOL   H13019248   1.844   1.473   1.756 -1.8340  2.7269 -0.5720
   80MOL   H13119249   1.857   1.610   1.848 -2.0310 -0.5237 -1.2776
   80MOL   H13219250   1.757   1.475   1.901 -1.3737  1.1908 -1.3370
   80MOL   H13319251   2.027   1.136   2.044 -2.7217  0.0830 -2.0479
   80MOL   C13419252   1.970   1.509   2.083 -0.4416 -0.6442 -0.2081
   80MOL   C13519253   1.859   1.489   2.196 -0.5125 -0.0748  0.3367
   80MOL   C13619254   1.713   1.489   2.142  0.8718  0.2822 -0.2836
   80MOL   C13719255   1.879   1.358   2.281 -1.1088 -0.0720  0.2106
   80MOL   O13819256   1.981   1.289   2.289 -0.3943 -0.0871  0.1054
   80MOL   O13919257   1.767   1.334   2.347 -0.1381  0.0104  0.4419
   80MOL   H14019258   2.064   1.479   2.128 -0.7968  0.8410  1.5885
   80MOL   H14119259   1.974   1.618   2.070 -0.0623 -0.6309  0.0279
   80MOL   H14219260   1.689   1.567   2.069 -0.6810  0.1229  0.0435
   80MOL   H14319261   1.640   1.498   2.222 -1.2027 -0.1198 -2.0908
   80MOL   H14419262   1.697   1.390   2.100  1.7902 -0.0563  0.1310
   80MOL   H14519263   1.771   1.265   2.411 -1.5322  0.7202  1.3254
   80MOL   C14619264   1.866   1.612   2.283 -0.4114  0.1234 -0.3782
   80MOL   C14719265   1.996   1.660   2.360  0.8168  0.2926 -0.3801
   80MOL   C14819266   2.087   1.547   2.423  0.3660  0.3031  0.6107
   80MOL   C14919267   2.091   1.748   2.264  0.3058 -0.2756  0.1838
   80MOL   O15019268   2.070   1.865   2.233  0.2713  1.0308  0.2802
   80MOL   O15119269   2.199   1.680   2.215  0.6157  0.1502 -0.2377
   80MOL   H15219270   1.835   1.699   2.226 -1.7149  0.2274  0.4700
   80MOL   H15319271   1.783   1.595   2.353 -0.7951 -2.4936 -1.4001
   80MOL   H15419272   2.167   1.588   2.485  0.1364  1.9832 -0.1684
   80MOL   H15519273   2.133   1.479   2.352 -0.0933 -1.3157  1.8456
   80MOL   H15619274   2.025   1.480   2.483 -0.1829  1.7821  1.7335
   80MOL   H15719275   2.225   1.604   2.266 -0.8785 -0.9947 -1.1534
   80MOL   C15819276   1.951   1.761   2.476  0.3925  0.2845  0.0450
   80MOL   C15919277   1.842   1.737   2.593  0.5456 -0.0761 -0.1655
   80MOL   C16019278   1.833   1.586   2.623 -0.0450 -0.2113 -0.3713
   80MOL   C16119279   1.897   1.815   2.717  0.7277  0.1251  0.0713
   80MOL   O16219280   1.927   1.760   2.819 -0.6117 -0.2274  0.2003
   80MOL   O16319281   1.920   1.942   2.692 -0.4037  0.1683  0.0654
   80MOL   H16419282   2.048   1.771   2.525  0.8665  1.1061 -1.0731
   80MOL   H16519283   1.939   1.865   2.446 -1.1248 -0.0997 -0.7225
   80MOL   H16619284   1.793   1.534   2.536 -0.4995  0.5310 -0.6087
   80MOL   H16719285   1.765   1.565   2.705 -0.3679 -0.0469 -0.5956
   80MOL   H16819286   1.923   1.538   2.661 -1.5787 -0.8871  2.5474
   80MOL   H16919287   1.953   1.991   2.766 -1.1817  0.9322 -0.0898
   80MOL   C17019288   1.704   1.794   2.546  0.1363 -0.0437  0.4033
   80MOL   C17119289   1.583   1.811   2.646 -0.3163  0.0807 -0.1700
   80MOL   C17219290   1.544   1.680   2.721 -0.9040 -0.4217  0.1073
   80MOL   C17319291   1.586   1.923   2.751 -0.2116  0.2038 -0.9903
   80MOL   O17419292   1.671   2.010   2.758 -0.1428  0.3217  0.3406
   80MOL   O17519293   1.481   1.920   2.842  0.0997  0.0532 -0.0668
   80MOL   H17619294   1.737   1.891   2.508 -0.0476  0.3249  1.1685
   80MOL   H17719295   1.670   1.727   2.467  1.6134  0.0516 -0.3295
   80MOL   H17819296   1.599   1.665   2.814 -1.1134  1.8419  0.6194
   80MOL   H17919297   1.556   1.599   2.649 -0.6886  1.0038 -1.5058
   80MOL   H18019298   1.441   1.690   2.753 -0.0396  1.8019  2.3481
   80MOL   H18119299   1.426   1.846   2.817  0.2937  0.1727 -0.8526
   80MOL   C18219300   1.450   1.849   2.563 -0.0176 -0.0239  0.6397
   80MOL   C18319301   1.448   1.958   2.440  0.2453 -0.3883  0.3597
   80MOL   C18419302   1.526   2.089   2.471  0.8675  0.1573 -0.2748
   80MOL   C18519303   1.508   1.900   2.310  0.4626 -0.1029 -0.1975
   80MOL   O18619304   1.526   1.781   2.296 -0.0693 -0.1412 -0.6891
   80MOL   O18719305   1.529   1.992   2.215 -0.5177 -0.3026  0.1481
   80MOL   H18819306   1.420   1.752   2.525 -0.6230  1.0674 -1.7559
   80MOL   H18919307   1.362   1.869   2.624 -0.7479 -1.7194  0.1637
   80MOL   H19019308   1.513   2.177   2.408 -1.0000 -0.5896 -0.9465
   80MOL   H19119309   1.633   2.074   2.481  0.5836 -1.3331  0.6397
   80MOL   H19219310   1.492   2.118   2.571 -1.3285  0.5671 -1.1226
   80MOL   H19319311   1.562   1.950   2.137  0.9315  0.1110  0.5130
   80MOL   C19419312   1.299   1.973   2.400  0.2093  0.2371 -0.2928
   80MOL   C19519313   1.195   2.063   2.472  0.3229  0.3054 -0.8897
   80MOL   C19619314   1.059   1.990   2.440  0.0080 -0.0128 -0.1902
   80MOL   C19719315   1.201   2.058   2.633  0.9932  0.1208 -0.1743
   80MOL   O19819316   1.151   1.968   2.702  0.0404  0.2396  0.2449
   80MOL   O19919317   1.280   2.159   2.684  0.0083  0.6565  0.6404
   80MOL   H20019318   1.273   1.976   2.294 -1.6071 -3.0788 -0.0199
   80MOL   H20119319   1.258   1.873   2.419 -1.3413  0.7052 -1.0468
   80MOL   H20219320   1.057   1.970   2.333  0.3246 -0.7209 -0.0742
   80MOL   H20319321   0.976   2.057   2.461  1.6097  1.6227  1.0251
   80MOL   H20419322   1.051   1.894   2.492 -1.2873 -1.6838 -3.3211
   80MOL   H20519323   1.292   2.132   2.774  0.3579 -0.2731  0.3274
   80MOL   C20619324   1.198   2.214   2.427  0.4654  0.8343 -0.8210
   80MOL   C20719325   1.121   2.270   2.304  0.2221 -0.3872  0.0880
   80MOL   C20819326   1.159   2.196   2.174 -0.4239  0.4436 -0.6154
   80MOL   C20919327   0.960   2.252   2.311  0.8671 -0.1689  0.0006
   80MOL   O21019328   0.896   2.191   2.224 -0.5073 -0.4032 -0.2312
   80MOL   O21119329   0.901   2.313   2.418  0.1373  0.1696  0.2641
   80MOL   H21219330   1.150   2.265   2.511 -1.3118 -3.7414  1.0735
   80MOL   H21319331   1.301   2.248   2.427 -0.1482  2.7706 -1.2785
   80MOL   H21419332   1.111   2.251   2.093 -0.4949  0.8319 -0.3113
   80MOL   H21519333   1.116   2.096   2.171  2.3062 -0.7750 -1.1941
   80MOL   H21619334   1.263   2.193   2.140  1.0640 -0.5216  3.6745
   80MOL   H21719335   0.812   2.292   2.399 -0.0592  1.6451 -0.5603
   80MOL   C21819336   1.142   2.426   2.293 -0.5542  0.1385 -0.3994
   80MOL   C21919337   1.281   2.496   2.258 -0.5100  0.1935 -0.2829
   80MOL   C22019338   1.251   2.647   2.237  0.2572  0.3023 -0.0173
   80MOL   C22119339   1.373   2.478   2.381  0.0719  0.8321 -0.1857
   80MOL   O22219340   1.491   2.446   2.376  0.1811  0.3434 -0.0830
   80MOL   O22319341   1.319   2.517   2.491 -0.5976 -0.0152 -0.2500
   80MOL   H22419342   1.084   2.449   2.203 -0.5881  3.0688  0.3154
   80MOL   H22519343   1.087   2.485   2.366 -2.2761 -1.2032 -0.5639
   80MOL   H22619344   1.338   2.712   2.253  0.4601 -0.1423  0.6818
   80MOL   H22719345   1.169   2.680   2.300 -1.2964 -0.4251 -1.6248
   80MOL   H22819346   1.214   2.651   2.135 -0.7604  0.8158  0.3598
   80MOL   H22919347   1.381   2.498   2.560  0.2547  1.2428 -0.6404
   80MOL   C23019348   1.350   2.439   2.131 -0.2006 -0.5690 -0.5059
   80MOL   C23119349   1.467   2.521   2.072 -1.1732  0.4958 -0.4264
   80MOL   C23219350   1.580   2.415   2.041  0.5186 -0.2152 -0.8029
   80MOL   C23319351   1.439   2.614   1.951 -0.6396  0.2274  0.0944
   80MOL   O23419352   1.330   2.665   1.926 -0.8884  0.3733 -0.1054
   80MOL   O23519353   1.551   2.638   1.870 -0.0308 -0.9222 -0.3668
   80MOL   H23619354   1.393   2.342   2.158  0.0699 -1.5082 -4.0863
   80MOL   H23719355   1.279   2.423   2.051 -0.3187 -0.6667 -0.3821
   80MOL   H23819356   1.611   2.355   2.127 -3.1004 -0.7126  0.2425
   80MOL   H23919357   1.675   2.460   2.015  1.0375 -2.5052 -3.0754
   80MOL   H24019358   1.544   2.335   1.975 -0.5160  0.2322 -0.7976
   80MOL   H24119359   1.543   2.714   1.815 -1.5132  0.3957  1.6030
   80MOL   H24219360   1.506   2.582   2.153  0.8028  0.9676 -1.6801
   81MOL     C119361   1.658   7.316   4.670 -0.2058 -0.0208 -0.1094
   81MOL     C219362   1.772   7.259   4.765 -0.3466  0.6133 -0.8530
   81MOL     C319363   1.889   7.245   4.665 -0.3709  0.5328  0.2527
   81MOL     C419364   1.802   7.366   4.873 -0.1221  0.0818 -0.2674
   81MOL     O519365   1.742   7.473   4.888  0.0167 -0.1331  0.1227
   81MOL     O619366   1.894   7.324   4.955 -0.4695  0.4315 -0.7158
   81MOL     H719367   1.561   7.321   4.719 -0.5876  1.8572 -0.9843
   81MOL     H819368   1.639   7.251   4.584 -1.5795  0.1463  0.0627
   81MOL     H919369   1.974   7.198   4.714 -2.5244 -2.5957  1.1486
   81MOL    H1019370   1.913   7.336   4.610 -1.5900  1.1229  0.6761
   81MOL    H1119371   1.873   7.170   4.588 -0.3818  1.2978 -0.4999
   81MOL    H1219372   1.933   7.244   4.922 -1.9417 -0.1254 -1.1491
   81MOL    H1319373   1.664   7.419   4.634  1.4272 -0.3084 -0.7195
   81MOL    C1419374   1.736   7.118   4.827 -0.1974  0.5250  0.9679
   81MOL    C1519375   1.603   7.076   4.906 -0.2126 -0.3363 -0.8615
   81MOL    C1619376   1.593   7.172   5.028 -0.2511 -0.7028 -1.4368
   81MOL    C1719377   1.472   7.096   4.825  0.3970 -0.0571 -0.3968
   81MOL    O1819378   1.363   7.127   4.870 -0.3017  0.4209  0.2811
   81MOL    O1919379   1.486   7.059   4.702  0.4107 -0.6928 -0.4361
   81MOL    H2019380   1.726   7.062   4.734 -2.7827 -0.3010  1.7139
   81MOL    H2119381   1.818   7.067   4.877 -0.9117 -1.2341  0.3752
   81MOL    H2219382   1.692   7.177   5.073 -0.1076 -0.3361 -1.7961
   81MOL    H2319383   1.521   7.150   5.107 -0.7337  0.2160 -1.6138
   81MOL    H2419384   1.570   7.274   4.996  0.8200 -0.0018 -0.0323
   81MOL    H2519385   1.404   7.066   4.655 -0.4933 -0.4961  1.1510
   81MOL    C2619386   1.609   6.942   4.983  0.2700 -0.1827  0.2655
   81MOL    C2719387   1.620   6.801   4.912  0.6808  1.4981  0.1174
   81MOL    C2819388   1.490   6.771   4.825  0.5120 -0.1396 -0.0095
   81MOL    C2919389   1.746   6.800   4.824 -0.8059  0.3405  0.4788
   81MOL    O3019390   1.854   6.828   4.872 -0.0124 -0.2583 -0.2147
   81MOL    O3119391   1.730   6.770   4.692 -0.3205  0.1034  0.0536
   81MOL    H3219392   1.683   6.948   5.063 -0.3223 -1.0035  0.8858
   81MOL    H3319393   1.515   6.934   5.038  1.6291 -0.0858  2.6863
   81MOL    H3419394   1.497   6.663   4.816  1.4285 -0.0698 -0.1401
   81MOL    H3519395   1.487   6.810   4.723  1.1553  0.6039  0.2529
   81MOL    H3619396   1.400   6.798   4.881  1.7068  1.4153  1.1885
   81MOL    H3719397   1.813   6.780   4.649 -1.1367 -0.1277 -1.6332
   81MOL    C3819398   1.642   6.698   5.032 -0.0169 -0.5328 -0.0617
   81MOL    C3919399   1.602   6.536   5.049  0.1008 -0.7563 -0.2702
   81MOL    C4019400   1.632   6.490   5.192 -0.3975 -0.5292  0.4069
   81MOL    C4119401   1.450   6.528   5.062  0.0722  0.0371  0.1541
   81MOL    O4219402   1.372   6.614   5.069 -0.0259  0.2174 -0.5274
   81MOL    O4319403   1.407   6.400   5.054  0.1278 -0.1724 -0.1197
   81MOL    H4419404   1.750   6.680   5.042 -0.2747 -0.4659  3.8689
   81MOL    H4519405   1.605   6.733   5.128 -1.7173  1.3484 -1.3948
   81MOL    H4619406   1.573   6.535   5.271 -0.2635  1.1954 -0.4557
   81MOL    H4719407   1.736   6.499   5.223 -0.4469  0.1221  0.3798
   81MOL    H4819408   1.600   6.386   5.202  0.1219 -0.8886 -1.4481
   81MOL    H4919409   1.314   6.401   5.067  0.0059 -0.1312 -0.9703
   81MOL    C5019410   1.655   6.442   4.932 -0.4824  0.0675  0.5607
   81MOL    C5119411   1.798   6.370   4.927  0.0037  0.0465  0.0601
   81MOL    C5219412   1.907   6.473   4.968  0.3903  0.0086 -0.2894
   81MOL    C5319413   1.806   6.246   5.023  0.9585  1.1616  0.1892
   81MOL    O5419414   1.712   6.175   5.047  0.2734  0.8597 -0.8688
   81MOL    O5519415   1.927   6.230   5.081 -0.5755  0.3870  0.4126
   81MOL    H5619416   1.586   6.364   4.901 -0.6375  0.4678 -0.1089
   81MOL    H5719417   1.645   6.504   4.843 -1.8720 -2.7921 -1.3328
   81MOL    H5819418   2.011   6.440   4.977  1.4364  2.5642 -2.3956
   81MOL    H5919419   1.897   6.507   5.071  1.7041  0.2270 -0.2263
   81MOL    H6019420   1.913   6.559   4.901 -0.2163  1.1115  1.0440
   81MOL    H6119421   1.932   6.149   5.130  0.9263 -0.3809 -0.9549
   81MOL    C6219422   1.822   6.342   4.774 -0.2234 -0.2279 -0.4536
   81MOL    C6319423   1.785   6.210   4.703  0.3119  1.2125  0.1626
   81MOL    C6419424   1.863   6.228   4.566  0.4581  0.9838 -0.0233
   81MOL    C6519425   1.860   6.088   4.764  0.1406 -0.4364  0.2289
   81MOL    O6619426   1.983   6.083   4.787  0.8494  0.3226  0.6120
   81MOL    O6719427   1.771   5.987   4.792  0.5813  0.1336  0.6178
   81MOL    H6819428   1.794   6.431   4.718  0.4412 -0.4218 -1.1057
   81MOL    H6919429   1.930   6.355   4.766 -0.0192 -2.1087 -1.0971
   81MOL    H7019430   1.970   6.242   4.581  0.7713  1.2577 -2.2879
   81MOL    H7119431   1.828   6.311   4.504 -2.4542  0.1647  0.4676
   81MOL    H7219432   1.848   6.142   4.502 -0.0111  1.9217 -1.1907
   81MOL    H7319433   1.693   5.997   4.740  0.9770 -1.2105 -0.2520
   81MOL    C7419434   1.628   6.196   4.676 -0.6028  0.5998  0.0078
   81MOL    C7519435   1.562   6.136   4.544  0.6672 -0.0879 -0.1254
   81MOL    C7619436   1.600   6.224   4.422  0.9576 -0.3396 -0.1464
   81MOL    C7719437   1.605   5.988   4.518 -0.0837  0.0792  0.4879
   81MOL    O7819438   1.644   5.947   4.407 -0.0547 -0.0379  0.7174
   81MOL    O7919439   1.591   5.907   4.624  0.5936 -0.1248 -0.1292
   81MOL    H8019440   1.591   6.135   4.759  0.9663 -1.7792 -1.0064
   81MOL    H8119441   1.576   6.291   4.691  0.3101  1.3779 -1.6527
   81MOL    H8219442   1.703   6.211   4.387  0.8043 -0.4497 -0.5508
   81MOL    H8319443   1.584   6.327   4.454  0.4128 -0.7284  0.8434
   81MOL    H8419444   1.541   6.207   4.332 -0.8187 -2.3511  1.3525
   81MOL    H8519445   1.609   5.819   4.592  0.7685  0.3738 -1.4276
   81MOL    C8619446   1.401   6.145   4.551 -0.0636  0.4406  0.1712
   81MOL    C8719447   1.295   6.111   4.675  0.0904 -0.2869 -0.2230
   81MOL    C8819448   1.319   5.972   4.740 -0.3182 -0.0405  0.9904
   81MOL    C8919449   1.316   6.225   4.776  0.7971  0.2292 -0.0972
   81MOL    O9019450   1.289   6.343   4.761  0.4215 -0.3997  0.4123
   81MOL    O9119451   1.382   6.178   4.883  0.0278 -0.3279  0.3471
   81MOL    H9219452   1.394   6.251   4.528  1.6201  0.8416  1.4676
   81MOL    H9319453   1.362   6.093   4.464  1.1379 -2.4671  1.3154
   81MOL    H9419454   1.237   5.937   4.803 -1.2819  2.1444  0.9625
   81MOL    H9519455   1.413   5.973   4.796 -0.2402 -1.4875  0.9039
   81MOL    H9619456   1.325   5.891   4.667 -2.3249  0.1415  0.6041
   81MOL    H9719457   1.411   6.248   4.941  1.0808  1.1349 -1.8762
   81MOL    C9819458   1.150   6.128   4.606 -0.5046  0.0139 -0.5159
   81MOL    C9919459   1.007   6.107   4.670 -0.6394 -0.5168  0.0256
   81MOL   C10019460   1.011   6.135   4.819  0.8200 -0.1186  0.7217
   81MOL   C10119461   0.913   6.213   4.602  0.7514 -1.5091 -0.4829
   81MOL   O10219462   0.924   6.266   4.489 -0.1284 -0.3212 -0.4360
   81MOL   O10319463   0.807   6.247   4.689 -0.4209 -0.2370  0.6912
   81MOL   H10419464   1.143   6.225   4.558 -4.1621 -0.1657 -0.5134
   81MOL   H10519465   1.153   6.056   4.524  0.3017 -0.2035 -0.3025
   81MOL   H10619466   1.072   6.067   4.879  0.1192 -0.3785  1.1481
   81MOL   H10719467   0.915   6.135   4.871 -0.0677  1.3550 -0.8690
   81MOL   H10819468   1.036   6.241   4.821  0.1462  0.1612 -2.5573
   81MOL   H10919469   0.775   6.334   4.673  1.4641  0.9494  3.0495
   81MOL   C11019470   0.941   5.964   4.652  0.0354  0.3993  0.0415
   81MOL   C11119471   0.944   5.883   4.515  0.1091  0.3488 -0.6429
   81MOL   C11219472   0.911   5.972   4.381  0.1100  0.4331 -0.4721
   81MOL   C11319473   1.076   5.812   4.497  0.1271  0.2820  0.4457
   81MOL   O11419474   1.135   5.805   4.389 -0.9205 -0.1415  0.4885
   81MOL   O11519475   1.112   5.756   4.608 -0.0764  0.3581 -0.5593
   81MOL   H11619476   0.982   5.895   4.726 -2.0252 -1.1427 -0.2051
   81MOL   H11719477   0.835   5.972   4.678  0.0173 -1.1418  0.4685
   81MOL   H11819478   0.831   6.042   4.405 -0.5347 -0.3378 -0.3909
   81MOL   H11919479   0.880   5.923   4.289  1.2782 -1.0048 -0.1279
   81MOL   H12019480   0.991   6.040   4.349  0.0689  0.7727  0.1332
   81MOL   H12119481   1.190   5.704   4.620 -0.5861  0.3138  2.9958
   81MOL   C12219482   0.817   5.781   4.524 -0.4992 -0.0404 -0.0076
   81MOL   C12319483   0.807   5.636   4.455  0.1300  0.3380 -0.6375
   81MOL   C12419484   0.870   5.646   4.315 -0.0461  0.6826 -0.5856
   81MOL   C12519485   0.890   5.533   4.547  0.0585  0.5004  0.1461
   81MOL   O12619486   1.008   5.495   4.533  0.1996  0.3389 -0.2468
   81MOL   O12719487   0.819   5.504   4.659  0.2605  0.4378  0.0428
   81MOL   H12819488   0.798   5.763   4.630  3.8489 -1.6858  0.6293
   81MOL   H12919489   0.727   5.835   4.497 -1.6304 -2.1182 -0.4687
   81MOL   H13019490   0.842   5.556   4.260  3.1774 -0.7843  0.0810
   81MOL   H13119491   0.978   5.639   4.321 -0.0976  1.0813  1.0319
   81MOL   H13219492   0.853   5.739   4.261  1.6028  2.4500  1.8611
   81MOL   H13319493   0.850   5.439   4.719  0.7764 -0.0233 -0.7165
   81MOL   C13419494   0.658   5.581   4.434  0.1347 -0.5684 -0.7797
   81MOL   C13519495   0.541   5.670   4.396 -0.0497 -0.4398 -0.1521
   81MOL   C13619496   0.577   5.778   4.289 -0.6576  0.5924  0.0553
   81MOL   C13719497   0.438   5.569   4.334 -0.3920  0.3230 -0.0190
   81MOL   O13819498   0.407   5.576   4.213 -0.0767  0.4925  0.0893
   81MOL   O13919499   0.396   5.464   4.417  0.0043 -0.4948 -0.1379
   81MOL   H14019500   0.668   5.499   4.363 -2.2918 -0.7157 -0.9821
   81MOL   H14119501   0.639   5.531   4.529  1.7979  0.1457 -0.0584
   81MOL   H14219502   0.646   5.854   4.326 -2.2535  1.7986  0.6208
   81MOL   H14319503   0.484   5.829   4.266 -1.1230 -0.0346  0.5555
   81MOL   H14419504   0.632   5.752   4.199 -0.4504  0.2951  0.2675
   81MOL   H14519505   0.350   5.403   4.361  1.5613 -1.3994 -0.4527
   81MOL   C14619506   0.484   5.737   4.529 -0.0235 -0.3968  0.1525
   81MOL   C14719507   0.395   5.868   4.542 -0.4949  0.1535  0.3790
   81MOL   C14819508   0.361   5.879   4.694 -0.1918 -0.2904 -0.4057
   81MOL   C14919509   0.476   5.994   4.498  0.0069 -0.4725  0.6159
   81MOL   O15019510   0.478   6.047   4.382  0.1852 -0.0079 -0.4060
   81MOL   O15119511   0.540   6.053   4.600 -0.3077  0.6950 -0.0566
   81MOL   H15219512   0.430   5.658   4.581  1.2813 -0.9076  0.7331
   81MOL   H15319513   0.564   5.755   4.601  0.6956 -1.3431 -0.4023
   81MOL   H15419514   0.290   5.803   4.728 -0.5205  0.8246  1.4867
   81MOL   H15519515   0.317   5.977   4.714  0.2298 -0.5807  2.2039
   81MOL   H15619516   0.447   5.865   4.760  0.2088  1.0541 -0.6246
   81MOL   H15719517   0.584   6.136   4.587  0.2789  0.4611  0.4682
   81MOL   C15819518   0.260   5.846   4.470  0.3780  0.0195  0.2540
   81MOL   C15919519   0.149   5.950   4.429 -0.7977  0.2940  0.7554
   81MOL   C16019520   0.016   5.874   4.452  0.1815  0.2695 -0.4310
   81MOL   C16119521   0.152   6.078   4.519 -0.1826  0.1647 -0.5920
   81MOL   O16219522   0.217   6.179   4.497 -0.2076  0.5292 -0.0747
   81MOL   O16319523   0.057   6.066   4.619 -0.4959 -0.2657  0.1767
   81MOL   H16419524   0.295   5.797   4.379 -2.3063 -2.0850  0.2936
   81MOL   H16519525   0.220   5.756   4.517  2.2838 -0.0210  1.8833
   81MOL   H16619526   0.004   5.802   4.372  0.4625  0.4246 -0.6162
   81MOL   H16719527   7.699   5.943   4.445  0.1173  0.4973  2.0798
   81MOL   H16819528   0.003   5.833   4.552  1.5816  1.2950  0.2016
   81MOL   H16919529   0.057   6.145   4.670 -0.7526 -0.3344  0.2850
   81MOL   C17019530   0.164   6.000   4.280  0.5962 -0.2070 -0.5809
   81MOL   C17119531   0.110   5.919   4.156  0.1786  0.1180  0.2136
   81MOL   C17219532   0.161   5.771   4.154 -0.9245  0.3127  0.1106
   81MOL   C17319533   7.722   5.914   4.147 -0.0706 -0.2017 -0.2637
   81MOL   O17419534   7.658   5.832   4.096  0.7288  0.2388  0.3170
   81MOL   O17519535   7.664   6.025   4.208 -0.7565 -1.0241 -0.5331
   81MOL   H17619536   0.111   6.096   4.276 -0.7895 -0.9021  0.7275
   81MOL   H17719537   0.266   6.030   4.256  1.1162 -0.1568  1.5934
   81MOL   H17819538   0.104   5.713   4.082 -0.2791 -1.4997  1.0447
   81MOL   H17919539   0.140   5.715   4.245 -3.5862  0.5810 -0.3006
   81MOL   H18019540   0.267   5.760   4.135 -0.1950  1.1775  3.4226
   81MOL   H18119541   7.569   6.022   4.205 -0.7696 -2.3952  0.9422
   81MOL   C18219542   0.169   5.963   4.017 -0.1828 -0.7166 -0.7590
   81MOL   C18319543   0.156   6.104   3.937  0.0567  0.5962  0.0066
   81MOL   C18419544   0.010   6.144   3.937  0.2350 -1.1162  0.1515
   81MOL   C18519545   0.234   6.211   4.006  0.0305  0.2087  0.1904
   81MOL   O18619546   0.184   6.324   4.029 -0.2064 -0.0458  0.3778
   81MOL   O18719547   0.366   6.180   4.033 -0.2174 -0.4342  0.3121
   81MOL   H18819548   0.276   5.954   4.033 -0.0966  0.5060 -0.5390
   81MOL   H18919549   0.148   5.885   3.944  1.2341  0.4840 -2.4991
   81MOL   H19019550   7.714   6.064   3.898  0.6643 -1.5939  0.4211
   81MOL   H19119551   7.765   6.222   3.862 -1.2468  0.9574  2.4688
   81MOL   H19219552   7.729   6.189   4.023  0.6785  0.3924 -0.3701
   81MOL   H19319553   0.400   6.259   4.073 -0.6953 -1.1998  2.2933
   81MOL   C19419554   0.217   6.076   3.791  0.3292  0.0433 -0.3297
   81MOL   C19519555   0.182   6.148   3.653 -0.0545 -0.0944  0.8706
   81MOL   C19619556   0.036   6.110   3.603  0.3920  0.2947 -0.6105
   81MOL   C19719557   0.212   6.299   3.677  0.2193  0.1547  0.5016
   81MOL   O19819558   0.132   6.385   3.667 -0.0059  0.0709 -0.1043
   81MOL   O19919559   0.343   6.320   3.710 -0.2900  0.1726  1.2205
   81MOL   H20019560   0.325   6.082   3.807 -0.0069  2.3712  1.3640
   81MOL   H20119561   0.192   5.972   3.771  1.2657 -0.2541  0.0315
   81MOL   H20219562   0.020   6.125   3.496 -0.5628 -0.2345 -0.5465
   81MOL   H20319563   7.730   6.172   3.655  1.1998  0.1390  0.7192
   81MOL   H20419564   7.759   6.015   3.631 -0.6663  1.1023  0.4832
   81MOL   H20519565   0.384   6.239   3.737  0.4720  0.1338 -0.0166
   81MOL   C20619566   0.290   6.083   3.559 -0.0957  0.6139 -0.3865
   81MOL   C20719567   0.334   6.120   3.415 -0.5168 -0.3289  0.3943
   81MOL   C20819568   0.203   6.145   3.326  0.3337 -0.0904 -0.3463
   81MOL   C20919569   0.414   6.254   3.424 -0.6714  0.1010 -0.5281
   81MOL   O21019570   0.361   6.357   3.387 -0.1238  0.1590 -0.1225
   81MOL   O21119571   0.524   6.239   3.491 -0.1287 -0.0853  0.0193
   81MOL   H21219572   0.384   6.071   3.614 -0.4706 -2.4302 -0.2960
   81MOL   H21319573   0.255   5.980   3.550  1.3618 -0.0786  1.4603
   81MOL   H21419574   0.242   6.162   3.226  0.9579 -0.0727 -0.0970
   81MOL   H21519575   0.144   6.235   3.346  0.5925  0.1393 -0.6314
   81MOL   H21619576   0.138   6.058   3.331  0.9850 -0.4692  2.4593
   81MOL   H21719577   0.581   6.314   3.493  1.0420 -0.9702  0.7292
   81MOL   C21819578   0.414   5.998   3.350  0.0115  0.3407 -0.0902
   81MOL   C21919579   0.465   5.986   3.197  0.1437 -0.1849  0.0369
   81MOL   C22019580   0.351   5.947   3.106 -0.2192 -0.1361  0.3136
   81MOL   C22119581   0.529   6.120   3.140  1.1016 -0.1348  0.3773
   81MOL   O22219582   0.513   6.144   3.020 -0.1490 -0.1878  0.0950
   81MOL   O22319583   0.622   6.183   3.219 -0.4181  0.0853 -0.2237
   81MOL   H22419584   0.498   5.974   3.416  1.9150  1.7464 -1.9290
   81MOL   H22519585   0.353   5.910   3.366  2.5080 -0.9586  2.8113
   81MOL   H22619586   0.381   5.913   3.007  0.3053  3.3423 -0.7953
   81MOL   H22719587   0.275   6.022   3.083 -1.5162 -1.0245  1.6221
   81MOL   H22819588   0.300   5.859   3.145 -0.2539 -0.2572 -0.0062
   81MOL   H22919589   0.664   6.256   3.175  0.6750 -0.0413  0.5900
   81MOL   C23019590   0.591   5.889   3.205  0.5103 -0.0868 -0.3830
   81MOL   C23119591   0.563   5.749   3.269 -0.0267  0.9927  0.0854
   81MOL   C23219592   0.473   5.656   3.185 -0.9727 -0.3223 -0.5496
   81MOL   C23319593   0.691   5.669   3.305 -0.3142 -0.1129 -0.0518
   81MOL   O23419594   0.706   5.611   3.414 -0.2292  0.3933  0.1830
   81MOL   O23519595   0.779   5.644   3.198  0.2990 -0.3084 -0.1348
   81MOL   H23619596   0.632   5.870   3.106 -0.3542  0.6329 -0.8879
   81MOL   H23719597   0.676   5.922   3.264 -0.9417 -1.0243  2.3170
   81MOL   H23819598   0.452   5.701   3.088  1.3887  2.0206 -0.0318
   81MOL   H23919599   0.380   5.627   3.234 -1.2574  0.8748 -0.3637
   81MOL   H24019600   0.525   5.563   3.164 -0.7102 -0.9834  2.7057
   81MOL   H24119601   0.842   5.576   3.217  0.4481 -1.0612 -2.9647
   81MOL   H24219602   0.508   5.764   3.362 -2.4991  2.8263 -1.6040
   82MOL     C119603   3.049   6.760   2.671 -0.1409  0.3867  0.4650
   82MOL     C219604   3.195   6.795   2.661 -0.4359 -0.2687  0.4337
   82MOL     C319605   3.257   6.770   2.796  0.4017  0.2716 -0.2865
   82MOL     C419606   3.244   6.700   2.551  0.2927 -0.3053  0.4569
   82MOL     O519607   3.324   6.606   2.568  0.8020  0.3729  0.7571
   82MOL     O619608   3.180   6.719   2.428  0.2695  0.5423 -0.0563
   82MOL     H719609   2.996   6.829   2.738  0.7130  0.7738  0.7441
   82MOL     H819610   3.031   6.657   2.701  0.1079 -0.3942 -1.9967
   82MOL     H919611   3.246   6.663   2.815 -1.0393  0.3969 -0.4019
   82MOL    H1019612   3.196   6.818   2.872 -1.6008 -1.9877 -0.4235
   82MOL    H1119613   3.363   6.788   2.813  0.2173  0.9592  0.1184
   82MOL    H1219614   3.191   6.646   2.369 -0.5249  1.3153 -1.1797
   82MOL    H1319615   2.991   6.780   2.581 -1.9383 -2.9757  0.7816
   82MOL    C1419616   3.202   6.949   2.619 -0.4459 -0.4173 -0.1680
   82MOL    C1519617   3.335   7.023   2.584  0.5093 -0.2928 -0.0339
   82MOL    C1619618   3.460   6.963   2.658 -0.4975  0.4397 -0.4655
   82MOL    C1719619   3.355   6.994   2.432  0.5196  0.1625  0.4498
   82MOL    O1819620   3.464   6.946   2.386  0.5459 -0.3345  0.3345
   82MOL    O1919621   3.257   7.039   2.349 -0.3095 -0.6533 -0.1481
   82MOL    H2019622   3.127   6.963   2.541  0.8177  1.0498 -1.1497
   82MOL    H2119623   3.144   6.993   2.700 -0.7330 -0.6805 -0.2302
   82MOL    H2219624   3.452   6.978   2.765  2.5912  0.0765 -0.1316
   82MOL    H2319625   3.546   7.023   2.629 -0.3476  0.2502 -0.4133
   82MOL    H2419626   3.489   6.861   2.631 -1.7684  0.3858 -1.7028
   82MOL    H2519627   3.292   7.034   2.261  2.1790  1.0689  0.7123
   82MOL    C2619628   3.306   7.174   2.609  0.3200  0.2324  0.6321
   82MOL    C2719629   3.415   7.288   2.613  0.0878 -0.3716 -0.1169
   82MOL    C2819630   3.509   7.286   2.493 -0.3220  0.0612 -0.0596
   82MOL    C2919631   3.331   7.418   2.615 -0.0515  0.6007 -0.1288
   82MOL    O3019632   3.340   7.506   2.531  0.1096  0.3347 -0.0282
   82MOL    O3119633   3.242   7.423   2.722  0.1963  0.1141 -0.0845
   82MOL    H3219634   3.231   7.196   2.533 -0.9193 -3.6589  0.5860
   82MOL    H3319635   3.255   7.173   2.705 -0.8089 -0.2726  0.0408
   82MOL    H3419636   3.463   7.284   2.394 -0.1422 -0.0406 -0.1424
   82MOL    H3519637   3.571   7.197   2.501 -0.4692 -0.0303  0.0393
   82MOL    H3619638   3.575   7.373   2.494  0.4259 -0.5185  2.4876
   82MOL    H3719639   3.207   7.509   2.738  1.2737  0.6824 -0.6725
   82MOL    C3819640   3.493   7.288   2.749  0.2186  0.2591  0.1583
   82MOL    C3919641   3.620   7.362   2.793  0.3761  0.1032  0.2342
   82MOL    C4019642   3.739   7.293   2.718 -0.3025 -0.8398 -0.3225
   82MOL    C4119643   3.612   7.508   2.752 -0.0691 -0.6988  0.7310
   82MOL    O4219644   3.698   7.562   2.688 -0.6295 -0.4473 -0.2346
   82MOL    O4319645   3.506   7.563   2.803 -0.0955 -0.4972 -0.1549
   82MOL    H4419646   3.413   7.307   2.821 -0.6015  1.2928 -1.0055
   82MOL    H4519647   3.513   7.182   2.766  1.1704  0.8407  2.9581
   82MOL    H4619648   3.733   7.190   2.754  2.1979 -0.8671  0.0994
   82MOL    H4719649   3.840   7.325   2.743 -0.8956 -0.4972  1.6925
   82MOL    H4819650   3.732   7.306   2.610 -0.6046 -1.6450 -0.4087
   82MOL    H4919651   3.493   7.652   2.774 -2.4839 -0.4520  0.9020
   82MOL    C5019652   3.628   7.338   2.946 -0.3086 -0.3648 -0.1753
   82MOL    C5119653   3.750   7.377   3.046  0.2308 -0.7386  0.0574
   82MOL    C5219654   3.704   7.325   3.183  0.3051  0.3074 -0.0414
   82MOL    C5319655   3.872   7.297   3.000  0.6611  0.3857  0.6443
   82MOL    O5419656   3.965   7.352   2.943  0.0935  0.5408  0.5930
   82MOL    O5519657   3.868   7.167   3.032  0.4131 -0.3315  0.2221
   82MOL    H5619658   3.535   7.390   2.968 -1.1445 -1.5207 -0.8979
   82MOL    H5719659   3.607   7.232   2.963  1.0098 -0.5160  0.6081
   82MOL    H5819660   3.652   7.229   3.177  1.3143 -0.3270  1.0893
   82MOL    H5919661   3.624   7.384   3.228  1.3044 -0.3886  2.7815
   82MOL    H6019662   3.788   7.314   3.252  0.1957  2.4024  0.4598
   82MOL    H6119663   3.943   7.114   3.013  0.7294  0.1294  0.1900
   82MOL    C6219664   3.783   7.538   3.042  0.1411 -0.3419  0.5652
   82MOL    C6319665   3.846   7.624   3.160  0.0535  0.1112  0.0864
   82MOL    C6419666   3.727   7.650   3.257 -0.5019 -0.2992 -0.3628
   82MOL    C6519667   3.963   7.566   3.230  0.1142  0.3452 -0.4611
   82MOL    O6619668   4.019   7.457   3.207  0.1692 -0.5023 -0.0350
   82MOL    O6719669   4.012   7.646   3.329  0.5133 -0.1857 -0.9612
   82MOL    H6819670   3.841   7.551   2.950 -0.7695 -1.0091 -0.1043
   82MOL    H6919671   3.691   7.592   3.018  0.4208  0.2069  0.7143
   82MOL    H7019672   3.630   7.656   3.209 -0.3187 -0.7906 -0.7978
   82MOL    H7119673   3.740   7.746   3.307  0.9731  0.9739 -3.0989
   82MOL    H7219674   3.723   7.577   3.338  0.5900 -1.7688 -1.5986
   82MOL    H7319675   4.080   7.597   3.373  0.3401 -1.0630 -1.6393
   82MOL    C7419676   3.885   0.010   3.110 -0.7506  0.6870 -0.7347
   82MOL    C7519677   3.953   0.053   2.977 -0.8070  0.8902  0.4270
   82MOL    C7619678   4.070   7.721   2.954 -0.1389  0.1962  0.0862
   82MOL    C7719679   3.862   0.044   2.852  0.2756 -0.9171  0.1645
   82MOL    O7819680   3.736   0.054   2.856  0.0000 -0.2075 -0.1808
   82MOL    O7919681   3.927   0.024   2.732 -1.1058 -0.3297  0.3811
   82MOL    H8019682   3.789   0.060   3.103 -0.8959  0.3399 -1.2553
   82MOL    H8119683   3.941   0.067   3.184 -1.7409 -0.0647  0.6195
   82MOL    H8219684   4.146   7.740   2.879  1.7971 -2.0433  1.3879
   82MOL    H8319685   4.021   7.628   2.922 -1.9338  0.7333  1.1554
   82MOL    H8419686   4.125   7.706   3.047  1.3156  3.5689 -0.1782
   82MOL    H8519687   3.863   0.012   2.663 -0.4455 -0.5126 -0.2091
   82MOL    C8619688   4.008   0.200   2.991  0.2532 -0.0001 -0.2500
   82MOL    C8719689   3.925   0.337   3.003 -0.3937  0.0311  0.0328
   82MOL    C8819690   3.868   0.382   2.870  0.8726 -0.3039 -0.0023
   82MOL    C8919691   3.808   0.323   3.104  1.4906 -0.1965 -0.2133
   82MOL    O9019692   3.689   0.320   3.075 -0.0960 -0.0560 -0.1550
   82MOL    O9119693   3.852   0.296   3.226  0.2620  0.0003  0.3898
   82MOL    H9219694   4.095   0.203   3.056 -1.6467  0.7434  2.3622
   82MOL    H9319695   4.052   0.206   2.891 -3.8264 -1.3877 -2.2462
   82MOL    H9419696   3.817   0.302   2.816  3.4654 -0.6855 -2.0248
   82MOL    H9519697   3.962   0.415   2.825  2.0141 -3.0269  0.3132
   82MOL    H9619698   3.799   0.466   2.882  1.1446  0.3193 -2.4498
   82MOL    H9719699   3.771   0.290   3.273  0.3304  1.8097  0.7770
   82MOL    C9819700   4.027   0.442   3.064  0.0355 -0.1278 -0.0389
   82MOL    C9919701   4.016   0.591   3.073 -0.4776 -0.0544 -0.0525
   82MOL   C10019702   4.147   0.639   3.158 -0.8527  0.0596 -0.9593
   82MOL   C10119703   4.031   0.644   2.926  0.6844 -0.8368  0.1399
   82MOL   O10219704   4.134   0.636   2.857  0.0661 -0.0132  0.1256
   82MOL   O10319705   3.919   0.693   2.864  0.2834 -0.2584 -0.3790
   82MOL   H10419706   4.049   0.406   3.164 -1.1447  1.4613  0.8040
   82MOL   H10519707   4.124   0.429   3.014 -0.0462 -1.7269  0.1899
   82MOL   H10619708   4.119   0.621   3.262 -0.6027 -0.7815 -1.0313
   82MOL   H10719709   4.184   0.741   3.147  1.2391 -0.1987  2.8917
   82MOL   H10819710   4.232   0.575   3.135 -1.2450 -1.0561  0.6496
   82MOL   H10919711   3.931   0.731   2.779 -0.1545 -0.8516 -0.7087
   82MOL   C11019712   3.891   0.639   3.157  0.1298  0.0681 -0.6002
   82MOL   C11119713   3.864   0.780   3.217  0.1827 -0.3531  0.3301
   82MOL   C11219714   3.952   0.805   3.338 -0.1826 -0.3951  0.3183
   82MOL   C11319715   3.896   0.897   3.116 -0.8315 -0.6205 -0.0152
   82MOL   O11419716   3.813   0.962   3.057 -0.3442 -0.0995  0.3397
   82MOL   O11519717   4.023   0.914   3.092  0.0108 -0.0455 -0.3153
   82MOL   H11619718   3.803   0.620   3.094 -1.3148 -1.7997  1.9097
   82MOL   H11719719   3.885   0.561   3.233 -2.2095 -0.7025 -1.5060
   82MOL   H11819720   3.950   0.714   3.399  0.0732 -0.1197  0.7334
   82MOL   H11919721   3.908   0.888   3.393  1.4903  1.2198 -0.7457
   82MOL   H12019722   4.057   0.825   3.317 -0.3468 -0.3823 -0.5069
   82MOL   H12119723   4.026   0.981   3.025  0.8199 -2.3317 -2.6043
   82MOL   C12219724   3.713   0.799   3.264  0.1222 -0.0657 -0.0105
   82MOL   C12319725   3.638   0.715   3.374 -0.3001  0.0998  0.2788
   82MOL   C12419726   3.492   0.780   3.372 -0.2813 -0.0013  0.2616
   82MOL   C12519727   3.625   0.560   3.349 -0.0566 -0.1958 -0.6019
   82MOL   O12619728   3.682   0.473   3.408 -0.2389 -0.3082 -0.1235
   82MOL   O12719729   3.544   0.540   3.245 -0.1143 -0.0604 -0.0215
   82MOL   H12819730   3.696   0.905   3.286  1.1195 -0.0084  0.4904
   82MOL   H12919731   3.652   0.784   3.175  2.4952  1.4466 -1.9684
   82MOL   H13019732   3.479   0.870   3.432 -0.8121 -0.6719  1.1593
   82MOL   H13119733   3.414   0.710   3.400  0.5308 -1.2426 -0.5319
   82MOL   H13219734   3.464   0.806   3.270  2.7805 -3.0222 -1.4739
   82MOL   H13319735   3.535   0.450   3.216  1.8838 -0.1489 -0.4277
   82MOL   C13419736   3.704   0.742   3.516 -0.0614  0.2115  0.2007
   82MOL   C13519737   3.629   0.751   3.653 -0.0869 -0.4696 -0.0628
   82MOL   C13619738   3.585   0.898   3.680 -0.1481 -0.7096 -0.1660
   82MOL   C13719739   3.508   0.656   3.660  0.0935  0.0261 -0.2686
   82MOL   O13819740   3.392   0.695   3.669 -1.1006 -0.2852 -0.0702
   82MOL   O13919741   3.552   0.528   3.646  0.4568  0.0558 -0.3052
   82MOL   H14019742   3.778   0.663   3.523  1.0935  1.0726 -1.8290
   82MOL   H14119743   3.759   0.836   3.520  0.5319 -0.1397  0.3526
   82MOL   H14219744   3.567   0.959   3.591  1.6603  1.8315  1.1277
   82MOL   H14319745   3.656   0.957   3.738  2.2063 -1.2315 -2.4204
   82MOL   H14419746   3.484   0.900   3.721 -1.1127 -2.4449 -2.3849
   82MOL   H14519747   3.479   0.470   3.664  0.1110  0.1288 -1.4222
   82MOL   C14619748   3.725   0.711   3.767 -0.2116  0.1625 -0.0165
   82MOL   C14719749   3.695   0.695   3.926 -0.1379 -0.1517 -0.1582
   82MOL   C14819750   3.830   0.736   3.992 -0.1743 -0.0673 -0.2610
   82MOL   C14919751   3.590   0.799   3.962 -0.1139 -0.4205  0.8571
   82MOL   O15019752   3.477   0.766   3.987 -0.3128 -0.4535 -0.2199
   82MOL   O15119753   3.638   0.928   3.962  0.3466 -0.0333  0.1354
   82MOL   H15219754   3.793   0.631   3.739  2.1100  1.7570  0.8674
   82MOL   H15319755   3.792   0.797   3.759 -1.2571  1.0421  0.5885
   82MOL   H15419756   3.890   0.817   3.949 -0.6076  0.6196  0.4217
   82MOL   H15519757   3.894   0.648   3.994  1.5197  1.1128 -1.1324
   82MOL   H15619758   3.828   0.761   4.098  0.5645  2.5971 -0.8381
   82MOL   H15719759   3.564   0.978   3.994 -0.5789 -1.0963 -0.3639
   82MOL   C15819760   3.651   0.545   3.962 -0.5877  0.0691 -0.1734
   82MOL   C15919761   3.657   0.477   4.102  0.2481 -0.1188  0.4231
   82MOL   C16019762   3.802   0.446   4.148 -0.5482 -0.0851 -0.2114
   82MOL   C16119763   3.604   0.553   4.226  0.3905 -0.1523 -0.0244
   82MOL   O16219764   3.537   0.503   4.321  0.1770  0.1239 -0.5164
   82MOL   O16319765   3.645   0.676   4.232 -0.0920 -0.1788 -0.3704
   82MOL   H16419766   3.560   0.529   3.905 -1.5508  1.3168  0.9959
   82MOL   H16519767   3.725   0.486   3.908 -0.0215  0.6741 -0.0611
   82MOL   H16619768   3.854   0.539   4.168 -0.4328  0.4770 -2.9836
   82MOL   H16719769   3.849   0.390   4.068 -1.2649  1.2527 -1.5858
   82MOL   H16819770   3.798   0.371   4.228  0.5553 -1.7311 -1.6684
   82MOL   H16919771   3.627   0.721   4.314  0.4784 -2.8557  1.2726
   82MOL   C17019772   3.579   0.347   4.096  0.1868  0.2920  0.5309
   82MOL   C17119773   3.432   0.333   4.037  0.5000  0.3026 -0.2725
   82MOL   C17219774   3.335   0.454   4.064  0.4834  0.5211  0.3849
   82MOL   C17319775   3.446   0.299   3.887  0.9108  0.1988  0.4357
   82MOL   O17419776   3.405   0.372   3.795  0.2760  0.4771 -1.0163
   82MOL   O17519777   3.506   0.184   3.852 -0.0711  0.7309  0.0722
   82MOL   H17619778   3.637   0.274   4.040  0.3743  1.6286 -1.0696
   82MOL   H17719779   3.588   0.293   4.190 -1.7852  0.0486  0.6158
   82MOL   H17819780   3.252   0.462   3.993  1.1030 -2.0287 -0.6695
   82MOL   H17919781   3.398   0.543   4.056  1.6779 -0.2300  1.3647
   82MOL   H18019782   3.295   0.451   4.165 -0.5686  1.6481  0.0187
   82MOL   H18119783   3.512   0.181   3.758  2.7653  2.4044  0.1402
   82MOL   C18219784   3.387   0.195   4.119  1.0169  0.0533 -0.1773
   82MOL   C18319785   3.246   0.129   4.097 -0.3017  0.7938  0.0611
   82MOL   C18419786   3.135   0.225   4.026 -0.0358 -0.4712  0.0022
   82MOL   C18519787   3.266   0.020   3.980 -0.1342  0.2206 -0.1368
   82MOL   O18619788   3.200   0.008   3.876 -0.4892 -0.4185  0.2657
   82MOL   O18719789   3.363   7.696   4.007 -0.0387  0.0766 -0.1608
   82MOL   H18819790   3.467   0.121   4.114  1.5974  0.7700 -1.5182
   82MOL   H18919791   3.394   0.226   4.224  1.5557 -1.5225  0.2760
   82MOL   H19019792   3.177   0.263   3.932  1.1569  1.0822  1.1354
   82MOL   H19119793   3.103   0.305   4.092 -1.7179  0.8675 -2.3502
   82MOL   H19219794   3.050   0.167   3.990  1.0636 -1.4567 -1.0602
   82MOL   H19319795   3.376   7.640   3.932 -1.9970 -1.0492  0.3087
   82MOL   C19419796   3.187   0.060   4.225 -0.3828  0.1372 -0.1886
   82MOL   C19519797   3.112   0.137   4.338  0.0419  0.4679  0.2818
   82MOL   C19619798   3.197   0.258   4.389 -0.5488 -0.3716 -0.0592
   82MOL   C19719799   2.968   0.177   4.285  0.3105  0.3849 -0.0432
   82MOL   O19819800   2.891   0.100   4.226  0.4141 -0.5316  0.5454
   82MOL   O19919801   2.947   0.311   4.298 -0.4767 -0.2354  0.5851
   82MOL   H20019802   3.115   7.750   4.198 -0.1592 -0.3182  0.4963
   82MOL   H20119803   3.275   0.013   4.269 -0.9290 -1.3723 -0.6626
   82MOL   H20219804   3.141   0.322   4.457 -1.2257 -1.7293  0.6793
   82MOL   H20319805   3.200   0.338   4.315  1.6219  0.1080  0.5319
   82MOL   H20419806   3.296   0.248   4.433 -1.0175 -1.8407  0.6946
   82MOL   H20519807   2.873   0.344   4.250 -1.0090 -1.1932  0.7371
   82MOL   C20619808   3.091   0.035   4.454 -0.6116  0.2962  0.3764
   82MOL   C20719809   3.051   0.071   4.605 -0.7408  0.1693 -0.1685
   82MOL   C20819810   3.170   0.145   4.679  0.6244 -0.0424 -0.1163
   82MOL   C20919811   2.922   0.162   4.610  0.2786  0.2177 -0.0269
   82MOL   O21019812   2.916   0.277   4.654 -0.0851  0.1886  0.1200
   82MOL   O21119813   2.820   0.097   4.549 -0.0364 -0.3913 -0.4266
   82MOL   H21219814   3.022   7.729   4.413 -0.6138 -0.1549  1.1725
   82MOL   H21319815   3.189   7.758   4.468  1.6259  3.6173 -3.6082
   82MOL   H21419816   3.267   0.096   4.667  0.2941 -0.8382  0.3881
   82MOL   H21519817   3.149   0.153   4.786 -1.7423  1.2138 -0.6446
   82MOL   H21619818   3.188   0.245   4.642 -0.8634 -0.1807 -1.2598
   82MOL   H21719819   2.839   0.011   4.515  2.6001  0.3168 -0.9333
   82MOL   C21819820   3.010   7.701   4.669  0.0220 -0.5567 -0.6244
   82MOL   C21919821   2.971   7.690   4.824 -0.0119 -0.4974 -0.3147
   82MOL   C22019822   2.881   0.030   4.886  0.0766  0.0515 -0.0432
   82MOL   C22119823   2.878   7.565   4.840 -0.2369  0.0548 -0.7358
   82MOL   O22219824   2.898   7.469   4.912 -0.0039  0.3642 -0.4376
   82MOL   O22319825   2.756   7.573   4.781  0.1575 -0.3479 -0.1305
   82MOL   H22419826   2.936   7.641   4.616  0.1918 -1.3515  0.0249
   82MOL   H22519827   3.106   7.649   4.663  1.2764  1.8689 -2.4392
   82MOL   H22619828   2.787   0.039   4.831  0.3350 -0.9903 -0.6721
   82MOL   H22719829   2.938   0.123   4.880 -0.2984  0.2036 -1.4219
   82MOL   H22819830   2.860   0.004   4.989 -0.7238 -0.8905 -0.4313
   82MOL   H22919831   2.689   7.513   4.810  2.5314 -2.0479  2.0315
   82MOL   C23019832   3.093   7.666   4.924 -0.0020  0.3786 -0.2921
   82MOL   C23119833   3.194   7.545   4.887  0.5378 -0.8209 -0.7243
   82MOL   C23219834   3.318   7.576   4.808 -0.4215 -0.1664  0.1570
   82MOL   C23319835   3.236   7.464   5.009  0.0898 -0.4133 -0.1142
   82MOL   O23419836   3.248   7.510   5.122 -0.5613  0.7580 -0.3993
   82MOL   O23519837   3.263   7.340   4.974 -0.2626 -0.4540  0.3153
   82MOL   H23619838   3.155   7.756   4.925 -1.1977  1.2815 -2.8693
   82MOL   H23719839   3.057   7.652   5.026  0.1461  0.5173 -0.2205
   82MOL   H23819840   3.292   7.644   4.726 -1.5482 -1.0220 -0.2047
   82MOL   H23919841   3.360   7.485   4.766  0.2279 -0.1087  0.6743
   82MOL   H24019842   3.394   7.619   4.874 -1.0327 -2.2037  2.2399
   82MOL   H24119843   3.295   7.292   5.048  0.0499  0.7644  0.9938
   82MOL   H24219844   3.136   7.486   4.816 -1.3834  0.7416 -0.5128
   83MOL     C119845   0.619   6.342   0.134 -0.3893  0.3863  0.1337
   83MOL     C219846   0.618   6.440   0.011 -0.3898  0.0257 -0.2881
   83MOL     C319847   0.673   6.349   7.672 -0.3865  0.4538 -0.2506
   83MOL     C419848   0.471   6.476   7.752 -0.6956  0.6178  0.0948
   83MOL     O519849   0.377   6.448   0.057  0.3207 -0.9711 -0.3778
   83MOL     O619850   0.452   6.539   7.634  0.1465 -0.2026  0.3966
   83MOL     H719851   0.534   6.275   0.131 -1.7189  2.0496  0.3388
   83MOL     H819852   0.618   6.392   0.231  0.7492  1.2647 -0.2874
   83MOL     H919853   0.781   6.335   7.681  0.1877  2.5755 -3.0792
   83MOL    H1019854   0.663   6.406   7.579 -2.2921 -1.1914 -1.0752
   83MOL    H1119855   0.616   6.257   7.667 -0.9272  0.6519  1.8119
   83MOL    H1219856   0.360   6.559   7.640  0.1626  0.2038 -0.6732
   83MOL    H1319857   0.707   6.277   0.145  0.9630  2.2900  0.9147
   83MOL    C1419858   0.703   6.572   0.029  0.2740 -0.3708  0.1990
   83MOL    C1519859   0.702   6.655   0.162 -0.2205 -0.3151  0.3450
   83MOL    C1619860   0.555   6.663   0.213  0.7344 -0.3133  1.1099
   83MOL    C1719861   0.788   6.579   0.263  0.0083  0.7165  0.1338
   83MOL    O1819862   0.901   6.533   0.237 -0.2154 -0.0667  0.5216
   83MOL    O1919863   0.740   6.575   0.389  0.0675  0.1785  0.0031
   83MOL    H2019864   0.810   6.556   0.012  0.3783  1.2403 -0.8083
   83MOL    H2119865   0.679   6.634   7.710  0.0280  0.8883  1.1601
   83MOL    H2219866   0.515   6.577   0.267 -2.2661 -0.4109 -1.1181
   83MOL    H2319867   0.486   6.675   0.129  0.4308  1.6269  1.6257
   83MOL    H2419868   0.548   6.749   0.279  1.2907 -0.9256  1.9647
   83MOL    H2519869   0.811   6.544   0.444  0.1555 -0.1774 -0.3117
   83MOL    C2619870   0.756   6.798   0.153 -0.2326 -0.8456 -0.3222
   83MOL    C2719871   0.891   6.850   0.073  0.1678  0.2208  1.2914
   83MOL    C2819872   0.891   6.806   7.690  0.1400  0.6530 -0.7336
   83MOL    C2919873   0.882   7.007   0.077 -0.5725  0.4016  0.0900
   83MOL    O3019874   0.869   7.078   7.748 -0.4025  0.0412  0.7295
   83MOL    O3119875   0.866   7.056   0.200 -0.1156  0.0600 -0.8304
   83MOL    H3219876   0.681   6.856   0.099  0.4603  0.8834  0.5491
   83MOL    H3319877   0.763   6.849   0.249 -1.7309  0.6947 -1.0119
   83MOL    H3419878   0.955   6.869   7.629 -1.5586  0.2386 -3.0252
   83MOL    H3519879   0.792   6.811   7.644 -0.2474  1.1930  0.1499
   83MOL    H3619880   0.907   6.701   7.666 -0.8293  0.9036 -2.6121
   83MOL    H3719881   0.847   7.148   0.192  0.6171  0.2887  0.0241
   83MOL    C3819882   1.022   6.797   0.150 -0.3284 -0.0936 -0.1960
   83MOL    C3919883   1.164   6.859   0.138 -0.1278  0.1764 -0.4976
   83MOL    C4019884   1.269   6.749   0.177 -0.9756 -0.8397  0.1431
   83MOL    C4119885   1.201   6.896   7.763 -0.7548  0.0382 -0.2524
   83MOL    O4219886   1.218   6.811   7.676 -0.8191  0.1379 -0.6209
   83MOL    O4319887   1.184   7.023   7.729 -0.6604 -0.0054 -0.0255
   83MOL    H4419888   0.999   6.776   0.254  1.2405  0.4296  0.2717
   83MOL    H4519889   1.041   6.698   0.109 -1.7534 -0.0644 -0.9503
   83MOL    H4619890   1.253   6.730   0.283 -0.9846 -2.3780 -0.1271
   83MOL    H4719891   1.372   6.775   0.152 -1.7775  2.4735  0.0798
   83MOL    H4819892   1.257   6.660   0.115  0.0481 -0.1360 -1.0979
   83MOL    H4919893   1.201   7.011   7.636 -0.2004 -1.9566  0.2945
   83MOL    C5019894   1.177   6.980   0.237  0.4984 -0.7498  0.0732
   83MOL    C5119895   1.313   7.036   0.297  0.1224  0.2060  0.8370
   83MOL    C5219896   1.268   7.182   0.347 -0.7619  0.4063 -0.7660
   83MOL    C5319897   1.355   6.952   0.418  0.4289 -0.2521 -0.0443
   83MOL    O5419898   1.435   6.863   0.410  0.1259  0.0057  0.4068
   83MOL    O5519899   1.281   6.980   0.531 -0.0628  0.1470  0.1266
   83MOL    H5619900   1.126   7.064   0.189 -0.0922 -1.5705 -0.7455
   83MOL    H5719901   1.113   6.945   0.318 -1.4965 -0.5996 -1.4240
   83MOL    H5819902   1.319   7.219   0.436 -0.3484  0.9295 -1.2160
   83MOL    H5919903   1.161   7.174   0.368 -1.0279  0.4352 -2.1077
   83MOL    H6019904   1.273   7.252   0.264 -1.8442  1.3328 -0.0717
   83MOL    H6119905   1.317   6.940   0.608  1.2709  2.0879  0.5443
   83MOL    C6219906   1.429   7.059   0.195  0.4179  0.3085  0.9642
   83MOL    C6319907   1.576   7.106   0.228 -0.1844  0.5223 -0.3204
   83MOL    C6419908   1.629   7.164   0.092 -0.5036  0.5269 -0.2889
   83MOL    C6519909   1.572   7.216   0.335 -0.4693  0.9462  0.4231
   83MOL    O6619910   1.608   7.205   0.451 -0.7519  0.4701 -0.3638
   83MOL    O6719911   1.529   7.330   0.288  0.1684  0.3101  0.3594
   83MOL    H6819912   1.441   6.974   0.127  0.9294 -1.0244  2.6906
   83MOL    H6919913   1.384   7.126   0.122  0.0482 -0.9956 -0.0233
   83MOL    H7019914   1.638   7.081   0.022 -2.5994  0.8079 -0.9253
   83MOL    H7119915   1.728   7.209   0.093 -0.1457 -0.2099 -1.2579
   83MOL    H7219916   1.562   7.236   0.045  1.6054  0.0231 -4.3075
   83MOL    H7319917   1.525   7.400   0.351 -1.2713 -0.5180  1.2283
   83MOL    C7419918   1.661   6.979   0.268  0.0843 -0.1686  0.5020
   83MOL    C7519919   1.815   6.954   0.241  0.2359  0.1286 -0.0301
   83MOL    C7619920   1.840   6.941   0.087  0.8549 -0.1755  0.0917
   83MOL    C7719921   1.900   7.076   0.290  0.3509  0.0484  0.6260
   83MOL    O7819922   1.979   7.140   0.219  0.2078  0.6076  0.7100
   83MOL    O7919923   1.876   7.103   0.419 -0.2413  0.5444 -0.1917
   83MOL    H8019924   1.642   6.964   0.375 -0.6232 -0.1565  0.3772
   83MOL    H8119925   1.609   6.898   0.218  2.0849  0.1161 -2.1183
   83MOL    H8219926   1.927   6.882   0.059  0.8924 -0.6397  1.1661
   83MOL    H8319927   1.853   7.040   0.045  1.4581 -0.0007  0.6896
   83MOL    H8419928   1.753   6.890   0.044  1.2507 -0.6259 -0.1865
   83MOL    H8519929   1.936   7.161   0.463 -0.1929  0.0174  0.4365
   83MOL    C8619930   1.865   6.826   0.325 -0.5366  0.0627  0.3226
   83MOL    C8719931   1.834   6.675   0.294 -0.2815 -0.2436  0.8217
   83MOL    C8819932   1.894   6.593   0.413  0.1315  0.2626  0.5477
   83MOL    C8919933   1.676   6.660   0.304  0.6535 -0.3967  0.7499
   83MOL    O9019934   1.605   6.640   0.204  0.4432  0.5933 -0.0764
   83MOL    O9119935   1.630   6.680   0.432  0.4133 -0.2183 -0.4521
   83MOL    H9219936   1.972   6.829   0.346 -0.3687  2.3511 -0.6473
   83MOL    H9319937   1.829   6.842   0.427 -1.6229  0.3001 -0.0977
   83MOL    H9419938   1.870   6.487   0.407  2.5539 -0.4396  2.3904
   83MOL    H9519939   1.854   6.634   0.506  1.2910 -0.7110  1.4831
   83MOL    H9619940   2.003   6.599   0.412  0.0996  1.2227  1.4972
   83MOL    H9719941   1.536   6.686   0.432  0.2782 -2.0408 -0.0663
   83MOL    C9819942   1.888   6.633   0.151  0.0480 -0.6522 -0.3157
   83MOL    C9919943   1.913   6.492   0.094 -0.1412 -0.2809 -0.5907
   83MOL   C10019944   1.922   6.524   7.706  0.1017 -0.1864  0.9139
   83MOL   C10119945   2.055   6.435   0.139  0.0425  0.5671 -0.0726
   83MOL   O10219946   2.141   6.406   0.055  0.4111  0.4301  0.3949
   83MOL   O10319947   2.073   6.421   0.274 -0.3887 -0.8897  0.1479
   83MOL   H10419948   1.813   6.672   0.083  0.4172 -1.2607 -1.0763
   83MOL   H10519949   1.975   6.695   0.128  0.0244 -0.3344  0.4456
   83MOL   H10619950   1.998   6.595   7.674 -0.5020 -0.4468 -1.2007
   83MOL   H10719951   1.819   6.545   7.679 -0.3066 -1.7023  1.2395
   83MOL   H10819952   1.957   6.441   7.644 -1.1472  0.4248 -0.6431
   83MOL   H10919953   2.156   6.381   0.293  0.0754 -0.6869 -1.4389
   83MOL   C11019954   1.787   6.400   0.135 -0.1402 -0.1230 -0.0786
   83MOL   C11119955   1.781   6.247   0.111  0.0763 -0.2943 -0.6413
   83MOL   C11219956   1.828   6.202   7.735  0.7071  0.3611  0.1155
   83MOL   C11319957   1.866   6.172   0.223  0.5597 -0.0288 -0.0978
   83MOL   O11419958   1.820   6.148   0.329  0.1886 -0.0673  0.1142
   83MOL   O11519959   1.993   6.133   0.179  0.2851 -0.3008  0.0297
   83MOL   H11619960   1.770   6.414   0.241 -2.8331 -0.5739 -0.4241
   83MOL   H11719961   1.704   6.442   0.077 -0.4223 -0.4450  0.0945
   83MOL   H11819962   1.767   6.229   7.649  2.5278 -0.7435 -1.5695
   83MOL   H11919963   1.829   6.093   7.734 -0.5163  0.3560 -0.5926
   83MOL   H12019964   1.927   6.227   7.698  0.4989 -1.7220 -1.9440
   83MOL   H12119965   2.034   6.077   0.243  2.4462  0.1210 -0.9669
   83MOL   C12219966   1.625   6.205   0.124  0.0040  0.0435  0.3380
   83MOL   C12319967   1.569   6.049   0.099  0.0652 -0.6168  0.8555
   83MOL   C12419968   1.569   5.995   7.718  0.3692  0.4548 -0.6699
   83MOL   C12519969   1.650   5.945   0.178 -0.5758  0.7506  0.1936
   83MOL   O12619970   1.623   5.902   0.295  0.2215  1.0872 -0.3848
   83MOL   O12719971   1.771   5.911   0.118  0.0266 -0.0002 -0.2511
   83MOL   H12819972   1.588   6.237   0.222  1.1946 -0.5234  0.9900
   83MOL   H12919973   1.574   6.280   0.064 -1.4714 -0.0919  1.3838
   83MOL   H13019974   1.666   5.984   7.669  0.8134 -0.0179  0.2885
   83MOL   H13119975   1.512   6.071   7.666 -0.2269  1.5046  1.4363
   83MOL   H13219976   1.524   5.896   7.714 -0.5573  0.9359 -2.2779
   83MOL   H13319977   1.846   5.902   0.176  2.1814  2.5571 -2.4854
   83MOL   C13419978   1.419   6.040   0.158  0.3320  0.3306  0.0020
   83MOL   C13519979   1.282   6.109   0.105  0.4906 -0.0906  0.4453
   83MOL   C13619980   1.294   6.267   0.094 -0.1714 -0.0391 -0.3175
   83MOL   C13719981   1.239   6.054   7.736 -0.5627  0.1367  0.2454
   83MOL   O13819982   1.169   6.118   7.657 -0.0630  0.1297 -0.4571
   83MOL   O13919983   1.267   5.925   7.715  0.4395  0.1621  0.0099
   83MOL   H14019984   1.392   5.935   0.164  0.4928  0.1736 -1.8369
   83MOL   H14119985   1.416   6.063   0.265  0.0237  1.2503 -0.2061
   83MOL   H14219986   1.199   6.319   0.105  0.7117  0.7829  4.3770
   83MOL   H14319987   1.338   6.290   7.764  0.8652 -0.2665  0.0963
   83MOL   H14419988   1.357   6.307   0.172 -1.2444  0.5501  0.2581
   83MOL   H14519989   1.232   5.898   7.631 -1.9996 -0.5908  1.2381
   83MOL   C14619990   1.169   6.092   0.205 -0.0038  0.3720 -0.2583
   83MOL   C14719991   1.097   5.964   0.271  0.0312 -0.1373 -0.1558
   83MOL   C14819992   1.015   5.890   0.161  1.6335 -0.1326  0.4368
   83MOL   C14919993   1.205   5.873   0.330 -0.0040 -0.2829 -0.7616
   83MOL   O15019994   1.283   5.911   0.423 -0.2085 -0.4027 -0.4915
   83MOL   O15119995   1.199   5.750   0.281 -0.4917 -0.0083  0.5154
   83MOL   H15219996   1.191   6.142   0.299 -1.7962 -1.8302  1.4070
   83MOL   H15319997   1.089   6.148   0.158  1.6757  3.1465  0.1210
   83MOL   H15419998   0.936   5.949   0.115  1.5497  0.8408  1.8083
   83MOL   H15519999   0.970   5.805   0.212  0.3981  0.1871 -0.0947
   83MOL   H15620000   1.082   5.847   0.087  2.2237 -2.9031  2.4656
   83MOL   H15720001   1.246   5.677   0.317  1.0773  0.9146  0.3955
   83MOL   C15820002   1.002   6.020   0.384 -0.0620 -0.1343 -0.0182
   83MOL   C15920003   0.899   5.936   0.466  0.7076 -0.6146 -0.1279
   83MOL   C16020004   0.947   5.791   0.499  0.3253  0.4414 -0.0165
   83MOL   C16120005   0.879   6.016   0.601 -0.5807  0.3430 -0.1301
   83MOL   O16220006   0.819   6.120   0.607 -0.5780  0.1463  0.1928
   83MOL   O16320007   0.937   5.962   0.712  0.1740 -0.4505  0.8458
   83MOL   H16420008   1.078   6.072   0.442  2.4702 -3.2523 -0.3547
   83MOL   H16520009   0.948   6.104   0.342 -0.6220  0.0701  1.1116
   83MOL   H16620010   0.943   5.721   0.416 -0.0938 -0.9312  1.1332
   83MOL   H16720011   0.887   5.747   0.578  1.5007 -0.4205  0.4208
   83MOL   H16820012   1.046   5.787   0.546 -0.3490 -0.7666  1.3451
   83MOL   H16920013   0.987   5.886   0.687  0.4405  0.1969 -0.6511
   83MOL   C17020014   0.761   5.946   0.388  0.7533  0.3521 -0.5800
   83MOL   C17120015   0.631   5.850   0.409  0.1725 -0.6123 -0.6421
   83MOL   C17220016   0.658   5.710   0.351  0.3626  0.6614  0.0901
   83MOL   C17320017   0.600   5.845   0.562  0.2492 -0.7987  0.4122
   83MOL   O17420018   0.612   5.746   0.629  0.5089  0.1380  0.0379
   83MOL   O17520019   0.556   5.969   0.610 -0.3570  0.4463 -0.4907
   83MOL   H17620020   0.738   6.051   0.367  2.6100  0.7977 -0.4243
   83MOL   H17720021   0.801   5.920   0.290  3.6947 -0.0802  0.6895
   83MOL   H17820022   0.725   5.654   0.416  0.5913  2.0871  1.1154
   83MOL   H17920023   0.697   5.719   0.249 -2.0042  0.4173 -0.8659
   83MOL   H18020024   0.559   5.664   0.349 -0.1773  1.7873  0.3152
   83MOL   H18120025   0.530   5.951   0.699 -0.2059  3.7048  0.2821
   83MOL   C18220026   0.508   5.924   0.342 -1.1967  0.0979 -0.5831
   83MOL   C18320027   0.462   5.913   0.188 -0.5605  0.4954  0.2431
   83MOL   C18420028   0.583   5.954   0.092 -0.0707  0.0938 -0.9107
   83MOL   C18520029   0.408   5.766   0.158  0.3255  0.0165  0.2347
   83MOL   O18620030   0.443   5.698   0.062  0.0657  0.5035  0.3325
   83MOL   O18720031   0.327   5.714   0.256 -0.0198 -0.3758 -0.2335
   83MOL   H18820032   0.426   5.902   0.411  0.1013 -1.2961  0.5722
   83MOL   H18920033   0.518   6.031   0.361 -0.8076 -0.0119 -0.1506
   83MOL   H19020034   0.650   6.031   0.131 -0.4000  0.3533 -0.8568
   83MOL   H19120035   0.555   5.993   7.761 -1.9270 -1.3195 -0.9672
   83MOL   H19220036   0.653   5.872   0.080 -0.7635 -0.4198 -1.4646
   83MOL   H19320037   0.301   5.782   0.316 -2.5257 -1.6149  0.1480
   83MOL   C19420038   0.337   6.009   0.186  0.3496 -0.0200 -0.0324
   83MOL   C19520039   0.225   6.003   0.081  0.0895 -0.4314 -0.0286
   83MOL   C19620040   0.145   6.130   0.103 -0.4730 -0.6745 -0.2041
   83MOL   C19720041   0.280   6.008   7.698 -0.0779 -0.2193 -0.5729
   83MOL   O19820042   0.282   5.916   7.619 -0.2555 -0.4070  0.3838
   83MOL   O19920043   0.338   6.126   7.666 -0.0126 -0.4397  0.0537
   83MOL   H20020044   0.282   6.036   0.277  2.5370  1.5072  0.8989
   83MOL   H20120045   0.387   6.106   0.177 -1.8184  0.9343 -2.3659
   83MOL   H20220046   0.216   6.213   0.097 -1.6458  0.2625 -1.2684
   83MOL   H20320047   0.094   6.149   0.198 -0.0916 -1.1387  0.0925
   83MOL   H20420048   0.075   6.155   0.023  0.6566 -0.9739 -1.3016
   83MOL   H20520049   0.380   6.105   7.584  0.4827 -0.1041  0.2193
   83MOL   C20620050   0.121   5.883   0.100 -0.7707  0.1761 -0.0774
   83MOL   C20720051   7.734   5.890   0.041  0.6555 -0.5323  0.2157
   83MOL   C20820052   7.674   5.749   0.061 -0.1204 -0.1880 -0.5728
   83MOL   C20920053   7.651   5.985   0.140  0.0975  0.5374  1.2311
   83MOL   O21020054   7.620   6.103   0.113 -0.2668  0.3952 -0.2407
   83MOL   O21120055   7.618   5.928   0.257  0.2688 -0.2031  0.0645
   83MOL   H21220056   0.161   5.790   0.060  0.6884 -0.2694  2.3119
   83MOL   H21320057   0.114   5.868   0.208 -0.6589 -0.3733 -0.1442
   83MOL   H21420058   7.570   5.743   0.029 -0.2098  1.5472 -0.6400
   83MOL   H21520059   7.694   5.699   0.155  0.0758  1.3147  0.1995
   83MOL   H21620060   7.719   5.677   7.760  1.8063  1.9489 -1.6327
   83MOL   H21720061   7.561   5.987   0.304  0.7234 -1.5164  2.3327
   83MOL   C21820062   7.732   5.938   7.659  0.3888  0.1737  0.2670
   83MOL   C21920063   7.614   5.903   7.552  0.0345 -0.8372 -0.7745
   83MOL   C22020064   7.648   5.982   7.417  0.2538  0.1445  0.3454
   83MOL   C22120065   7.594   5.747   7.522  0.2831 -0.6565  0.3859
   83MOL   O22220066   7.499   5.674   7.547 -0.6306 -0.2440 -0.0302
   83MOL   O22320067   7.699   5.703   7.449  0.4627  0.5344  0.1144
   83MOL   H22420068   7.764   6.041   7.648 -1.5319  0.8371  0.6937
   83MOL   H22520069   0.046   5.878   7.617 -0.7600 -0.2679 -1.3839
   83MOL   H22620070   7.591   5.942   7.333 -0.9410  1.7998  0.3427
   83MOL   H22720071   7.754   5.970   7.397  0.7841 -0.4376  3.2858
   83MOL   H22820072   7.637   6.090   7.410  2.4369  0.2367 -2.3205
   83MOL   H22920073   7.681   5.610   7.444 -1.7500  0.9598 -0.3610
   83MOL   C23020074   7.485   5.955   7.616  0.5486 -0.3811 -0.3833
   83MOL   C23120075   7.357   5.952   7.528  0.0573  1.4607  0.6434
   83MOL   C23220076   7.247   5.857   7.584 -0.1029 -0.3342  0.1522
   83MOL   C23320077   7.319   6.100   7.504 -0.3360  0.0213 -0.6749
   83MOL   O23420078   7.293   6.172   7.598 -0.3805 -0.0329 -0.2715
   83MOL   O23520079   7.321   6.145   7.373  0.9667  0.5587  0.1384
   83MOL   H23620080   7.454   5.895   7.702 -1.3308 -0.7758 -1.3054
   83MOL   H23720081   7.510   6.056   7.649  0.9399 -0.5870 -0.0343
   83MOL   H23820082   7.151   5.873   7.535 -0.9511 -1.6132  1.3537
   83MOL   H23920083   7.235   5.864   7.693  3.2892  1.4803  0.4775
   83MOL   H24020084   7.284   5.759   7.555  2.5677  0.8842 -0.7206
   83MOL   H24120085   7.302   6.238   7.369 -0.9718  0.2533  1.4492
   83MOL   H24220086   7.377   5.915   7.427  0.6466  0.8599  0.9769
   84MOL     C120087   3.612   3.935   5.906 -0.0842 -0.5331  0.0737
   84MOL     C220088   3.567   3.789   5.869  0.6216 -0.4855 -0.2875
   84MOL     C320089   3.632   3.693   5.976 -0.1507 -0.2274 -0.7497
   84MOL     C420090   3.407   3.785   5.885  0.3082  0.3593 -0.2897
   84MOL     O520091   3.320   3.774   5.796  0.1841 -0.2917 -0.0363
   84MOL     O620092   3.373   3.793   6.020 -0.3720 -0.4049 -0.3755
   84MOL     H720093   3.579   3.971   6.003  0.8048  0.3191  0.0667
   84MOL     H820094   3.569   4.006   5.835  1.8259  0.0170 -0.5726
   84MOL     H920095   3.594   3.709   6.077  0.4647  0.8334 -0.6802
   84MOL    H1020096   3.738   3.714   5.991 -0.2360 -0.8115  0.6865
   84MOL    H1120097   3.618   3.589   5.947  2.6270 -1.1637  1.0631
   84MOL    H1220098   3.289   3.753   6.038 -0.8025  1.0302  0.9297
   84MOL    H1320099   3.720   3.948   5.916 -0.5058  2.7526  0.9081
   84MOL    C1420100   3.591   3.742   5.718  0.1741 -0.4676  0.3963
   84MOL    C1520101   3.730   3.727   5.650 -0.3771 -0.1689 -0.2930
   84MOL    C1620102   3.830   3.831   5.712 -0.2053 -0.0059  0.4538
   84MOL    C1720103   3.781   3.584   5.682 -0.9388  0.6139  0.1161
   84MOL    O1820104   3.757   3.481   5.615 -0.4606 -0.1019 -0.4711
   84MOL    O1920105   3.851   3.571   5.794 -0.0672  0.1729  0.4239
   84MOL    H2020106   3.546   3.643   5.708  0.1347 -0.4073 -0.0337
   84MOL    H2120107   3.525   3.802   5.655 -0.7265 -0.6616  1.1376
   84MOL    H2220108   3.785   3.928   5.691  0.3585  0.5446  1.7856
   84MOL    H2320109   3.929   3.835   5.665 -0.8302  0.1975 -0.8825
   84MOL    H2420110   3.846   3.819   5.819 -2.1739  0.3218  0.8015
   84MOL    H2520111   3.872   3.486   5.830 -1.3641 -0.5332 -0.4274
   84MOL    C2620112   3.709   3.756   5.493 -0.6600 -0.2062  0.0170
   84MOL    C2720113   3.803   3.729   5.372  0.1648  0.6686  0.9292
   84MOL    C2820114   3.768   3.846   5.268 -0.0724  0.4008  0.2704
   84MOL    C2920115   3.953   3.749   5.414  0.0598 -0.1997  0.0296
   84MOL    O3020116   4.005   3.858   5.388  0.0592 -0.7480 -0.5585
   84MOL    O3120117   4.016   3.643   5.473 -0.2094 -0.2229  0.2262
   84MOL    H3220118   3.618   3.700   5.468 -0.4580 -0.4083 -0.2653
   84MOL    H3320119   3.689   3.863   5.487 -0.3465 -0.2231 -1.5943
   84MOL    H3420120   3.667   3.828   5.231 -0.0001  0.9582 -0.2020
   84MOL    H3520121   3.829   3.842   5.178 -1.7056  1.3453 -0.9070
   84MOL    H3620122   3.758   3.946   5.308  0.1680  0.9265 -0.9483
   84MOL    H3720123   3.955   3.573   5.486 -0.3382 -0.1294  0.1198
   84MOL    C3820124   3.772   3.593   5.308  0.0659 -0.3726  0.6322
   84MOL    C3920125   3.821   3.535   5.171  0.2866  0.0746 -0.2097
   84MOL    C4020126   3.732   3.588   5.063  0.0242 -0.0571  0.3373
   84MOL    C4120127   3.969   3.573   5.134  0.3124  0.4772 -0.5996
   84MOL    O4220128   3.996   3.638   5.036  0.4064  0.0666  0.5319
   84MOL    O4320129   4.068   3.510   5.206 -0.2938  0.7803  0.3956
   84MOL    H4420130   3.804   3.519   5.382  1.6549  0.2368  0.5781
   84MOL    H4520131   3.664   3.587   5.302 -0.0074  0.9759  0.5179
   84MOL    H4620132   3.739   3.523   4.976  1.7341 -0.2891  0.6390
   84MOL    H4720133   3.757   3.687   5.025  0.6285  1.3783  4.2263
   84MOL    H4820134   3.630   3.595   5.101  0.1932  1.6540  0.5271
   84MOL    H4920135   4.151   3.543   5.176  1.6122 -2.7858  1.4394
   84MOL    C5020136   3.819   3.374   5.185 -0.6089  0.2526 -0.0717
   84MOL    C5120137   3.684   3.286   5.194  0.4609  0.0952 -1.2644
   84MOL    C5220138   3.601   3.326   5.326 -0.4498  0.1368  0.1962
   84MOL    C5320139   3.597   3.316   5.074  0.5344 -0.1934 -0.5397
   84MOL    O5420140   3.486   3.365   5.082  0.2530 -0.3489 -0.4038
   84MOL    O5520141   3.658   3.294   4.954 -0.1531  0.2735 -0.0363
   84MOL    H5620142   3.888   3.333   5.111 -0.2464  1.8079 -0.6165
   84MOL    H5720143   3.874   3.353   5.276  0.1168  0.7955 -0.3794
   84MOL    H5820144   3.537   3.241   5.350 -1.1953  0.4941 -0.5006
   84MOL    H5920145   3.543   3.417   5.312  1.9043  1.7126  0.4213
   84MOL    H6020146   3.668   3.343   5.410  1.2810 -0.5302 -0.9965
   84MOL    H6120147   3.607   3.314   4.877 -0.0185  0.7364 -0.0046
   84MOL    C6220148   3.711   3.135   5.207 -0.8655 -0.6205 -0.6376
   84MOL    C6320149   3.616   3.004   5.180 -0.5074 -0.6884 -0.3730
   84MOL    C6420150   3.479   3.025   5.241  0.2498 -0.1939 -0.5181
   84MOL    C6520151   3.604   2.991   5.024 -0.5668 -0.7960 -0.2629
   84MOL    O6620152   3.505   2.991   4.952  0.6744  0.4791  0.7768
   84MOL    O6720153   3.728   2.981   4.974  0.0668  0.3072  0.0166
   84MOL    H6820154   3.806   3.108   5.161  0.0844  0.1707  0.8129
   84MOL    H6920155   3.750   3.127   5.309  1.4325  0.1368 -1.4343
   84MOL    H7020156   3.425   3.114   5.208 -0.3932  0.5291  2.3371
   84MOL    H7120157   3.485   3.034   5.350 -2.3778 -0.2201 -0.3177
   84MOL    H7220158   3.403   2.947   5.229 -0.0528 -0.1077  0.6640
   84MOL    H7320159   3.742   2.981   4.881 -0.8268 -0.8143 -0.1325
   84MOL    C7420160   3.693   2.882   5.251  0.2043  0.5482 -0.6678
   84MOL    C7520161   3.672   2.728   5.230 -0.3408  0.5120 -0.1180
   84MOL    C7620162   3.719   2.681   5.085 -1.3089  1.0960 -0.0283
   84MOL    C7720163   3.766   2.649   5.325 -0.1875 -0.4193  0.0089
   84MOL    O7820164   3.723   2.588   5.417 -0.2021 -0.3468 -0.3739
   84MOL    O7920165   3.894   2.675   5.301  0.6236  0.2241  0.3960
   84MOL    H8020166   3.797   2.907   5.229 -0.7784  2.4821 -3.5506
   84MOL    H8120167   3.683   2.907   5.356 -0.4164 -3.0527  0.1686
   84MOL    H8220168   3.813   2.713   5.042 -0.5932 -1.7196 -0.6155
   84MOL    H8320169   3.641   2.719   5.019 -0.9660 -0.0444 -1.0936
   84MOL    H8420170   3.726   2.573   5.075 -2.7315  1.0277 -0.4070
   84MOL    H8520171   3.946   2.626   5.363  1.6991  0.3125 -0.4280
   84MOL    C8620172   3.519   2.694   5.255  0.6591 -0.1393 -0.1626
   84MOL    C8720173   3.446   2.545   5.276  0.0207 -0.0595  0.3642
   84MOL    C8820174   3.523   2.438   5.204 -0.1966 -0.2383  0.0266
   84MOL    C8920175   3.427   2.507   5.429  0.0446 -0.5519 -0.4661
   84MOL    O9020176   3.375   2.592   5.501  0.0878  0.1094 -0.3979
   84MOL    O9120177   3.480   2.383   5.466 -0.6946 -0.4632  0.0019
   84MOL    H9220178   3.492   2.757   5.340  0.9352 -1.4602  0.9049
   84MOL    H9320179   3.465   2.734   5.169  0.5508 -1.5346 -0.7616
   84MOL    H9420180   3.628   2.431   5.232 -0.5015  1.1785  1.6746
   84MOL    H9520181   3.528   2.449   5.096  0.2052 -1.8008 -0.1318
   84MOL    H9620182   3.476   2.341   5.218 -0.6029  0.1141  1.1787
   84MOL    H9720183   3.475   2.373   5.560 -0.0451 -0.3102  0.0552
   84MOL    C9820184   3.306   2.551   5.204  0.0027  0.3734  0.5008
   84MOL    C9920185   3.181   2.453   5.217  0.1983 -0.3629  0.2242
   84MOL   C10020186   3.195   2.347   5.105  0.5053  0.2355  0.0512
   84MOL   C10120187   3.148   2.393   5.357  0.0460  0.2325 -0.2161
   84MOL   O10220188   3.105   2.465   5.448 -0.0826 -0.1560 -0.1623
   84MOL   O10320189   3.179   2.263   5.369  0.8425  0.1908 -0.7318
   84MOL   H10420190   3.272   2.652   5.227  0.9244  1.3478 -2.2000
   84MOL   H10520191   3.323   2.557   5.097  1.3132  2.4417  0.8056
   84MOL   H10620192   3.203   2.385   5.003 -2.3210 -0.6336 -0.5328
   84MOL   H10720193   3.122   2.266   5.104  2.4668 -1.5788 -1.9757
   84MOL   H10820194   3.289   2.292   5.117  0.0183 -0.3088  1.5179
   84MOL   H10920195   3.167   2.249   5.462 -0.5306  0.8685 -0.7900
   84MOL   C11020196   3.055   2.546   5.176 -0.4968 -0.1959  0.1723
   84MOL   C11120197   2.912   2.496   5.139 -0.3584  0.4211 -0.0096
   84MOL   C11220198   2.820   2.629   5.138 -0.1258 -0.2405  0.3346
   84MOL   C11320199   2.912   2.446   4.991 -0.5127 -0.5473  0.2097
   84MOL   O11420200   2.891   2.329   4.947 -0.5876  0.0283 -0.8265
   84MOL   O11520201   2.943   2.555   4.912  0.1354  0.3359 -0.0416
   84MOL   H11620202   3.049   2.625   5.250 -1.5929  0.3993 -0.5492
   84MOL   H11720203   3.099   2.597   5.091  3.7757  0.1868  2.4611
   84MOL   H11820204   2.795   2.643   5.244 -1.5494  1.3389 -0.1890
   84MOL   H11920205   2.728   2.622   5.080 -0.9388 -0.3296  1.6142
   84MOL   H12020206   2.873   2.722   5.118  0.1015 -0.5157 -0.3263
   84MOL   H12120207   2.929   2.513   4.829  2.3224  1.2096 -0.8809
   84MOL   C12220208   2.859   2.382   5.232 -0.2982  0.0406 -0.4330
   84MOL   C12320209   2.713   2.327   5.249 -0.9420  0.6887  0.4871
   84MOL   C12420210   2.732   2.209   5.352 -0.2839 -0.2299 -0.4943
   84MOL   C12520211   2.620   2.423   5.334 -0.6072 -0.5946  0.6879
   84MOL   O12620212   2.606   2.414   5.454 -0.1960  0.0148 -0.4578
   84MOL   O12720213   2.557   2.522   5.251 -0.4677  0.0593  0.3242
   84MOL   H12820214   2.910   2.288   5.213  0.2219  0.4959 -1.2942
   84MOL   H12920215   2.895   2.412   5.330 -1.7834  1.4378 -0.3054
   84MOL   H13020216   2.634   2.170   5.382 -1.1856  2.0259 -0.4204
   84MOL   H13120217   2.790   2.242   5.438  0.3458  1.1720 -1.4351
   84MOL   H13220218   2.771   2.120   5.302 -1.5881 -0.6481 -0.8101
   84MOL   H13320219   2.467   2.543   5.273 -1.4785  1.1978 -4.2664
   84MOL   C13420220   2.647   2.292   5.110  0.0966 -0.2818 -0.3024
   84MOL   C13520221   2.515   2.209   5.075 -0.2428 -0.5722 -0.3869
   84MOL   C13620222   2.515   2.202   4.923 -0.0853  0.1615  0.6751
   84MOL   C13720223   2.546   2.061   5.128  0.1133  0.2018  0.3835
   84MOL   O13820224   2.488   2.011   5.224  0.4284  0.1834  0.9108
   84MOL   O13920225   2.643   1.999   5.063  0.6264 -0.1610 -0.0218
   84MOL   H14020226   2.648   2.368   5.032 -0.6184 -0.3609 -0.3950
   84MOL   H14120227   2.718   2.220   5.072 -0.2175  0.5696 -2.5626
   84MOL   H14220228   2.473   2.290   4.873 -1.7153 -0.1800  1.4363
   84MOL   H14320229   2.454   2.116   4.897  2.1312 -1.3909  0.4730
   84MOL   H14420230   2.611   2.183   4.875 -0.5066 -0.8490  0.2303
   84MOL   H14520231   2.679   2.045   4.988  1.1839 -0.2103  0.2107
   84MOL   C14620232   2.388   2.273   5.137 -0.2488 -0.2220 -0.5206
   84MOL   C14720233   2.235   2.240   5.101 -0.1694  0.6163 -0.1003
   84MOL   C14820234   2.187   2.313   4.973  0.1470  0.2564  0.3855
   84MOL   C14920235   2.207   2.087   5.080 -0.5870 -0.7091  0.2234
   84MOL   O15020236   2.176   2.010   5.169  0.1444  0.0105 -0.0612
   84MOL   O15120237   2.213   2.061   4.943 -0.6846 -0.3848 -0.6463
   84MOL   H15220238   2.404   2.268   5.245 -1.7930  0.0360 -0.2650
   84MOL   H15320239   2.396   2.380   5.117  1.5165 -0.2418 -0.0168
   84MOL   H15420240   2.186   2.422   4.981  0.5849  0.4113 -1.4000
   84MOL   H15520241   2.081   2.295   4.953  0.1220  1.1982 -0.3748
   84MOL   H15620242   2.247   2.308   4.882  0.2432 -0.1461  0.4720
   84MOL   H15720243   2.193   1.969   4.945 -0.8377 -0.3228  0.7902
   84MOL   C15820244   2.129   2.297   5.211 -0.4628  0.6744  0.9873
   84MOL   C15920245   2.143   2.311   5.362 -0.0715 -0.1923 -0.2385
   84MOL   C16020246   2.202   2.181   5.424  0.2480 -0.7721  0.3080
   84MOL   C16120247   2.242   2.426   5.401  0.4419  0.8065 -0.1683
   84MOL   O16220248   2.305   2.497   5.323  0.1230 -0.7404 -0.1955
   84MOL   O16320249   2.242   2.458   5.534  0.0802 -0.7668 -0.4791
   84MOL   H16420250   2.094   2.395   5.180 -0.3274  0.3695 -0.1445
   84MOL   H16520251   2.047   2.231   5.183 -0.3299  0.1510  1.7868
   84MOL   H16620252   2.297   2.148   5.383 -0.4285 -2.2238 -0.1321
   84MOL   H16720253   2.126   2.103   5.418  0.8262 -1.2805 -0.4109
   84MOL   H16820254   2.216   2.196   5.531 -0.2343 -1.3568  0.4513
   84MOL   H16920255   2.288   2.541   5.538  0.4696 -0.9500 -1.1515
   84MOL   C17020256   1.995   2.336   5.426 -0.4397  0.4074  0.0062
   84MOL   C17120257   1.879   2.442   5.378  0.6906 -0.0685 -0.1677
   84MOL   C17220258   1.790   2.362   5.276 -0.2541 -0.0691  0.3363
   84MOL   C17320259   1.794   2.476   5.506  0.0488  0.2001  0.1404
   84MOL   O17420260   1.835   2.474   5.619 -0.0834 -0.1441  0.0131
   84MOL   O17520261   1.667   2.510   5.480  0.4519 -0.4112  0.0456
   84MOL   H17620262   1.961   2.234   5.440 -0.0436  0.2923  0.1168
   84MOL   H17720263   2.014   2.350   5.532 -0.1698  0.0350  0.0064
   84MOL   H17820264   1.752   2.268   5.316  2.1685 -1.3938 -0.3370
   84MOL   H17920265   1.851   2.324   5.194 -0.8127 -0.3681  0.0561
   84MOL   H18020266   1.704   2.416   5.237 -0.0788 -0.1421 -0.1424
   84MOL   H18120267   1.625   2.513   5.565 -1.2347 -2.2036 -0.7057
   84MOL   C18220268   1.946   2.569   5.330  0.8713  0.0521 -0.8325
   84MOL   C18320269   1.871   2.709   5.310  0.6053 -0.1997  0.3769
   84MOL   C18420270   1.969   2.794   5.217  0.2941 -0.1384 -0.2870
   84MOL   C18520271   1.742   2.688   5.229 -0.1745 -0.0685 -0.4554
   84MOL   O18620272   1.636   2.743   5.253 -0.2392 -0.1394 -0.0792
   84MOL   O18720273   1.760   2.615   5.117 -0.1773  0.7283  0.1680
   84MOL   H18820274   2.027   2.591   5.399 -0.8211  0.9461  0.9110
   84MOL   H18920275   1.999   2.549   5.237 -1.0613  1.0763 -2.1885
   84MOL   H19020276   2.072   2.803   5.249  0.2114  1.1319 -0.3709
   84MOL   H19120277   1.945   2.899   5.200  0.0215  0.1413  1.6999
   84MOL   H19220278   1.978   2.734   5.126  1.7284  2.1704 -1.7050
   84MOL   H19320279   1.673   2.607   5.082 -0.5006  0.3475  1.0387
   84MOL   C19420280   1.825   2.790   5.440 -0.5553  0.3055  0.0244
   84MOL   C19520281   1.934   2.869   5.533  0.6337 -0.1016 -0.7270
   84MOL   C19620282   2.051   2.782   5.559 -0.4562 -0.4126 -0.6415
   84MOL   C19720283   1.978   2.999   5.466 -0.1374 -0.2966 -0.5725
   84MOL   O19820284   2.088   3.048   5.481  0.0741 -0.7287 -0.5056
   84MOL   O19920285   1.888   3.061   5.393 -0.0086 -0.4794 -0.3503
   84MOL   H20020286   1.764   2.873   5.407 -0.6838  0.2158  0.0394
   84MOL   H20120287   1.752   2.739   5.502 -2.0673  4.0570  1.5003
   84MOL   H20220288   2.114   2.768   5.472 -1.9231 -0.5124 -1.6985
   84MOL   H20320289   2.031   2.688   5.610  0.7566 -0.5084 -0.3247
   84MOL   H20420290   2.120   2.837   5.623 -0.7763  0.5066 -1.0762
   84MOL   H20520291   1.916   3.149   5.372  0.5137 -0.6233 -0.2542
   84MOL   C20620292   1.850   2.897   5.670  0.0436  0.2461  0.2192
   84MOL   C20720293   1.889   2.997   5.788 -0.5249 -0.4440  0.2500
   84MOL   C20820294   2.028   2.961   5.841  1.3010  0.3924 -0.4005
   84MOL   C20920295   1.894   3.144   5.738  0.5151 -0.0674 -0.5357
   84MOL   O21020296   1.807   3.196   5.668  0.2326 -0.0992  0.3868
   84MOL   O21120297   1.997   3.214   5.790  0.7473  0.0729 -0.7854
   84MOL   H21220298   1.767   2.945   5.619 -0.9258 -2.2882 -0.6720
   84MOL   H21320299   1.807   2.806   5.711 -1.5093  0.7288 -0.3141
   84MOL   H21420300   2.052   3.010   5.936  0.9059 -1.4282  0.6717
   84MOL   H21520301   2.105   2.988   5.769  0.8581 -0.3138 -1.1413
   84MOL   H21620302   2.029   2.852   5.851 -1.2918  0.4944  1.5210
   84MOL   H21720303   2.005   3.294   5.740  1.6503 -0.9120 -2.2290
   84MOL   C21820304   1.790   2.984   5.912 -0.2178 -0.4499  0.5095
   84MOL   C21920305   1.643   3.032   5.921  0.3827 -0.2060 -0.4341
   84MOL   C22020306   1.632   3.183   5.942 -0.3102  0.4002  0.4150
   84MOL   C22120307   1.565   2.992   5.796 -0.0202  0.1397  0.7025
   84MOL   O22220308   1.530   3.065   5.703  0.0145 -0.6600 -0.7736
   84MOL   O22320309   1.527   2.860   5.793  0.0388  0.0915 -0.1593
   84MOL   H22420310   1.791   2.877   5.933 -1.1430 -0.9392 -1.8759
   84MOL   H22520311   1.841   3.003   6.007  0.8804  2.0842 -0.5400
   84MOL   H22620312   1.527   3.213   5.952  0.1996  1.6620  2.4467
   84MOL   H22720313   1.678   3.244   5.865  3.3708 -1.1288  1.3084
   84MOL   H22820314   1.674   3.200   6.041  1.4286  0.0427 -0.2546
   84MOL   H22920315   1.492   2.845   5.707  1.0567  1.8225 -0.9136
   84MOL   C23020316   1.592   2.953   6.056 -0.0907 -0.2695  0.2006
   84MOL   C23120317   1.444   2.977   6.098  0.0438  0.4609  0.2643
   84MOL   C23220318   1.376   2.845   6.140  0.4939  0.5774  0.1226
   84MOL   C23320319   1.431   3.081   6.217  0.2168  0.2192 -0.1454
   84MOL   O23420320   1.386   3.194   6.201  0.0104 -0.1093 -0.5020
   84MOL   O23520321   1.470   3.025   6.328  0.2770  0.1961  0.3726
   84MOL   H23620322   1.603   2.848   6.030 -2.6868 -0.7584  0.8971
   84MOL   H23720323   1.655   2.974   6.142  0.3224 -1.1388  0.1076
   84MOL   H23820324   1.274   2.857   6.175  0.7084 -0.7954  1.2554
   84MOL   H23920325   1.420   2.791   6.223 -1.3861  0.6803  1.2046
   84MOL   H24020326   1.378   2.773   6.058  0.0292  2.4889 -1.6373
   84MOL   H24120327   1.487   3.094   6.390  1.5199  0.0387  0.2262
   84MOL   H24220328   1.390   2.990   6.005  0.6220  0.9992  0.0002
   85MOL     C120329   0.752   7.624   6.262  0.3489  0.7109  0.4045
   85MOL     C220330   0.788   7.561   6.128 -1.3380 -0.0415 -0.1253
   85MOL     C320331   0.663   7.595   6.044  0.3170 -1.3299  0.4125
   85MOL     C420332   0.916   7.610   6.057 -0.6840  1.0866 -0.3300
   85MOL     O520333   0.958   7.720   6.073 -0.1874  0.3902 -0.0511
   85MOL     O620334   0.965   7.521   5.966  0.3820  0.2805  0.1447
   85MOL     H720335   0.725   7.730   6.258 -0.3873  0.6310  2.4500
   85MOL     H820336   0.838   7.622   6.329  0.8406 -0.8616 -0.2601
   85MOL     H920337   0.661   7.550   5.944  2.7857  1.6909 -1.0861
   85MOL    H1020338   0.664   7.701   6.017 -1.9333 -1.6880 -1.1999
   85MOL    H1120339   0.568   7.575   6.093 -1.5331  0.9462 -2.0711
   85MOL    H1220340   1.036   7.560   5.916 -1.1053  0.0449 -2.2633
   85MOL    H1320341   0.668   7.566   6.300  1.6746 -1.5577 -0.0707
   85MOL    C1420342   0.792   7.405   6.147  0.2100 -0.1940 -0.2017
   85MOL    C1520343   0.880   7.323   6.256  0.7763  0.1345  1.2634
   85MOL    C1620344   1.027   7.379   6.265 -0.1053  0.3818 -0.3860
   85MOL    C1720345   0.805   7.336   6.391 -0.7059 -0.1119  0.3860
   85MOL    O1820346   0.847   7.393   6.488 -0.1154  0.6615  0.4133
   85MOL    O1920347   0.685   7.277   6.393 -0.3044 -0.3269 -0.2446
   85MOL    H2020348   0.693   7.370   6.174 -0.0928 -0.0173 -1.0711
   85MOL    H2120349   0.810   7.364   6.047 -0.1455 -1.2804  0.1651
   85MOL    H2220350   1.093   7.329   6.336  0.9788  0.1132 -1.5564
   85MOL    H2320351   1.032   7.485   6.288  0.7287 -0.0545  1.5593
   85MOL    H2420352   1.077   7.378   6.169  2.0879  4.2635  0.6266
   85MOL    H2520353   0.648   7.279   6.480  1.4854  0.8343  0.5371
   85MOL    C2620354   0.894   7.177   6.202  0.3030  0.2306 -0.5736
   85MOL    C2720355   0.936   7.049   6.278  0.5012 -0.2763 -0.5488
   85MOL    C2820356   1.063   7.074   6.368  0.5472 -0.1436  0.1722
   85MOL    C2920357   0.825   6.987   6.371 -0.6197  0.4393  0.1471
   85MOL    O3020358   0.704   6.979   6.332 -0.1620  0.3563  0.0941
   85MOL    O3120359   0.872   6.953   6.493  0.1256 -0.0839 -0.5078
   85MOL    H3220360   0.796   7.157   6.158  1.1291 -0.2881 -2.2284
   85MOL    H3320361   0.973   7.186   6.127  1.4313 -0.6948  0.4878
   85MOL    H3420362   1.098   6.982   6.414 -0.4024 -0.7241 -0.2482
   85MOL    H3520363   1.049   7.144   6.450 -0.8632 -0.1312 -0.0717
   85MOL    H3620364   1.145   7.099   6.299  0.3876 -1.2398 -0.4203
   85MOL    H3720365   0.796   6.926   6.542  0.1140  0.4251 -0.2489
   85MOL    C3820366   0.981   6.942   6.164 -0.1021 -0.0828 -0.5403
   85MOL    C3920367   0.887   6.842   6.086 -1.2020  0.5891 -0.0949
   85MOL    C4020368   0.861   6.712   6.172  0.3199 -0.5117  0.2033
   85MOL    C4120369   0.760   6.916   6.039  0.4186 -0.6408 -0.0232
   85MOL    O4220370   0.646   6.882   6.070 -0.2953  0.3592  1.0349
   85MOL    O4320371   0.782   7.021   5.960  0.3147  0.3538  0.0983
   85MOL    H4420372   1.041   7.000   6.094 -1.1493  4.7683  2.3136
   85MOL    H4520373   1.053   6.874   6.208 -0.5040 -0.8609 -1.0634
   85MOL    H4620374   0.945   6.643   6.173  0.4250 -0.3796  1.4338
   85MOL    H4720375   0.775   6.646   6.159  0.2531 -0.6025  1.0709
   85MOL    H4820376   0.856   6.752   6.273 -0.3949 -1.2282  0.4571
   85MOL    H4920377   0.704   7.074   5.951  0.0622  0.1943  1.3115
   85MOL    C5020378   0.969   6.795   5.956  0.1463 -0.2040  0.7221
   85MOL    C5120379   0.914   6.687   5.852 -0.0900  0.6952  0.0664
   85MOL    C5220380   0.986   6.715   5.725 -0.5064 -0.3240  0.1103
   85MOL    C5320381   0.960   6.548   5.902 -0.6538  0.6505 -0.0549
   85MOL    O5420382   0.888   6.471   5.969  0.1813  0.0149 -0.3692
   85MOL    O5520383   1.096   6.519   5.882  0.3265  0.1612 -0.5654
   85MOL    H5620384   0.997   6.883   5.897 -0.0433  0.0351  0.9823
   85MOL    H5720385   1.068   6.763   5.986  0.3016 -0.6021 -0.1811
   85MOL    H5820386   0.956   6.808   5.676 -0.5771 -1.6392 -2.4818
   85MOL    H5920387   0.975   6.638   5.649  0.8766 -2.2732  1.8545
   85MOL    H6020388   1.092   6.733   5.743 -0.3476 -1.3986  0.2746
   85MOL    H6120389   1.119   6.433   5.911  2.9437  0.2562 -2.1964
   85MOL    C6220390   0.753   6.698   5.824 -0.2786  0.4007  0.1958
   85MOL    C6320391   0.673   6.625   5.710  0.1948  0.9937 -0.4047
   85MOL    C6420392   0.522   6.628   5.745 -0.0501 -0.2394 -0.1428
   85MOL    C6520393   0.692   6.702   5.578 -0.1968 -0.0631 -0.1725
   85MOL    O6620394   0.632   6.809   5.558  0.2855  0.7165  0.1316
   85MOL    O6720395   0.788   6.654   5.496 -0.3382  1.0649 -0.6663
   85MOL    H6820396   0.714   6.657   5.917 -1.9097 -0.2989 -0.7838
   85MOL    H6920397   0.726   6.804   5.814  2.8994  1.3995  1.4486
   85MOL    H7020398   0.502   6.724   5.792 -3.4977 -0.1275 -1.7117
   85MOL    H7120399   0.504   6.556   5.826 -0.1844  1.1208  1.0611
   85MOL    H7220400   0.449   6.613   5.666 -0.6709  1.9573 -0.0235
   85MOL    H7320401   0.791   6.707   5.418 -1.1555  0.6821 -0.9667
   85MOL    C7420402   0.719   6.476   5.698  0.2167 -0.5375  0.2918
   85MOL    C7520403   0.648   6.358   5.612  0.4739  0.1002 -0.1612
   85MOL    C7620404   0.581   6.414   5.480  0.0688  0.0927  0.2714
   85MOL    C7720405   0.763   6.263   5.574 -0.3602 -0.0558 -0.2402
   85MOL    O7820406   0.789   6.228   5.457  0.0452  0.4614 -0.2800
   85MOL    O7920407   0.825   6.216   5.685  0.9726 -0.2170  0.2126
   85MOL    H8020408   0.825   6.482   5.672  0.0408  1.9072 -0.0331
   85MOL    H8120409   0.713   6.434   5.798 -0.2742  3.0968  1.8649
   85MOL    H8220410   0.490   6.465   5.513 -2.4346 -2.2484 -2.6455
   85MOL    H8320411   0.548   6.337   5.410  2.5440 -0.0372 -0.8008
   85MOL    H8420412   0.642   6.473   5.412  1.2174 -0.9039  0.4180
   85MOL    H8520413   0.779   6.244   5.763 -0.4863 -1.6910 -0.0982
   85MOL    C8620414   0.538   6.280   5.701 -0.4859  0.1217  0.0635
   85MOL    C8720415   0.430   6.175   5.652 -0.1620  0.4651  0.9838
   85MOL    C8820416   0.343   6.231   5.539  0.3328 -0.3212 -0.0239
   85MOL    C8920417   0.498   6.044   5.609  0.4251  0.4698 -0.6990
   85MOL    O9020418   0.437   5.973   5.529 -0.1046 -0.1665  0.4471
   85MOL    O9120419   0.621   6.016   5.652 -0.2123 -0.3535  0.1183
   85MOL    H9220420   0.594   6.231   5.781 -1.7213 -1.5849 -0.1113
   85MOL    H9320421   0.483   6.360   5.751  1.4549  0.6728  1.4023
   85MOL    H9420422   0.340   6.340   5.546 -1.1520 -0.2917 -0.9815
   85MOL    H9520423   0.244   6.185   5.548  0.3852 -0.8455 -1.9574
   85MOL    H9620424   0.383   6.204   5.441  1.2152  1.3265 -0.1337
   85MOL    H9720425   0.642   5.928   5.624 -0.5132 -0.4600  0.2303
   85MOL    C9820426   0.327   6.140   5.765 -0.1026 -0.1855 -0.0272
   85MOL    C9920427   0.360   6.086   5.911  0.1364  0.2869 -0.1412
   85MOL   C10020428   0.427   5.946   5.901  0.0193  0.1506 -0.0744
   85MOL   C10120429   0.456   6.171   5.990  0.1366 -0.4074 -0.0973
   85MOL   O10220430   0.570   6.145   6.031  0.0496 -0.3126 -0.6386
   85MOL   O10320431   0.409   6.296   6.007  0.5490  0.0863 -0.0348
   85MOL   H10420432   0.269   6.231   5.780  0.4022  0.2856 -0.8455
   85MOL   H10520433   0.257   6.065   5.726 -0.0460  0.2600 -1.0034
   85MOL   H10620434   0.530   5.964   5.872  0.4111 -0.8548  0.6711
   85MOL   H10720435   0.368   5.878   5.840 -1.9425  0.3708  1.4983
   85MOL   H10820436   0.443   5.894   5.996 -1.0916 -1.5214 -0.7978
   85MOL   H10920437   0.477   6.336   6.058  0.6427 -1.2279  0.9080
   85MOL   C11020438   0.219   6.074   5.987 -0.3514  0.4277 -0.2904
   85MOL   C11120439   0.178   5.974   6.101 -0.0002  1.2301 -0.3125
   85MOL   C11220440   0.174   5.833   6.038 -0.4729 -0.4328 -0.2354
   85MOL   C11320441   0.281   5.974   6.219  0.4471  0.2095 -0.7838
   85MOL   O11420442   0.346   6.076   6.249  0.4783 -0.2596  0.2803
   85MOL   O11520443   0.280   5.857   6.290 -0.4407 -0.1522  0.0351
   85MOL   H11620444   0.193   6.172   6.026  3.4478  0.8329  1.4472
   85MOL   H11720445   0.139   6.063   5.914  0.0106  1.2344 -0.8168
   85MOL   H11820446   0.272   5.786   6.033 -0.4596 -0.3198 -1.0915
   85MOL   H11920447   0.130   5.844   5.939 -0.0170  0.9574 -0.2843
   85MOL   H12020448   0.112   5.751   6.075 -1.3426  0.7564  0.9871
   85MOL   H12120449   0.348   5.860   6.355 -1.0549 -2.5842  0.8290
   85MOL   C12220450   0.024   5.994   6.149  0.3948 -0.6782  0.2132
   85MOL   C12320451   7.734   6.093   6.253 -0.0890  0.3367  0.9990
   85MOL   C12420452   7.759   6.237   6.205  0.1151  1.0440 -0.1828
   85MOL   C12520453   7.580   6.077   6.255  0.4048  0.2991 -0.1438
   85MOL   O12620454   7.499   6.154   6.196 -0.0936  0.4596  0.0904
   85MOL   O12720455   7.551   5.959   6.314 -0.3347 -0.3910 -0.2877
   85MOL   H12820456   7.731   5.991   6.058 -1.1460  0.2319  1.1684
   85MOL   H12920457   7.767   5.899   6.197 -1.2075  0.7062  2.2658
   85MOL   H13020458   0.099   6.256   6.201 -0.1108  2.4201  0.2046
   85MOL   H13120459   7.708   6.315   6.261 -0.1055 -0.3824  1.6350
   85MOL   H13220460   7.721   6.261   6.105 -0.3430  0.0006 -0.2693
   85MOL   H13320461   7.459   5.938   6.324 -0.6976  1.0790 -0.4400
   85MOL   C13420462   0.028   6.064   6.396  0.5443 -0.4197  0.1457
   85MOL   C13520463   7.746   6.125   6.539 -0.1041 -0.2349  0.5434
   85MOL   C13620464   7.700   6.270   6.521 -0.5651  0.2349  0.1401
   85MOL   C13720465   7.629   6.044   6.594 -0.2635 -0.0497  0.2794
   85MOL   O13820466   7.622   5.923   6.586  0.7571 -0.8008 -0.1166
   85MOL   O13920467   7.538   6.114   6.670 -0.2745 -0.6551  0.5600
   85MOL   H14020468   0.052   5.959   6.414  0.0572 -0.9128 -1.9228
   85MOL   H14120469   0.122   6.117   6.378  0.6568 -0.4790  0.5548
   85MOL   H14220470   0.015   6.328   6.478 -1.7324  1.5949 -0.2925
   85MOL   H14320471   7.670   6.319   6.614 -0.8220  0.6536 -0.1636
   85MOL   H14420472   7.608   6.269   6.464 -0.9041 -2.1457  0.6618
   85MOL   H14520473   7.483   6.056   6.721 -0.4908 -0.2034  0.8406
   85MOL   C14620474   0.104   6.119   6.631  0.5265 -0.3962 -0.5294
   85MOL   C14720475   0.108   6.141   6.786 -0.3127 -0.7616  0.3517
   85MOL   C14820476   0.038   6.279   6.821  0.3776  0.1699  0.0367
   85MOL   C14920477   0.039   6.013   6.849  0.3146  0.2101  0.1219
   85MOL   O15020478   7.714   6.020   6.930 -0.6353 -0.0139  0.3596
   85MOL   O15120479   0.101   5.900   6.809 -0.2449  0.5676  0.2346
   85MOL   H15220480   0.167   6.033   6.606  2.1028  0.8757 -1.0342
   85MOL   H15320481   0.171   6.196   6.594  2.9626 -1.0532  2.3135
   85MOL   H15420482   0.067   6.307   6.922  1.1735  0.6262 -0.3057
   85MOL   H15520483   7.698   6.265   6.812  0.5863 -1.5598  0.0340
   85MOL   H15620484   0.070   6.358   6.753 -0.7107  1.3451  0.8744
   85MOL   H15720485   0.051   5.824   6.834 -0.0626  0.1614 -0.6279
   85MOL   C15820486   0.267   6.154   6.827  0.0400  0.0636 -0.0183
   85MOL   C15920487   0.319   6.130   6.975 -0.2826 -0.5535  0.0291
   85MOL   C16020488   0.329   5.975   7.006  0.0950  0.1597 -0.0180
   85MOL   C16120489   0.462   6.183   6.958  0.2644 -0.0685  0.0977
   85MOL   O16220490   0.559   6.111   6.973 -0.1797  0.0387  0.4702
   85MOL   O16320491   0.475   6.316   6.928 -0.5275 -0.5312  0.3964
   85MOL   H16420492   0.328   6.084   6.770 -1.4036 -0.4028 -1.0431
   85MOL   H16520493   0.287   6.256   6.796 -0.9142  0.1048 -0.5296
   85MOL   H16620494   0.394   5.956   7.091  1.0122  1.4677 -0.4123
   85MOL   H16720495   0.369   5.920   6.921  0.8277  1.9666 -0.8599
   85MOL   H16820496   0.227   5.941   7.026 -0.1715  1.5709  1.0525
   85MOL   H16920497   0.565   6.339   6.913 -0.4286  0.0543  1.8347
   85MOL   C17020498   0.242   6.207   7.088 -0.1230  0.6841 -0.1584
   85MOL   C17120499   0.251   6.190   7.246  0.2502  0.4755  0.1074
   85MOL   C17220500   0.252   6.044   7.280  0.4801  0.2018  0.2878
   85MOL   C17320501   0.377   6.253   7.317  0.7170  0.6813  0.8262
   85MOL   O17420502   0.413   6.237   7.433 -0.0766  0.2884  0.2508
   85MOL   O17520503   0.441   6.339   7.227  0.3262  0.5793 -0.1420
   85MOL   H17620504   0.249   6.312   7.060 -0.9664  1.0281  0.8984
   85MOL   H17720505   0.137   6.179   7.072 -0.4783  1.8878  0.0529
   85MOL   H17820506   0.191   5.978   7.218 -0.1244 -0.1202  1.2266
   85MOL   H17920507   0.213   6.026   7.380  1.1140 -0.7536  0.3683
   85MOL   H18020508   0.353   6.008   7.301 -0.1539 -2.7268 -1.3313
   85MOL   H18120509   0.524   6.374   7.257  0.2439 -0.0401  0.8631
   85MOL   C18220510   0.118   6.244   7.314 -0.5259 -0.1431 -0.1827
   85MOL   C18320511   0.056   6.391   7.287  0.7080 -0.1110 -0.9865
   85MOL   C18420512   0.182   6.492   7.269  0.4808 -0.2489 -0.0232
   85MOL   C18520513   7.745   6.393   7.154 -0.3805 -0.7965 -1.3630
   85MOL   O18620514   7.744   6.490   7.073 -0.2508  0.5408  0.1977
   85MOL   O18720515   7.667   6.285   7.142  0.3022  0.6526 -0.2604
   85MOL   H18820516   0.038   6.171   7.300 -0.2764 -0.4922  0.1945
   85MOL   H18920517   0.131   6.225   7.421  0.3523 -0.3277 -0.3154
   85MOL   H19020518   0.148   6.595   7.256 -0.3019 -0.1149  2.7098
   85MOL   H19120519   0.241   6.458   7.183  0.1353  0.1531 -0.4236
   85MOL   H19220520   0.255   6.501   7.349  2.3318 -2.0494 -1.4690
   85MOL   H19320521   7.623   6.288   7.059 -0.3666 -0.0255  0.0664
   85MOL   C19420522   7.721   6.447   7.400 -0.0160  0.3141  0.2537
   85MOL   C19520523   7.750   6.495   7.547 -0.0290 -0.4263 -1.0458
   85MOL   C19620524   0.030   6.375   7.632  0.2111 -0.1643 -0.5214
   85MOL   C19720525   0.082   6.607   7.550  0.0388  0.0276  0.3355
   85MOL   O19820526   0.174   6.608   7.631  0.2048  0.6958  0.2847
   85MOL   O19920527   0.059   6.704   7.460 -0.1959  0.8599  0.2377
   85MOL   H20020528   7.658   6.521   7.350 -1.1409  0.1138  1.3565
   85MOL   H20120529   7.658   6.359   7.415  1.2325 -0.9191 -1.5077
   85MOL   H20220530   0.128   6.333   7.611  0.3261 -0.4342  0.5110
   85MOL   H20320531   7.727   6.292   7.629 -1.1563  0.9947 -1.7229
   85MOL   H20420532   0.047   6.400   7.737 -0.7040 -2.1275  0.1086
   85MOL   H20520533   0.123   6.773   7.468 -1.3469  2.2288 -1.8915
   85MOL   C20620534   7.614   6.544   7.611  0.7021 -0.1075 -0.0784
   85MOL   C20720535   7.594   6.644   7.739  0.1766 -0.3128  0.7125
   85MOL   C20820536   7.681   6.598   0.091  0.6205 -0.0426 -0.1855
   85MOL   C20920537   7.642   6.794   7.721  0.1845  0.8019 -0.4703
   85MOL   O21020538   7.696   6.865   0.043 -0.1156 -0.1650  0.1580
   85MOL   O21120539   7.624   6.842   7.601 -0.0510 -0.2611 -0.2339
   85MOL   H21220540   7.553   6.599   7.539  1.6037  1.6999  0.5085
   85MOL   H21320541   7.560   6.455   7.640 -1.1461  1.2975  0.9178
   85MOL   H21420542   7.661   6.645   0.188  1.0942  1.8450 -0.9870
   85MOL   H21520543   0.020   6.618   0.077  0.5393 -0.3384 -1.2159
   85MOL   H21620544   7.672   6.490   0.099  0.4889 -0.1091 -1.2140
   85MOL   H21720545   7.643   6.934   7.589 -1.1253  0.0101  0.1099
   85MOL   C21820546   7.446   6.640   0.034 -0.8839  0.2257  0.1779
   85MOL   C21920547   7.316   6.648   7.720  0.2371  0.1144 -0.2823
   85MOL   C22020548   7.316   6.765   7.614  0.4178 -0.7465  0.1244
   85MOL   C22120549   7.291   6.506   7.647 -0.3753 -0.3107 -0.1730
   85MOL   O22220550   7.265   6.495   7.526  0.3172  0.3382  0.1443
   85MOL   O22320551   7.283   6.402   7.735 -0.9575  0.3018 -0.2838
   85MOL   H22420552   7.446   6.542   0.081  1.2281  1.5122  2.9696
   85MOL   H22520553   7.439   6.704   0.122 -1.6973  0.3461  0.0306
   85MOL   H22620554   7.214   6.785   7.581  0.2945 -0.1494  0.8588
   85MOL   H22720555   7.371   6.748   7.521  1.1617 -0.7256  0.5546
   85MOL   H22820556   7.349   6.859   7.658 -0.9852 -1.1659  2.0986
   85MOL   H22920557   7.265   6.319   7.694 -0.6217  0.5083 -0.8551
   85MOL   C23020558   7.203   6.676   0.061  0.1230 -0.1700  0.6546
   85MOL   C23120559   7.052   6.666   0.014  0.6720 -0.0544 -0.5310
   85MOL   C23220560   6.972   6.596   0.124  0.6853  0.3592  0.4714
   85MOL   C23320561   6.997   6.805   7.745  0.2718 -0.0099 -0.4254
   85MOL   O23420562   7.036   6.912   0.023 -0.5634 -0.3576  0.1172
   85MOL   O23520563   6.883   6.793   7.668  0.2696 -0.0621  0.0478
   85MOL   H23620564   7.207   6.595   0.134 -0.2974 -2.0991 -1.4128
   85MOL   H23720565   7.233   6.775   0.096  0.9583 -0.0036 -0.5305
   85MOL   H23820566   6.992   6.642   0.221 -0.9882  0.2832  0.8694
   85MOL   H23920567   6.988   6.489   0.129 -0.9779 -0.1461 -3.3090
   85MOL   H24020568   6.865   6.611   0.113  0.2885 -2.4345  0.2351
   85MOL   H24120569   6.826   6.868   7.664  0.0986 -0.0785  1.7219
   85MOL   H24220570   7.046   6.610   7.688 -0.9870 -0.5169 -0.1529
   86MOL     C120571   2.070   4.576   0.717  0.8269 -0.1206  0.1053
   86MOL     C220572   2.055   4.422   0.699 -0.4640 -0.2614 -0.3871
   86MOL     C320573   2.090   4.368   0.844 -0.1074  0.2199 -0.1217
   86MOL     C420574   1.913   4.370   0.655  1.1028 -1.0489 -0.1467
   86MOL     O520575   1.815   4.444   0.665 -0.2196  0.1671 -0.0460
   86MOL     O620576   1.907   4.239   0.625 -0.1941  0.2028  0.0114
   86MOL     H720577   1.994   4.618   0.782  0.1554 -2.9177  1.2086
   86MOL     H820578   2.093   4.641   0.633  0.3926  0.9963  0.8386
   86MOL     H920579   2.186   4.393   0.889 -0.8838  3.0856  0.0510
   86MOL    H1020580   2.076   4.260   0.841 -0.9639  0.3704 -2.1889
   86MOL    H1120581   2.017   4.395   0.920  2.1614  0.6688  1.9783
   86MOL    H1220582   1.822   4.199   0.614  0.1195  0.3257 -3.4113
   86MOL    H1320583   2.153   4.593   0.785  0.6172 -0.6684  0.5007
   86MOL    C1420584   2.177   4.361   0.605  0.0064  0.4577 -0.2177
   86MOL    C1520585   2.187   4.402   0.453  0.3733  0.2484  0.1955
   86MOL    C1620586   2.044   4.418   0.386 -0.1912  0.1505 -0.1853
   86MOL    C1720587   2.265   4.541   0.439 -0.6723  0.2648 -0.4934
   86MOL    O1820588   2.334   4.587   0.526 -0.1564  0.7080  0.2182
   86MOL    O1920589   2.259   4.594   0.310  0.5690  0.2487 -0.1151
   86MOL    H2020590   2.271   4.387   0.654  0.6105 -1.4339 -0.3316
   86MOL    H2120591   2.172   4.252   0.609 -2.8479  0.5054 -1.1644
   86MOL    H2220592   1.984   4.327   0.390 -0.0417 -0.0682 -2.4264
   86MOL    H2320593   2.059   4.448   0.282  2.2064 -0.7427 -0.1098
   86MOL    H2420594   1.990   4.505   0.425 -1.6798  0.0798 -2.0139
   86MOL    H2520595   2.315   4.669   0.300  1.6989 -0.6743 -0.8160
   86MOL    C2620596   2.257   4.280   0.371 -0.2472  0.2795  0.6366
   86MOL    C2720597   2.392   4.209   0.401  0.4519  0.2022  0.2351
   86MOL    C2820598   2.385   4.083   0.319  1.4722  0.3801 -0.0814
   86MOL    C2920599   2.505   4.297   0.345 -0.3949 -0.4802 -0.3956
   86MOL    O3020600   2.574   4.261   0.249  0.1484 -0.3772 -0.1177
   86MOL    O3120601   2.540   4.402   0.421  0.3114 -0.3082  0.4840
   86MOL    H3220602   2.185   4.198   0.373  1.9174 -1.6600  2.0712
   86MOL    H3320603   2.254   4.295   0.263  0.6010  0.7013  0.6675
   86MOL    H3420604   2.290   4.030   0.324  1.5194 -0.1567 -3.5224
   86MOL    H3520605   2.463   4.008   0.332  1.9051  0.6569 -1.0375
   86MOL    H3620606   2.374   4.107   0.213 -0.9051  0.4278  0.1513
   86MOL    H3720607   2.481   4.427   0.491 -0.0866 -0.3622  0.1718
   86MOL    C3820608   2.422   4.168   0.548 -0.4853  0.2668  0.6685
   86MOL    C3920609   2.537   4.075   0.615 -0.0378 -0.0253  0.1160
   86MOL    C4020610   2.673   4.114   0.550 -0.6259 -0.7658 -0.9768
   86MOL    C4120611   2.554   4.121   0.765 -0.6918  0.1135 -0.1690
   86MOL    O4220612   2.490   4.208   0.820 -0.2818  0.1351 -0.1207
   86MOL    O4320613   2.647   4.046   0.838 -0.1195  0.6996  0.6555
   86MOL    H4420614   2.428   4.264   0.598 -0.2810 -0.4082  1.9738
   86MOL    H4520615   2.331   4.115   0.577 -1.0363  0.9879  0.2417
   86MOL    H4620616   2.757   4.077   0.608 -2.2242 -1.9731  0.6239
   86MOL    H4720617   2.688   4.222   0.558  2.2382 -1.1818 -0.3034
   86MOL    H4820618   2.683   4.083   0.446  2.6102 -1.2558 -0.5672
   86MOL    H4920619   2.630   4.060   0.930 -0.9179 -2.0222  0.9848
   86MOL    C5020620   2.514   3.926   0.608  0.8344  0.3676 -0.2518
   86MOL    C5120621   2.387   3.848   0.667  0.2266  0.5049 -0.0253
   86MOL    C5220622   2.345   3.894   0.815  0.4763  0.0709  0.6956
   86MOL    C5320623   2.263   3.864   0.578  0.3996 -0.0434  0.3600
   86MOL    O5420624   2.153   3.914   0.614 -0.0985  0.2021  0.1930
   86MOL    O5520625   2.296   3.827   0.456  0.5101  0.9643  0.2266
   86MOL    H5620626   2.531   3.895   0.504 -1.8255 -1.1655 -0.2860
   86MOL    H5720627   2.589   3.870   0.664  1.2016  0.3551 -0.7544
   86MOL    H5820628   2.264   3.835   0.858  0.8171 -0.8156  0.1503
   86MOL    H5920629   2.309   3.997   0.816  1.1260  0.3447 -1.1560
   86MOL    H6020630   2.429   3.867   0.879  0.4949 -1.0936  0.1977
   86MOL    H6120631   2.222   3.841   0.398  0.6507 -0.8494 -0.4018
   86MOL    C6220632   2.414   3.697   0.679 -0.4869  0.5103 -0.5846
   86MOL    C6320633   2.436   3.583   0.565 -0.0968  0.2750  0.1165
   86MOL    C6420634   2.299   3.534   0.510 -0.0546 -0.8105  0.3655
   86MOL    C6520635   2.521   3.639   0.441 -1.1617  0.4618 -0.3291
   86MOL    O6620636   2.483   3.637   0.321  0.2932  1.2534 -0.3273
   86MOL    O6720637   2.647   3.676   0.474  0.2514  0.2556 -0.4086
   86MOL    H6820638   2.504   3.685   0.738 -1.4779  0.8366  1.0169
   86MOL    H6920639   2.345   3.665   0.757 -0.1345  1.7129  0.2416
   86MOL    H7020640   2.265   3.601   0.431 -1.1570  1.2695  2.5388
   86MOL    H7120641   2.212   3.539   0.576  0.6000  1.6974  1.1381
   86MOL    H7220642   2.317   3.437   0.465  0.0253 -0.4570 -0.3626
   86MOL    H7320643   2.699   3.699   0.399  1.7749 -2.5677 -0.2660
   86MOL    C7420644   2.519   3.468   0.629  0.0867  0.4678  0.5454
   86MOL    C7520645   2.476   3.384   0.758 -0.0916 -0.4918 -0.0467
   86MOL    C7620646   2.323   3.353   0.746 -0.3241 -0.3925 -0.3697
   86MOL    C7720647   2.548   3.244   0.758  0.3545 -0.1314 -0.0107
   86MOL    O7820648   2.488   3.140   0.766  0.0428  0.1121  0.2213
   86MOL    O7920649   2.687   3.245   0.737  0.5703  0.3298  0.4802
   86MOL    H8020650   2.536   3.388   0.557  1.3525 -0.2867  1.6730
   86MOL    H8120651   2.621   3.505   0.642 -0.1479  0.4951  2.4512
   86MOL    H8220652   2.289   3.313   0.842  1.0748 -1.1905 -0.1819
   86MOL    H8320653   2.296   3.298   0.656 -1.3950 -0.7733  0.1754
   86MOL    H8420654   2.277   3.451   0.745 -0.9610 -0.6460  2.0847
   86MOL    H8520655   2.719   3.157   0.726 -0.1862 -0.1102  1.7215
   86MOL    C8620656   2.490   3.454   0.900 -0.3075 -0.7647  0.4711
   86MOL    C8720657   2.628   3.496   0.976  0.5404  0.4700 -0.3250
   86MOL    C8820658   2.727   3.556   0.878 -0.3886 -0.5099  0.0511
   86MOL    C8920659   2.587   3.605   1.085 -0.6441  0.3102 -0.5667
   86MOL    O9020660   2.649   3.705   1.115  0.2417 -0.0305 -0.0306
   86MOL    O9120661   2.484   3.557   1.153 -0.1606 -0.9080 -0.0762
   86MOL    H9220662   2.432   3.546   0.890  1.4195  0.1049 -2.0231
   86MOL    H9320663   2.427   3.403   0.973 -1.4484 -0.1567 -0.0746
   86MOL    H9420664   2.750   3.484   0.799 -1.9133 -0.5005 -0.4172
   86MOL    H9520665   2.828   3.584   0.908 -0.7517 -0.3030  1.0834
   86MOL    H9620666   2.698   3.655   0.842  1.7366 -0.2424 -1.0223
   86MOL    H9720667   2.462   3.618   1.222 -2.0342  0.8145 -2.1209
   86MOL    C9820668   2.689   3.370   1.054  0.4312  0.2698  0.6013
   86MOL    C9920669   2.834   3.342   1.106 -0.7695 -0.5008  0.0882
   86MOL   C10020670   2.931   3.303   0.989  0.2716 -0.1609 -0.5647
   86MOL   C10120671   2.884   3.463   1.177 -0.1183  0.2571  0.1702
   86MOL   O10220672   2.988   3.525   1.142 -0.4991  0.1992  0.2950
   86MOL   O10320673   2.802   3.495   1.286 -0.0115 -0.0833  0.5449
   86MOL   H10420674   2.619   3.361   1.138 -2.6175 -0.6538 -1.9084
   86MOL   H10520675   2.664   3.289   0.984  0.2967 -0.1835  1.1696
   86MOL   H10620676   2.894   3.222   0.925  4.7651 -1.8028 -1.2678
   86MOL   H10720677   3.038   3.287   1.005  0.2850  0.3366 -0.1309
   86MOL   H10820678   2.927   3.384   0.917  1.4398 -0.1262 -0.5966
   86MOL   H10920679   2.828   3.583   1.311 -0.9120 -0.3357  2.4045
   86MOL   C11020680   2.822   3.228   1.216  0.2006  0.1647  0.4640
   86MOL   C11120681   2.837   3.071   1.181 -0.0404 -0.3108  0.2511
   86MOL   C11220682   2.776   2.988   1.305  0.3452 -0.3794 -0.7752
   86MOL   C11320683   2.748   3.022   1.061  0.0395 -0.0028  0.0052
   86MOL   O11420684   2.793   2.974   0.955  0.2508  0.0672 -0.3071
   86MOL   O11520685   2.615   3.035   1.085  0.3222 -0.7514  0.6587
   86MOL   H11620686   2.893   3.257   1.294 -0.0114  1.3113  0.2355
   86MOL   H11720687   2.728   3.231   1.272 -2.4132 -1.0613 -3.6796
   86MOL   H11820688   2.826   3.006   1.401  0.9663 -0.6952 -1.0366
   86MOL   H11920689   2.782   2.879   1.298  0.9212 -0.4853  1.0706
   86MOL   H12020690   2.670   3.004   1.324  1.0192  1.9441  1.3708
   86MOL   H12120691   2.577   2.981   1.017  0.7671 -0.5180  0.2246
   86MOL   C12220692   2.982   3.018   1.152  0.1434 -0.4731 -0.3691
   86MOL   C12320693   3.097   3.002   1.254  0.0381 -0.1964 -0.4353
   86MOL   C12420694   3.078   2.904   1.370 -0.0979  0.0265 -0.6900
   86MOL   C12520695   3.221   2.950   1.163  0.2364  0.2310 -0.7330
   86MOL   O12620696   3.281   2.840   1.173 -0.0883  1.1348 -0.1411
   86MOL   O12720697   3.259   3.040   1.071 -0.0775  0.5318  0.4537
   86MOL   H12820698   2.989   2.916   1.113  1.0012 -0.6196  0.1515
   86MOL   H12920699   3.025   3.089   1.081 -0.1176  1.3798  1.2839
   86MOL   H13020700   3.169   2.859   1.407 -0.8606 -1.1827 -0.2690
   86MOL   H13120701   3.020   2.819   1.333  0.4237 -0.7644  0.2920
   86MOL   H13220702   3.030   2.953   1.455  1.0378  0.7499 -0.4646
   86MOL   H13320703   3.331   3.007   1.020 -0.2550  0.1472  0.4452
   86MOL   C13420704   3.139   3.141   1.314 -0.1009 -0.5682  0.1069
   86MOL   C13520705   3.259   3.180   1.406 -0.6819  0.4577 -0.4677
   86MOL   C13620706   3.394   3.114   1.364 -0.0444 -0.0142 -0.4051
   86MOL   C13720707   3.289   3.332   1.390 -0.5054  0.3036 -0.4566
   86MOL   O13820708   3.402   3.380   1.425 -0.3543 -0.0887 -0.5311
   86MOL   O13920709   3.188   3.415   1.361  0.3688  0.0176  0.8264
   86MOL   H14020710   3.149   3.209   1.230  2.5681 -0.1768  0.6866
   86MOL   H14120711   3.052   3.168   1.374 -0.8557 -1.4557 -0.5623
   86MOL   H14220712   3.469   3.153   1.433 -1.4664  0.3419  0.9606
   86MOL   H14320713   3.418   3.140   1.260 -0.3238 -0.6204 -0.6197
   86MOL   H14420714   3.390   3.006   1.373 -0.8534  0.0105 -0.4239
   86MOL   H14520715   3.226   3.499   1.379  0.9935  0.2456 -1.3672
   86MOL   C14620716   3.231   3.143   1.559 -0.4342  0.2370  0.2747
   86MOL   C14720717   3.150   3.222   1.664 -0.0118 -0.5720 -0.3305
   86MOL   C14820718   3.163   3.120   1.779 -0.7184  0.2809 -0.2097
   86MOL   C14920719   3.220   3.356   1.710  0.9387 -0.0503  0.2184
   86MOL   O15020720   3.206   3.466   1.654 -0.3472  0.0486  0.1502
   86MOL   O15120721   3.294   3.336   1.826 -0.4001  0.3611  1.0746
   86MOL   H15220722   3.207   3.037   1.556  0.2725  0.1131 -2.6400
   86MOL   H15320723   3.331   3.116   1.595 -0.1821 -2.5274 -2.3134
   86MOL   H15420724   3.097   3.038   1.753 -0.9540 -0.1592  1.6926
   86MOL   H15520725   3.124   3.153   1.875  1.6212  1.3192  0.4182
   86MOL   H15620726   3.266   3.088   1.795 -1.2580 -0.5502  1.7090
   86MOL   H15720727   3.341   3.411   1.859  0.7323  1.8577 -3.4751
   86MOL   C15820728   3.003   3.249   1.609  0.7734  0.0087  0.1909
   86MOL   C15920729   2.878   3.301   1.695  0.4639  0.5387 -0.9319
   86MOL   C16020730   2.876   3.226   1.831  0.5304 -0.4252 -0.1600
   86MOL   C16120731   2.907   3.452   1.729  0.9204 -0.6740  0.2771
   86MOL   O16220732   2.894   3.495   1.842  0.5064  0.1979  0.2767
   86MOL   O16320733   2.917   3.530   1.620  0.2881  0.1894  0.0072
   86MOL   H16420734   3.004   3.310   1.518  2.6735 -0.7323 -0.3132
   86MOL   H16520735   2.969   3.150   1.580  1.2048  0.0697 -0.5393
   86MOL   H16620736   2.962   3.260   1.890  1.0800 -2.2453  0.1222
   86MOL   H16720737   2.880   3.118   1.819 -0.4445 -0.4666 -0.1171
   86MOL   H16820738   2.791   3.251   1.893 -0.2194 -0.1867 -1.2625
   86MOL   H16920739   2.931   3.621   1.642  0.3930  0.0611  0.4946
   86MOL   C17020740   2.752   3.264   1.605  0.6747  1.0450  0.2724
   86MOL   C17120741   2.597   3.294   1.646 -0.0809  0.0636  0.1210
   86MOL   C17220742   2.544   3.175   1.736 -0.7874 -0.3741 -0.1415
   86MOL   C17320743   2.585   3.425   1.723  0.4216 -0.6684  0.6632
   86MOL   O17420744   2.582   3.539   1.675  0.0847  0.3517 -0.2598
   86MOL   O17520745   2.583   3.410   1.859 -0.4182  0.0097  0.4152
   86MOL   H17620746   2.769   3.292   1.501 -1.3615  0.7092 -0.1795
   86MOL   H17720747   2.763   3.158   1.582 -2.2982  1.2601 -2.5576
   86MOL   H17820748   2.606   3.169   1.825 -3.0866 -2.7985  1.3604
   86MOL   H17920749   2.539   3.076   1.691 -0.2551 -0.6015  0.3131
   86MOL   H18020750   2.451   3.184   1.792  0.7718 -1.6150  2.6903
   86MOL   H18120751   2.584   3.491   1.907  2.8060 -0.0159  0.4946
   86MOL   C18220752   2.523   3.300   1.506 -0.5974 -0.3338  0.6117
   86MOL   C18320753   2.374   3.281   1.476  0.0621 -0.3375 -0.4579
   86MOL   C18420754   2.360   3.293   1.325  0.1146 -0.5347  0.9127
   86MOL   C18520755   2.338   3.139   1.509 -0.5462 -0.4766 -0.4563
   86MOL   O18620756   2.236   3.096   1.566  0.4638  0.2559  0.3420
   86MOL   O18720757   2.435   3.057   1.478 -0.1614  0.4809  0.6282
   86MOL   H18820758   2.551   3.397   1.465  1.7234 -2.1972 -2.4361
   86MOL   H18920759   2.582   3.243   1.435 -0.3088  0.1787  0.4372
   86MOL   H19020760   2.265   3.249   1.292  1.3276 -0.7667 -2.4554
   86MOL   H19120761   2.434   3.239   1.266 -1.3079 -0.5507 -0.9069
   86MOL   H19220762   2.354   3.399   1.304  1.8928 -0.0303  2.8078
   86MOL   H19320763   2.417   2.966   1.498  2.5336 -0.2157  0.0705
   86MOL   C19420764   2.287   3.378   1.567 -0.0685  0.7562 -0.0481
   86MOL   C19520765   2.135   3.421   1.537  0.3141 -0.9555  0.6377
   86MOL   C19620766   2.062   3.334   1.430 -1.4149  0.1960 -0.4182
   86MOL   C19720767   2.049   3.390   1.664 -0.0850 -0.8666  0.0467
   86MOL   O19820768   1.974   3.466   1.718 -0.0543  0.0580  0.1332
   86MOL   O19920769   2.076   3.266   1.708 -0.3032  0.4371  0.5179
   86MOL   H20020770   2.308   3.340   1.667  0.4716  0.2489 -0.3485
   86MOL   H20120771   2.350   3.465   1.553  0.8461  0.0318 -0.4994
   86MOL   H20220772   2.065   3.227   1.451 -2.3783  0.1505 -0.4843
   86MOL   H20320773   2.106   3.350   1.331 -1.5478 -0.0661 -0.5217
   86MOL   H20420774   1.957   3.363   1.428 -0.9437  2.0718  0.7563
   86MOL   H20520775   2.135   3.216   1.654 -0.5916 -0.9834  1.4892
   86MOL   C20620776   2.128   3.575   1.484  0.6203  0.0077 -0.5825
   86MOL   C20720777   2.204   3.708   1.546 -0.1218  0.0573  0.3384
   86MOL   C20820778   2.199   3.694   1.699 -0.6495 -0.2424  0.6503
   86MOL   C20920779   2.346   3.710   1.487 -0.4734  0.3210 -0.2928
   86MOL   O21020780   2.380   3.654   1.385 -0.0548  0.4131  0.0234
   86MOL   O21120781   2.420   3.785   1.570 -0.0272 -0.1610 -0.1573
   86MOL   H21220782   2.147   3.573   1.377  2.5722 -1.3326 -0.2270
   86MOL   H21320783   2.024   3.607   1.489  0.0362 -2.0654  2.5698
   86MOL   H21420784   2.248   3.778   1.749 -0.1394  0.9297 -1.7190
   86MOL   H21520785   2.247   3.602   1.733  0.8246  0.0073 -0.6959
   86MOL   H21620786   2.098   3.684   1.738 -0.2979 -0.0509  1.6312
   86MOL   H21720787   2.507   3.801   1.539  0.2265 -2.8470 -0.9874
   86MOL   C21820788   2.123   3.840   1.515 -0.4349  0.6723  0.3671
   86MOL   C21920789   2.118   3.908   1.368 -0.0571 -0.1019  0.1142
   86MOL   C22020790   2.072   3.816   1.261 -0.3529  0.3805  0.1743
   86MOL   C22120791   2.022   4.024   1.402  0.0402 -0.0337 -0.7267
   86MOL   O22220792   2.044   4.118   1.480 -0.1815 -0.6346  0.3029
   86MOL   O22320793   1.909   4.012   1.337  0.3725  0.4029 -0.0104
   86MOL   H22420794   2.023   3.816   1.549  0.9084 -0.8849  3.4146
   86MOL   H22520795   2.159   3.914   1.587  0.0990  0.9996 -0.2329
   86MOL   H22620796   2.047   3.876   1.174 -0.7481  1.0385  0.7361
   86MOL   H22720797   1.977   3.777   1.297 -0.6068  2.6562  2.0966
   86MOL   H22820798   2.141   3.733   1.247 -0.7282  0.5232 -2.7517
   86MOL   H22920799   1.855   4.086   1.362 -1.7784 -1.6745  1.7098
   86MOL   C23020800   2.248   3.982   1.323  0.4002 -0.3243  0.5161
   86MOL   C23120801   2.263   4.062   1.183 -0.0856  0.0018 -0.0074
   86MOL   C23220802   2.174   4.184   1.162  0.2691  0.0937  0.3111
   86MOL   C23320803   2.406   4.097   1.158 -0.2256 -0.7588  0.2406
   86MOL   O23420804   2.493   4.032   1.098  0.5625  0.3280 -0.3029
   86MOL   O23520805   2.429   4.214   1.221 -0.3613  0.1685 -0.1259
   86MOL   H23620806   2.304   4.033   1.401  2.6638 -2.1600  0.1766
   86MOL   H23720807   2.319   3.900   1.308  1.7463  0.6027  1.7864
   86MOL   H23820808   2.073   4.157   1.130 -0.2001 -0.4182  2.1582
   86MOL   H23920809   2.226   4.249   1.092  2.7435 -1.2862  0.8082
   86MOL   H24020810   2.158   4.227   1.261  3.5756 -0.2389  1.0465
   86MOL   H24120811   2.356   4.233   1.277  0.0064  0.0122  0.4063
   86MOL   H24220812   2.235   3.995   1.102 -1.4801  0.6004 -0.0323
   87MOL     C120813   1.916   3.772   3.026 -0.4389 -0.0594 -0.0951
   87MOL     C220814   1.900   3.920   3.013  0.1946  0.6700  0.8648
   87MOL     C320815   1.884   3.947   2.857 -0.2251  0.4187 -0.2886
   87MOL     C420816   1.766   3.961   3.079  0.8072 -0.5053  0.3969
   87MOL     O520817   1.708   3.899   3.168 -0.1160  0.2986  0.1212
   87MOL     O620818   1.706   4.074   3.027  0.5947 -0.0369 -0.1620
   87MOL     H720819   1.838   3.716   2.974 -1.0441 -0.1772  0.9216
   87MOL     H820820   1.931   3.722   3.122 -1.1398  1.1291  0.6411
   87MOL     H920821   1.880   4.053   2.832 -0.2139  0.4253 -0.2629
   87MOL    H1020822   1.792   3.902   2.820 -0.3047  0.1942  0.1743
   87MOL    H1120823   1.969   3.907   2.801 -0.5603  0.2844 -0.6990
   87MOL    H1220824   1.616   4.087   3.052  0.4803 -1.7530  0.3429
   87MOL    H1320825   2.015   3.763   2.982  0.4046  1.0979  1.5246
   87MOL    C1420826   2.020   4.020   3.062  0.4179  0.8891  0.7677
   87MOL    C1520827   2.110   3.994   3.188 -0.3547  0.3618 -0.8277
   87MOL    C1620828   2.012   3.967   3.305 -0.3338  0.0349  0.0819
   87MOL    C1720829   2.196   3.868   3.153  0.5183 -1.1308 -0.3348
   87MOL    O1820830   2.198   3.771   3.232  0.4431  0.0789 -0.4891
   87MOL    O1920831   2.266   3.866   3.034 -0.4666  0.4837 -0.3663
   87MOL    H2020832   2.088   4.032   2.977  1.6038 -0.3422  1.5244
   87MOL    H2120833   1.966   4.113   3.080 -1.0604 -0.3881  3.3362
   87MOL    H2220834   1.931   4.039   3.302 -0.9474 -0.6531  0.0505
   87MOL    H2320835   2.064   3.970   3.401 -0.3139  0.6958  0.0496
   87MOL    H2420836   1.963   3.870   3.300  0.0960 -0.2566  1.3060
   87MOL    H2520837   2.306   3.781   3.025  0.0259  0.5873  0.7381
   87MOL    C2620838   2.181   4.128   3.235  0.5881  0.0535  0.0311
   87MOL    C2720839   2.322   4.145   3.304 -0.1128  0.3342  0.3268
   87MOL    C2820840   2.322   4.065   3.437  0.0058 -0.0337 -0.2033
   87MOL    C2920841   2.428   4.085   3.209 -0.4976  0.5333  0.4949
   87MOL    O3020842   2.517   4.017   3.252 -0.2104 -0.1962 -0.3983
   87MOL    O3120843   2.419   4.129   3.082  0.0551 -0.6432  0.0872
   87MOL    H3220844   2.187   4.190   3.145  1.4001 -0.1832 -0.0887
   87MOL    H3320845   2.106   4.184   3.290  0.7372  1.9005 -1.5788
   87MOL    H3420846   2.421   4.076   3.481  0.1695  0.9256 -0.7850
   87MOL    H3520847   2.313   3.957   3.431 -1.5808  0.1365 -1.1255
   87MOL    H3620848   2.241   4.091   3.505  1.2748 -0.0295  1.3306
   87MOL    H3720849   2.486   4.090   3.028 -0.2956  0.0475 -0.8757
   87MOL    C3820850   2.366   4.301   3.309  0.6747  0.5222 -0.0470
   87MOL    C3920851   2.321   4.397   3.427  0.2973 -0.1604 -0.3823
   87MOL    C4020852   2.167   4.398   3.440 -0.1381 -0.0675  0.4617
   87MOL    C4120853   2.393   4.344   3.557 -0.4581 -0.6117  0.4482
   87MOL    O4220854   2.327   4.302   3.651  0.2780  0.6888  0.3259
   87MOL    O4320855   2.526   4.333   3.554 -0.6299 -0.1523  0.1812
   87MOL    H4420856   2.474   4.306   3.300  0.6775 -1.2940 -1.1702
   87MOL    H4520857   2.328   4.347   3.218  3.5414 -1.8122 -2.4673
   87MOL    H4620858   2.102   4.434   3.360 -2.1333  1.1327  2.5524
   87MOL    H4720859   2.127   4.444   3.531 -0.8824 -0.3442  0.2779
   87MOL    H4820860   2.138   4.295   3.462  0.4259 -0.5820 -1.1260
   87MOL    H4920861   2.556   4.290   3.633  0.1831 -1.8119 -0.9951
   87MOL    C5020862   2.367   4.542   3.382 -0.1517  0.4132  0.1587
   87MOL    C5120863   2.385   4.665   3.481 -0.0824 -0.2039 -0.0932
   87MOL    C5220864   2.249   4.678   3.552  0.2265 -0.0119 -0.3292
   87MOL    C5320865   2.502   4.649   3.577  0.0255 -0.3444  1.1506
   87MOL    O5420866   2.623   4.628   3.549  0.1195 -0.2088 -0.1066
   87MOL    O5520867   2.469   4.660   3.705 -0.1949 -0.4781 -0.5644
   87MOL    H5620868   2.468   4.529   3.344 -0.4387  2.7733 -1.4944
   87MOL    H5720869   2.300   4.574   3.302 -0.3129  1.3089  0.6469
   87MOL    H5820870   2.228   4.588   3.611  0.3327  0.3555  0.2712
   87MOL    H5920871   2.160   4.691   3.490 -0.7013 -0.5596  0.8621
   87MOL    H6020872   2.251   4.767   3.615  2.8517  0.8875 -1.6085
   87MOL    H6120873   2.538   4.656   3.769  1.5880  4.5080 -1.9412
   87MOL    C6220874   2.426   4.793   3.395  0.3056  0.4462  0.9070
   87MOL    C6320875   2.384   4.943   3.414 -0.3148 -0.8108 -0.1831
   87MOL    C6420876   2.226   4.963   3.388  0.5738 -0.8611 -0.2224
   87MOL    C6520877   2.426   4.983   3.556  0.3320  0.0060  0.9966
   87MOL    O6620878   2.537   4.974   3.603 -0.8050  0.1695  0.2915
   87MOL    O6720879   2.320   5.024   3.632  0.0883 -0.7350 -0.0838
   87MOL    H6820880   2.534   4.805   3.402  0.4449 -1.0188  1.3536
   87MOL    H6920881   2.423   4.756   3.292  1.5104  0.2614  0.9248
   87MOL    H7020882   2.204   4.914   3.293 -1.0299 -1.0280  0.2253
   87MOL    H7120883   2.197   5.068   3.381 -2.4733 -1.4695  2.1187
   87MOL    H7220884   2.161   4.919   3.464 -0.8918 -0.8920 -1.4666
   87MOL    H7320885   2.360   5.079   3.697  0.1959 -0.4469 -0.3950
   87MOL    C7420886   2.486   5.033   3.324  0.0005  0.5395 -0.6798
   87MOL    C7520887   2.477   5.061   3.173  0.1666 -0.6311 -0.7406
   87MOL    C7620888   2.474   4.925   3.101  0.0774  0.1356 -0.0278
   87MOL    C7720889   2.354   5.150   3.147 -0.4300  0.1042  0.1106
   87MOL    O7820890   2.260   5.120   3.071  0.1153  0.2161  0.1697
   87MOL    O7920891   2.374   5.272   3.209  0.1026  0.1797 -0.6181
   87MOL    H8020892   2.489   5.134   3.363  0.3884  0.2483  0.0535
   87MOL    H8120893   2.584   4.992   3.345 -0.0680 -1.1119 -3.2685
   87MOL    H8220894   2.370   4.893   3.102  0.4971 -1.2994 -0.8747
   87MOL    H8320895   2.541   4.846   3.135 -2.6721 -1.1259  2.6428
   87MOL    H8420896   2.511   4.929   2.999 -0.3330 -0.7848 -0.2165
   87MOL    H8520897   2.298   5.329   3.207 -1.2455 -1.4524  2.1348
   87MOL    C8620898   2.606   5.133   3.124 -0.3804 -0.5696 -0.5405
   87MOL    C8720899   2.612   5.213   2.982  0.5972 -0.2505  0.4737
   87MOL    C8820900   2.565   5.360   2.993  0.2027  0.6904 -0.2307
   87MOL    C8920901   2.772   5.232   2.962 -0.1680  0.6628  0.6167
   87MOL    O9020902   2.841   5.335   2.983  0.0342  0.4629  0.2378
   87MOL    O9120903   2.833   5.118   2.918 -0.0482  0.1978  0.4691
   87MOL    H9220904   2.652   5.198   3.199 -0.4873 -0.5337 -0.5068
   87MOL    H9320905   2.676   5.050   3.115  0.0992 -0.1328 -0.8949
   87MOL    H9420906   2.588   5.400   3.092 -2.3530  1.2568  0.1604
   87MOL    H9520907   2.458   5.376   2.982  0.0870  1.9113  2.1491
   87MOL    H9620908   2.619   5.415   2.916  2.5108 -0.2328  0.6770
   87MOL    H9720909   2.922   5.141   2.895 -0.9052  0.1985 -3.1905
   87MOL    C9820910   2.550   5.137   2.861  0.1050 -0.3523 -0.1016
   87MOL    C9920911   2.498   5.197   2.718 -0.5469 -0.4372 -0.0063
   87MOL   C10020912   2.390   5.302   2.756  0.0612  0.0278  0.0218
   87MOL   C10120913   2.612   5.269   2.638 -0.4992  0.0738  0.1070
   87MOL   O10220914   2.730   5.254   2.667  0.3881 -0.2459 -0.7067
   87MOL   O10320915   2.567   5.337   2.528  0.2580  0.6349 -0.2776
   87MOL   H10420916   2.600   5.042   2.841 -1.4341 -1.1589 -0.1853
   87MOL   H10520917   2.453   5.101   2.897 -0.2926 -0.6897 -1.4980
   87MOL   H10620918   2.433   5.402   2.759  0.2852 -0.1022  1.5542
   87MOL   H10720919   2.319   5.283   2.837 -0.3281  1.4599  0.0330
   87MOL   H10820920   2.318   5.314   2.675 -2.1671  1.5023  2.1220
   87MOL   H10920921   2.630   5.360   2.462 -0.6843  0.2342 -1.3216
   87MOL   C11020922   2.414   5.097   2.624  0.0225  0.5332  0.5418
   87MOL   C11120923   2.478   4.964   2.560 -0.8289  0.3410  0.1565
   87MOL   C11220924   2.598   5.006   2.470  0.0681  0.5443 -0.3086
   87MOL   C11320925   2.524   4.864   2.672  0.5259  0.7728  0.2754
   87MOL   O11420926   2.626   4.794   2.673  0.1579  0.7001  0.9481
   87MOL   O11520927   2.427   4.855   2.761  0.1004  0.0373  0.3043
   87MOL   H11620928   2.330   5.061   2.684  1.4176 -0.1309  2.1751
   87MOL   H11720929   2.385   5.152   2.535  1.0419  0.1131 -0.0619
   87MOL   H11820930   2.683   5.028   2.536 -0.0016  0.1034 -0.0703
   87MOL   H11920931   2.571   5.098   2.419 -0.0090 -0.0961 -1.4207
   87MOL   H12020932   2.643   4.920   2.420  0.8121  1.1671 -0.7275
   87MOL   H12120933   2.465   4.800   2.828 -0.4573  1.8889  2.2129
   87MOL   C12220934   2.367   4.893   2.476  0.3441  0.2477 -0.2225
   87MOL   C12320935   2.390   4.786   2.370 -0.9197 -0.1094  0.6168
   87MOL   C12420936   2.432   4.848   2.238  0.0027  0.2445  0.1486
   87MOL   C12520937   2.494   4.677   2.418 -0.3966  0.4192  0.5451
   87MOL   O12620938   2.605   4.660   2.372  0.1119 -0.7368 -0.0598
   87MOL   O12720939   2.452   4.591   2.517  0.0015  0.1528  0.4237
   87MOL   H12820940   2.287   4.858   2.541 -0.2201 -2.3539 -2.1856
   87MOL   H12920941   2.317   4.977   2.428 -1.2532 -1.1613 -1.0621
   87MOL   H13020942   2.457   4.779   2.158 -0.7352  1.1690 -0.9089
   87MOL   H13120943   2.521   4.905   2.264  0.6230 -0.2710 -0.8024
   87MOL   H13220944   2.364   4.922   2.195  1.6221  1.2664 -0.7352
   87MOL   H13320945   2.516   4.522   2.525 -0.6505 -0.5044 -0.0817
   87MOL   C13420946   2.249   4.729   2.340  0.9413  0.2315  0.0353
   87MOL   C13520947   2.211   4.635   2.216 -0.2974 -0.3243 -0.4823
   87MOL   C13620948   2.323   4.529   2.208 -0.0316  0.0217 -0.6947
   87MOL   C13720949   2.074   4.573   2.250  0.2208 -0.3313 -0.2008
   87MOL   O13820950   1.973   4.633   2.290 -0.8188  0.4663 -0.2738
   87MOL   O13920951   2.066   4.440   2.232  0.1627 -0.6529 -0.3047
   87MOL   H14020952   2.209   4.689   2.433 -0.8783  2.2126  0.1452
   87MOL   H14120953   2.190   4.820   2.323 -0.8730 -1.2882 -2.1872
   87MOL   H14220954   2.298   4.444   2.144 -2.2922 -0.5789  0.9032
   87MOL   H14320955   2.350   4.474   2.299  0.1012 -0.0772 -0.7932
   87MOL   H14420956   2.415   4.567   2.165  0.2324 -0.2711 -0.3925
   87MOL   H14520957   1.980   4.403   2.242  0.5300 -1.3260  0.5162
   87MOL   C14620958   2.181   4.713   2.082 -0.2129 -0.5566 -0.2857
   87MOL   C14720959   2.151   4.652   1.941 -0.3503  0.1638  0.0438
   87MOL   C14820960   2.007   4.586   1.945  0.4503 -0.5351 -0.0692
   87MOL   C14920961   2.147   4.766   1.835  0.0899  0.1655 -1.0915
   87MOL   O15020962   2.193   4.875   1.854 -0.5139 -0.3739  0.3653
   87MOL   O15120963   2.068   4.746   1.727 -0.0618 -0.5919 -0.2071
   87MOL   H15220964   2.105   4.784   2.112  0.3772  0.5439 -1.3603
   87MOL   H15320965   2.272   4.771   2.065 -0.1247 -1.3075 -2.6645
   87MOL   H15420966   2.014   4.478   1.953 -1.6357 -0.7812 -1.4255
   87MOL   H15520967   1.947   4.599   1.855 -0.5674  1.2343  0.8324
   87MOL   H15620968   1.946   4.637   2.020 -0.9319  0.4707 -1.8256
   87MOL   H15720969   2.087   4.819   1.670  1.1183 -0.4842  0.3173
   87MOL   C15820970   2.261   4.547   1.902  0.4305  0.5494  0.3641
   87MOL   C15920971   2.290   4.498   1.755 -0.5058 -0.1511 -0.4469
   87MOL   C16020972   2.166   4.439   1.692  0.6287  0.3372 -0.2325
   87MOL   C16120973   2.352   4.616   1.669  1.7864 -0.2370  0.2373
   87MOL   O16220974   2.341   4.635   1.547  0.0602  0.7371 -0.7607
   87MOL   O16320975   2.441   4.690   1.738  0.3969  0.4354 -0.3853
   87MOL   H16420976   2.352   4.588   1.946 -0.5797  2.2779  0.9164
   87MOL   H16520977   2.227   4.458   1.955 -0.1920 -0.0035 -0.9468
   87MOL   H16620978   2.070   4.488   1.705  0.7513  0.6391 -0.4570
   87MOL   H16720979   2.156   4.344   1.745  1.6738  0.6796  0.5915
   87MOL   H16820980   2.188   4.419   1.587  1.0605 -1.8898  0.2621
   87MOL   H16920981   2.481   4.740   1.668  1.3997  0.5302  0.2402
   87MOL   C17020982   2.407   4.393   1.768 -1.0207 -0.9734  0.1937
   87MOL   C17120983   2.450   4.289   1.662 -0.5076  0.0605 -0.2084
   87MOL   C17220984   2.336   4.186   1.663  0.3414  0.4293  0.0037
   87MOL   C17320985   2.453   4.356   1.518  0.1273  0.5094  0.0401
   87MOL   O17420986   2.357   4.343   1.434  0.7084 -0.1802  0.3072
   87MOL   O17520987   2.562   4.435   1.496  0.2574 -0.1276 -0.8437
   87MOL   H17620988   2.490   4.456   1.802 -0.8100 -0.3443 -1.4269
   87MOL   H17720989   2.398   4.341   1.864 -1.4585 -2.2419 -0.5225
   87MOL   H17820990   2.368   4.088   1.628 -0.4990  0.2362 -0.2337
   87MOL   H17920991   2.260   4.201   1.587 -1.0516 -1.7397  0.9368
   87MOL   H18020992   2.295   4.160   1.761  0.9951 -3.2194 -0.6208
   87MOL   H18120993   2.574   4.457   1.405 -0.2475  0.3873 -0.7869
   87MOL   C18220994   2.586   4.232   1.709  0.3824  0.7609 -0.6999
   87MOL   C18320995   2.663   4.102   1.650  0.2372 -0.6462  0.6942
   87MOL   C18420996   2.613   3.981   1.728 -0.0121  0.1460 -0.8805
   87MOL   C18520997   2.629   4.079   1.503  0.0431 -0.0548  0.0280
   87MOL   O18620998   2.582   3.980   1.461 -0.2215 -0.1079  0.0629
   87MOL   O18720999   2.679   4.181   1.431 -0.5319  0.4611  0.2278
   87MOL   H18821000   2.659   4.310   1.686  1.8597 -0.2712  0.3488
   87MOL   H18921001   2.581   4.218   1.817  3.5267  0.5358 -0.5283
   87MOL   H19021002   2.644   3.989   1.833 -0.0600  2.3460 -1.0173
   87MOL   H19121003   2.651   3.885   1.694 -2.3819  0.0708 -3.4748
   87MOL   H19221004   2.506   3.964   1.740  0.1367 -0.0599  0.2792
   87MOL   H19321005   2.659   4.156   1.343  2.6494 -0.2294 -0.3732
   87MOL   C19421006   2.821   4.123   1.684 -0.1280  0.3200 -0.0851
   87MOL   C19521007   2.945   4.027   1.646  0.0098 -0.4531 -0.3151
   87MOL   C19621008   3.072   4.108   1.681 -0.1935 -0.1604 -0.2037
   87MOL   C19721009   2.950   3.893   1.724  0.9380 -1.7937  0.5118
   87MOL   O19821010   2.973   3.785   1.675 -0.2161 -0.2885  0.2885
   87MOL   O19921011   2.909   3.912   1.850 -0.0858 -0.3307 -0.2262
   87MOL   H20021012   2.856   4.216   1.640  1.0001  0.3892  0.9391
   87MOL   H20121013   2.827   4.141   1.791 -1.7028 -0.0613  0.0767
   87MOL   H20221014   3.160   4.048   1.703 -0.4277 -0.2702  0.4412
   87MOL   H20321015   3.070   4.156   1.778  0.4747 -0.9299  0.2039
   87MOL   H20421016   3.096   4.176   1.599  1.6746 -0.5199  0.0184
   87MOL   H20521017   2.903   3.833   1.902 -0.6957  1.1876  2.0778
   87MOL   C20621018   2.944   4.001   1.497 -0.0466 -0.0373 -0.2734
   87MOL   C20721019   3.052   3.915   1.414 -0.8004 -0.1102 -0.5352
   87MOL   C20821020   3.193   3.897   1.484 -0.6278 -0.1898 -0.7680
   87MOL   C20921021   3.008   3.772   1.376 -0.4638 -0.0436 -0.5943
   87MOL   O21021022   2.895   3.727   1.393  0.2024  0.4179 -0.4393
   87MOL   O21121023   3.105   3.702   1.320 -0.2231  0.1380  0.5750
   87MOL   H21221024   2.850   3.948   1.483 -0.9013  1.7014 -1.3733
   87MOL   H21321025   2.938   4.097   1.445  1.4762  1.0800  1.5797
   87MOL   H21421026   3.192   3.851   1.583 -1.1832  0.1640 -0.6061
   87MOL   H21521027   3.228   3.999   1.496 -1.0786 -0.3094  1.9170
   87MOL   H21621028   3.270   3.837   1.435  1.2353  0.2377  1.5440
   87MOL   H21721029   3.066   3.628   1.275 -1.7772  1.0980  0.2886
   87MOL   C21821030   3.076   3.995   1.280  0.5573  0.1892 -0.0585
   87MOL   C21921031   2.970   4.051   1.177 -0.0372 -0.4100  0.4668
   87MOL   C22021032   2.843   3.957   1.173 -0.6432 -0.6803 -0.2249
   87MOL   C22121033   2.924   4.192   1.217  0.3121 -0.1878  0.4346
   87MOL   O22221034   3.008   4.274   1.267  0.2543  0.0613 -0.4929
   87MOL   O22321035   2.795   4.222   1.186  0.0650  0.6163 -0.8060
   87MOL   H22421036   3.131   4.081   1.316  1.3929 -0.5029  0.3148
   87MOL   H22521037   3.157   3.948   1.224  0.4403  1.5413 -1.3880
   87MOL   H22621038   2.777   3.974   1.088  0.7726  0.4734 -1.1188
   87MOL   H22721039   2.765   3.956   1.250  0.5968 -0.9870  1.0522
   87MOL   H22821040   2.853   3.849   1.171 -2.7258 -0.9674  2.3333
   87MOL   H22921041   2.771   4.310   1.213  1.9934  1.2005 -0.8914
   87MOL   C23021042   3.025   4.045   1.031  0.4491 -0.4852  0.3501
   87MOL   C23121043   3.081   3.907   0.977 -1.0015 -0.0000 -0.2566
   87MOL   C23221044   2.977   3.833   0.888 -0.4059  0.0931  0.4002
   87MOL   C23321045   3.218   3.926   0.907  0.4344 -0.0932 -0.0527
   87MOL   O23421046   3.301   4.012   0.932  0.0757  0.6614 -0.0774
   87MOL   O23521047   3.234   3.847   0.799  0.9475  0.1113  0.1489
   87MOL   H23621048   2.947   4.069   0.959  1.0550  0.6384  0.0574
   87MOL   H23721049   3.096   4.122   1.000  1.6186 -1.0502  1.5432
   87MOL   H23821050   2.879   3.828   0.937 -0.4700 -0.0828  0.2575
   87MOL   H23921051   3.014   3.734   0.861  1.2007  1.1368 -1.3741
   87MOL   H24021052   2.951   3.886   0.796 -2.3228 -1.6378 -0.1118
   87MOL   H24121053   3.315   3.868   0.755 -0.5014  4.6811 -0.5960
   87MOL   H24221054   3.112   3.842   1.060  0.6401  2.6914  1.3095
   88MOL     C121055   3.497   4.394   7.697  0.2177  0.3049  0.2292
   88MOL     C221056   3.479   4.257   7.622  0.4826  0.4262  0.8040
   88MOL     C321057   3.353   4.201   7.680  0.8351  0.1734  0.1497
   88MOL     C421058   3.448   4.284   7.469 -0.3288 -0.7181  0.7637
   88MOL     O521059   3.438   4.392   7.416 -0.0254  0.0754  0.3027
   88MOL     O621060   3.422   4.170   7.396  0.3241  0.3162 -0.3803
   88MOL     H721061   3.588   4.442   7.661  0.9208 -1.3347 -0.2589
   88MOL     H821062   3.502   4.370   0.036 -0.7856 -1.0998 -0.0305
   88MOL     H921063   3.362   4.172   0.017  3.8411 -1.7525 -0.5846
   88MOL    H1021064   3.330   4.108   7.628  0.2078  1.7248 -2.4514
   88MOL    H1121065   3.268   4.270   7.688  1.2593  0.6440  0.5792
   88MOL    H1221066   3.392   4.214   7.318  1.7213  3.4568  0.7725
   88MOL    H1321067   3.404   4.449   7.683 -1.5504 -2.5337  0.4277
   88MOL    C1421068   3.595   4.154   7.640  0.0705  0.4018  0.2322
   88MOL    C1521069   3.748   4.186   7.618 -0.4661 -0.7777  0.0107
   88MOL    C1621070   3.799   4.303   7.713  0.3054  0.3353  0.0604
   88MOL    C1721071   3.831   4.059   7.648  0.4291 -0.1262 -0.0374
   88MOL    O1821072   3.915   4.044   7.737 -0.0668  0.1039 -0.1227
   88MOL    O1921073   3.808   3.962   7.555 -0.4993  0.1926 -0.2391
   88MOL    H2021074   3.590   4.131   7.746  3.3726  0.9881  0.5664
   88MOL    H2121075   3.566   4.058   7.598 -1.2040  1.0382 -0.3644
   88MOL    H2221076   3.748   4.316   0.041  2.6685 -0.6511  1.5060
   88MOL    H2321077   3.786   4.396   7.659 -0.8328  1.0332  1.4866
   88MOL    H2421078   3.905   4.295   7.735  0.8197  2.3003 -1.6268
   88MOL    H2521079   3.857   3.881   7.557 -1.7527 -0.6190 -1.1976
   88MOL    C2621080   3.766   4.223   7.470  0.8281 -0.4994  0.9293
   88MOL    C2721081   3.904   4.242   7.398 -0.4766 -0.4443 -0.2520
   88MOL    C2821082   4.022   4.286   7.487 -0.4501  0.2698 -0.1270
   88MOL    C2921083   3.955   4.105   7.349 -0.0544 -0.2984 -0.0283
   88MOL    O3021084   4.055   4.048   7.391 -0.0408 -0.3445 -0.6090
   88MOL    O3121085   3.872   4.048   7.261  0.1846 -0.0235 -0.2479
   88MOL    H3221086   3.711   4.155   7.406  2.0914  0.3899 -1.1489
   88MOL    H3321087   3.707   4.309   7.438  0.8962 -1.0871 -0.8247
   88MOL    H3421088   4.042   4.217   7.568 -0.5644  0.3460 -0.0342
   88MOL    H3521089   4.012   4.378   7.545  0.5385  0.8036 -0.7744
   88MOL    H3621090   4.117   4.296   7.433 -0.5566  1.4805 -0.1043
   88MOL    H3721091   3.910   3.969   7.226  1.8912  1.8484 -2.8125
   88MOL    C3821092   3.891   4.331   7.267  0.4397  0.1281 -0.1104
   88MOL    C3921093   3.884   4.486   7.248  0.2050  0.0355 -0.5963
   88MOL    C4021094   3.789   4.539   7.356  0.4983  0.0262  0.3049
   88MOL    C4121095   4.029   4.544   7.280  0.2197 -0.1583  0.1640
   88MOL    O4221096   4.135   4.488   7.267  0.0171  0.4446  0.5027
   88MOL    O4321097   4.027   4.673   7.306  0.1330 -0.0636  0.2135
   88MOL    H4421098   3.972   4.291   7.207  1.2298  0.5607  0.6673
   88MOL    H4521099   3.793   4.299   7.230  0.4433  0.1416 -0.1320
   88MOL    H4621100   3.693   4.487   7.349  0.2050  0.5140  0.6599
   88MOL    H4721101   3.771   4.646   7.351  1.1156  0.0748 -1.0674
   88MOL    H4821102   3.832   4.528   7.455  0.6817 -1.4448  0.0729
   88MOL    H4921103   4.116   4.706   7.309  0.1529 -0.1891  1.3182
   88MOL    C5021104   3.839   4.499   7.096 -0.1613 -0.2149 -0.6532
   88MOL    C5121105   3.821   4.637   7.014  0.1710 -0.6356  0.2266
   88MOL    C5221106   3.724   4.728   7.097 -0.2539  0.3280  0.6507
   88MOL    C5321107   3.955   4.709   7.000 -0.5875  0.7901  0.2297
   88MOL    O5421108   4.066   4.658   7.004  0.2249 -0.2610 -0.2393
   88MOL    O5521109   3.933   4.842   6.972  0.0902  0.8363 -0.0230
   88MOL    H5621110   3.914   4.448   7.035  1.1572  2.8841 -1.7401
   88MOL    H5721111   3.744   4.451   7.073 -2.0126  3.1843 -0.4645
   88MOL    H5821112   3.680   4.801   7.029  0.7365  1.1368  0.8584
   88MOL    H5921113   3.779   4.784   7.173  2.7775 -0.6342 -0.7618
   88MOL    H6021114   3.643   4.669   7.141 -0.1955  0.6322  1.1770
   88MOL    H6121115   4.013   4.885   6.946  0.5098  0.6488  0.9338
   88MOL    C6221116   3.766   4.599   6.871  0.2832  0.2850 -0.0033
   88MOL    C6321117   3.789   4.676   6.727  0.3576  0.2347 -0.9118
   88MOL    C6421118   3.700   4.802   6.746  0.3013  0.3459 -0.4109
   88MOL    C6521119   3.935   4.722   6.683 -0.5714  0.4054 -0.3640
   88MOL    O6621120   3.967   4.840   6.673  0.4205 -0.2838  0.0286
   88MOL    O6721121   4.018   4.613   6.652  0.1813  0.1079 -0.4341
   88MOL    H6821122   3.798   4.496   6.857 -0.0233  0.0641  0.9103
   88MOL    H6921123   3.661   4.576   6.889  1.0081 -2.1289  1.3092
   88MOL    H7021124   3.730   4.871   6.825 -0.7204  0.2241  0.0845
   88MOL    H7121125   3.595   4.775   6.749  0.3048  0.0727 -1.9758
   88MOL    H7221126   3.710   4.865   6.657 -0.1103  0.0739 -0.6540
   88MOL    H7321127   4.094   4.639   6.603  0.8602 -0.4032  0.3396
   88MOL    C7421128   3.734   4.575   6.618  0.2334  0.1009  0.4050
   88MOL    C7521129   3.685   4.618   6.476  0.3745  0.0594 -0.5169
   88MOL    C7621130   3.675   4.483   6.394  0.0508  0.4165 -0.5589
   88MOL    C7721131   3.538   4.661   6.499 -0.5786  0.8875 -0.2752
   88MOL    O7821132   3.446   4.582   6.512  0.1673  1.0529  0.1806
   88MOL    O7921133   3.528   4.793   6.525 -0.5202  0.0115  0.0275
   88MOL    H8021134   3.804   4.494   6.600 -2.1637 -1.7217 -1.1288
   88MOL    H8121135   3.666   4.506   6.669  1.0229 -0.0951  1.1978
   88MOL    H8221136   3.767   4.448   6.346  0.5250  1.7529 -0.6450
   88MOL    H8321137   3.608   4.494   6.309  0.3389 -1.1371 -1.0036
   88MOL    H8421138   3.637   4.401   6.455  1.7186 -0.2736 -0.4060
   88MOL    H8521139   3.438   4.819   6.538  0.0025  0.5014  2.9524
   88MOL    C8621140   3.786   4.729   6.410  0.6777 -0.5365  0.0640
   88MOL    C8721141   3.768   4.808   6.277  0.1767  0.1303  1.0145
   88MOL    C8821142   3.918   4.833   6.227  1.0874 -0.7018 -0.5204
   88MOL    C8921143   3.700   4.712   6.174  0.3457 -0.5430  0.0134
   88MOL    O9021144   3.767   4.639   6.107  0.0352  1.3459 -0.0455
   88MOL    O9121145   3.565   4.704   6.179  0.5397  0.1038 -0.7094
   88MOL    H9221146   3.811   4.807   6.481 -1.1380 -0.4470  0.6359
   88MOL    H9321147   3.881   4.676   6.405  0.8482 -0.1340 -1.1882
   88MOL    H9421148   3.987   4.889   6.290  0.4243  0.3417 -0.6984
   88MOL    H9521149   3.919   4.881   6.129  0.6903  1.0739  0.3198
   88MOL    H9621150   3.971   4.739   6.219 -0.0225 -1.3201 -0.7744
   88MOL    H9721151   3.535   4.637   6.120 -0.8999  1.1812 -1.2124
   88MOL    C9821152   3.691   4.948   6.300  0.1686  0.4696 -0.3162
   88MOL    C9921153   3.715   5.072   6.212 -0.3657  0.5787  0.8243
   88MOL   C10021154   3.843   5.134   6.246  0.5226 -0.3663  0.1086
   88MOL   C10121155   3.711   5.043   6.064 -0.1132  0.4080  0.0871
   88MOL   O10221156   3.787   5.090   5.982  0.9798  0.0162 -0.2604
   88MOL   O10321157   3.605   4.961   6.032  0.2053  0.7139 -0.0949
   88MOL   H10421158   3.585   4.923   6.300 -0.2555  2.2039  0.2661
   88MOL   H10521159   3.706   4.977   6.403  2.1655  0.2595 -0.5327
   88MOL   H10621160   3.849   5.231   6.197  1.0915 -0.6628 -0.4198
   88MOL   H10721161   3.935   5.095   6.203  2.0767  0.8696  2.1983
   88MOL   H10821162   3.864   5.144   6.353 -1.9102  0.3900  0.5252
   88MOL   H10921163   3.588   4.961   5.939 -0.1776 -0.5750 -0.0387
   88MOL   C11021164   3.617   5.192   6.245 -0.3936  0.2025 -0.0134
   88MOL   C11121165   3.457   5.188   6.265 -0.5944 -0.0756  0.0981
   88MOL   C11221166   3.415   5.090   6.379 -0.0044  0.0538 -0.1682
   88MOL   C11321167   3.416   5.326   6.306 -0.4438 -0.8327 -1.3260
   88MOL   O11421168   3.360   5.366   6.412  0.3850 -0.1559  0.4697
   88MOL   O11521169   3.450   5.416   6.214 -0.3858 -0.2673 -0.7135
   88MOL   H11621170   3.649   5.233   6.341 -0.1646 -1.4313  0.6320
   88MOL   H11721171   3.637   5.270   6.171 -0.3163 -0.8094 -1.0708
   88MOL   H11821172   3.361   5.002   6.344  0.2728  0.0083 -0.4854
   88MOL   H11921173   3.339   5.118   6.452 -0.2274  1.0749 -0.7844
   88MOL   H12021174   3.497   5.061   6.444  0.7432  1.4831 -0.4655
   88MOL   H12121175   3.444   5.499   6.259  0.1658 -1.2440  1.2277
   88MOL   C12221176   3.379   5.141   6.138 -0.1518  0.1412  0.4829
   88MOL   C12321177   3.219   5.172   6.114 -0.7478  0.4860 -0.0096
   88MOL   C12421178   3.151   5.192   6.250 -0.7367  0.0397  0.5299
   88MOL   C12521179   3.194   5.302   6.027 -0.1465  0.7025 -0.5609
   88MOL   O12621180   3.278   5.364   5.953 -0.0906  0.4222  0.0146
   88MOL   O12721181   3.063   5.337   6.036  0.1374  0.3068 -0.1567
   88MOL   H12821182   3.432   5.203   6.066  0.8486  1.2617  2.1406
   88MOL   H12921183   3.404   5.036   6.122 -0.2103  0.1591  0.2663
   88MOL   H13021184   3.045   5.212   6.235 -0.1830  1.9700 -1.0175
   88MOL   H13121185   3.175   5.285   6.303  3.0635 -0.1950 -0.6206
   88MOL   H13221186   3.155   5.110   6.322  1.1770  1.2152  1.8060
   88MOL   H13321187   3.050   5.403   5.969 -1.6104 -0.5495 -0.7065
   88MOL   C13421188   3.146   5.049   6.049 -0.6896 -0.2255  0.7360
   88MOL   C13521189   3.190   4.973   5.914  0.1261  0.1466  0.3295
   88MOL   C13621190   3.220   5.060   5.790 -0.3172 -0.2835 -0.3834
   88MOL   C13721191   3.308   4.883   5.935  0.3432  0.0708 -0.0831
   88MOL   O13821192   3.403   4.877   5.859 -0.3893 -0.1647 -0.3051
   88MOL   O13921193   3.299   4.812   6.047  0.1785  0.3225 -0.6324
   88MOL   H14021194   3.108   4.975   6.120 -1.6141 -0.9815 -0.5205
   88MOL   H14121195   3.049   5.095   6.031 -0.2395  0.3040 -0.3960
   88MOL   H14221196   3.253   5.022   5.693  0.4680 -1.1186  0.2064
   88MOL   H14321197   3.288   5.142   5.811 -0.1016 -0.5045 -0.2207
   88MOL   H14421198   3.137   5.129   5.778 -1.0149 -1.2431 -1.1395
   88MOL   H14521199   3.356   4.737   6.050 -1.1499 -0.7329 -0.7722
   88MOL   C14621200   3.062   4.893   5.893  0.3206  0.0941  0.0134
   88MOL   C14721201   3.031   4.798   5.772 -0.4624 -0.1261 -0.6193
   88MOL   C14821202   2.880   4.738   5.785 -0.2729  0.1830 -0.2754
   88MOL   C14921203   3.031   4.882   5.644  0.2917  0.6924 -0.0108
   88MOL   O15021204   3.106   4.861   5.550  0.3409  0.1502  0.1069
   88MOL   O15121205   2.931   4.977   5.638  0.8605 -0.3557 -0.4542
   88MOL   H15221206   3.064   4.827   5.979 -1.9637 -1.8835 -1.3655
   88MOL   H15321207   2.971   4.952   5.907  1.6476  2.2907 -0.4302
   88MOL   H15421208   2.848   4.682   5.698  1.0490 -2.3597  0.8149
   88MOL   H15521209   2.809   4.819   5.802 -0.1395  0.2250  0.0851
   88MOL   H15621210   2.874   4.668   5.869  0.5389 -0.6228 -0.8774
   88MOL   H15721211   2.950   5.040   5.570  0.5500 -1.1224 -1.2573
   88MOL   C15821212   3.138   4.680   5.770 -0.1875  0.3092 -0.1436
   88MOL   C15921213   3.117   4.535   5.711  0.4148 -0.1192 -0.9182
   88MOL   C16021214   3.002   4.458   5.786 -0.0998 -0.3463 -0.3407
   88MOL   C16121215   3.069   4.548   5.565 -0.6075  0.7080  0.2178
   88MOL   O16221216   2.959   4.511   5.528 -0.3205 -0.5031  0.0130
   88MOL   O16321217   3.165   4.594   5.481 -0.1820 -0.1195  0.1234
   88MOL   H16421218   3.233   4.708   5.726 -1.1525  0.9818 -1.8642
   88MOL   H16521219   3.157   4.651   5.873  2.7074  2.7860  0.0740
   88MOL   H16621220   3.011   4.350   5.769 -1.7802 -0.5525 -0.0533
   88MOL   H16721221   2.903   4.469   5.742  0.0769 -0.5045 -0.7864
   88MOL   H16821222   2.996   4.466   5.895  3.5068 -1.1769  0.0028
   88MOL   H16921223   3.131   4.616   5.395 -2.4810 -2.0828  0.4676
   88MOL   C17021224   3.250   4.452   5.710  0.5300  0.2719  0.1892
   88MOL   C17121225   3.341   4.407   5.836 -0.4838 -0.4452 -0.3278
   88MOL   C17221226   3.437   4.296   5.782  0.6225 -0.1136  0.7089
   88MOL   C17321227   3.444   4.517   5.881  0.5988 -0.0566 -0.8481
   88MOL   O17421228   3.474   4.551   5.992 -0.4468 -0.1499  0.4330
   88MOL   O17521229   3.508   4.571   5.777 -0.1967  0.6403 -0.1696
   88MOL   H17621230   3.214   4.357   5.669 -0.8850  0.1557  1.6404
   88MOL   H17721231   3.315   4.487   5.631  1.2358 -1.0216  0.1832
   88MOL   H17821232   3.386   4.203   5.760  1.4660 -0.4871  0.2966
   88MOL   H17921233   3.515   4.269   5.853  1.4475  2.6961  0.9584
   88MOL   H18021234   3.496   4.328   5.695  0.2131 -1.4700 -0.0739
   88MOL   H18121235   3.575   4.632   5.805 -1.3886  0.9797  2.0617
   88MOL   C18221236   3.246   4.366   5.952  0.1082  0.1489  0.2106
   88MOL   C18321237   3.287   4.311   6.092 -0.0325  0.4320 -0.4438
   88MOL   C18421238   3.414   4.225   6.097 -0.1394  0.0523  0.1941
   88MOL   C18521239   3.299   4.431   6.193  0.0622  0.2796  0.4189
   88MOL   O18621240   3.268   4.546   6.171 -0.6134  0.2750 -0.0645
   88MOL   O18721241   3.336   4.394   6.321  0.1474  0.5312 -0.1749
   88MOL   H18821242   3.187   4.457   5.963 -1.5268 -1.0375  1.5303
   88MOL   H18921243   3.185   4.291   5.903 -0.3678  0.0618  0.9316
   88MOL   H19021244   3.511   4.274   6.089 -0.0485 -0.4908 -2.2061
   88MOL   H19121245   3.417   4.148   6.020  0.0631 -0.3397  0.5858
   88MOL   H19221246   3.416   4.167   6.190  1.0604 -2.0161 -1.0930
   88MOL   H19321247   3.341   4.467   6.380  0.3224  1.0487 -0.8229
   88MOL   C19421248   3.171   4.231   6.160  0.1650  0.3201 -0.0086
   88MOL   C19521249   3.084   4.115   6.090 -0.7526 -0.0432  0.2142
   88MOL   C19621250   3.150   4.029   5.976 -0.6481 -0.3165  0.1894
   88MOL   C19721251   3.055   4.010   6.197  0.5033 -0.0625 -0.5416
   88MOL   O19821252   3.103   3.896   6.190  0.1122  0.3921  0.3722
   88MOL   O19921253   2.985   4.056   6.308  0.6083  0.5848  0.3408
   88MOL   H20021254   3.222   4.181   6.243  0.4400 -0.6185 -0.7282
   88MOL   H20121255   3.098   4.296   6.207  0.8667  0.5088  0.8452
   88MOL   H20221256   3.102   3.935   5.949  2.0276 -1.6307 -0.0860
   88MOL   H20321257   3.249   3.997   6.010 -0.5702  0.4841  0.7322
   88MOL   H20421258   3.171   4.085   5.886 -0.3912 -0.9994 -0.1752
   88MOL   H20521259   2.954   3.996   6.375 -1.1201  0.3540 -0.6327
   88MOL   C20621260   2.957   4.176   6.034 -0.0329 -0.2983 -0.8207
   88MOL   C20721261   2.813   4.105   5.999  0.0294  0.0994  0.6661
   88MOL   C20821262   2.828   3.978   5.912 -0.2468  0.3504  0.2580
   88MOL   C20921263   2.741   4.078   6.133  0.0829 -0.0825  0.4415
   88MOL   O21021264   2.689   4.160   6.206 -0.5783  0.1581 -0.0195
   88MOL   O21121265   2.749   3.950   6.159 -0.9344 -0.1526 -0.6658
   88MOL   H21221266   2.941   4.270   6.086  2.5865 -0.2146 -0.1295
   88MOL   H21321267   2.995   4.212   5.939 -0.7775  0.7400 -0.7263
   88MOL   H21421268   2.731   3.929   5.900 -0.3625  0.3021  1.2933
   88MOL   H21521269   2.896   3.909   5.962 -0.6001  0.3668  0.7616
   88MOL   H21621270   2.862   3.983   5.809 -0.9115  1.4544  0.0790
   88MOL   H21721271   2.723   3.931   6.247  0.8344 -1.1589 -0.3343
   88MOL   C21821272   2.729   4.213   5.920  0.0961 -0.0896 -0.2299
   88MOL   C21921273   2.585   4.197   5.850 -0.3992 -0.0156 -0.3201
   88MOL   C22021274   2.604   4.146   5.710 -0.5620  0.2105  0.4864
   88MOL   C22121275   2.491   4.100   5.922  0.5833  1.1617 -0.6067
   88MOL   O22221276   2.471   3.988   5.878  0.3909 -0.6622 -0.4026
   88MOL   O22321277   2.439   4.139   6.034 -0.7705  0.1480  0.3487
   88MOL   H22421278   2.726   4.290   5.997  2.5205  1.1057 -1.2952
   88MOL   H22521279   2.796   4.253   5.843  0.7145  0.2449  0.4817
   88MOL   H22621280   2.661   4.204   5.638 -0.6656 -2.7134 -2.0855
   88MOL   H22721281   2.509   4.145   5.656 -1.1015 -0.7101  1.4445
   88MOL   H22821282   2.650   4.047   5.709  0.2167  0.5630  1.0005
   88MOL   H22921283   2.400   4.064   6.077  3.0842 -1.2727  1.6432
   88MOL   C23021284   2.525   4.342   5.843 -0.0600 -0.1665  0.5337
   88MOL   C23121285   2.592   4.459   5.762  0.6134 -0.5785 -0.3797
   88MOL   C23221286   2.537   4.478   5.616  0.3877  0.4517 -0.2154
   88MOL   C23321287   2.599   4.576   5.857  0.3514  0.4343 -0.5442
   88MOL   O23421288   2.556   4.690   5.831 -0.3026 -0.7403  0.1037
   88MOL   O23521289   2.671   4.543   5.968  0.2241 -0.0784 -0.3236
   88MOL   H23621290   2.424   4.325   5.805  0.2915  0.3666 -0.6926
   88MOL   H23721291   2.504   4.363   5.948  0.5958 -3.1928  1.3122
   88MOL   H23821292   2.606   4.538   5.558  0.0480 -2.1846 -3.4864
   88MOL   H23921293   2.443   4.533   5.613  1.3388  2.0784 -1.1091
   88MOL   H24021294   2.528   4.384   5.562 -2.6056  1.3322 -1.3857
   88MOL   H24121295   2.694   4.607   6.033  0.0503 -0.6607  0.3165
   88MOL   H24221296   2.692   4.428   5.732  1.2426 -0.7144  1.7509
   89MOL     C121297   5.137   1.451   2.784  0.1609 -0.2298  0.2683
   89MOL     C221298   5.198   1.600   2.773  0.4871 -0.2849 -0.2138
   89MOL     C321299   5.241   1.610   2.622  1.1503 -0.6059 -0.3901
   89MOL     C421300   5.087   1.693   2.825 -0.2632 -0.1060  0.7223
   89MOL     O521301   5.045   1.688   2.941  0.2187  0.1172 -0.3791
   89MOL     O621302   5.037   1.771   2.728  0.0544 -0.1157  0.0403
   89MOL     H721303   5.043   1.439   2.729  0.9887 -1.9955 -0.8058
   89MOL     H821304   5.106   1.417   2.883 -1.8268  0.1930 -0.1833
   89MOL     H921305   5.163   1.559   2.566  2.3268 -1.3690 -1.3517
   89MOL    H1021306   5.340   1.567   2.606  1.8041  0.9995 -0.8359
   89MOL    H1121307   5.241   1.712   2.582  0.6874 -0.4137  0.0984
   89MOL    H1221308   4.954   1.807   2.757  0.6550  0.7425  0.7159
   89MOL    H1321309   5.212   1.380   2.750 -0.4000 -1.0468  0.7036
   89MOL    C1421310   5.324   1.601   2.871 -0.5318  0.3049  0.7096
   89MOL    C1521311   5.433   1.719   2.879 -0.3619  0.1350 -0.1304
   89MOL    C1621312   5.457   1.789   2.743  0.1521 -0.0853  0.6474
   89MOL    C1721313   5.384   1.837   2.976  0.4683  0.4052  0.1429
   89MOL    O1821314   5.393   1.958   2.959  0.8261 -0.2871  0.1318
   89MOL    O1921315   5.317   1.789   3.084  0.3032  0.0646 -0.3528
   89MOL    H2021316   5.286   1.578   2.970 -0.8085 -0.2054  0.4856
   89MOL    H2121317   5.377   1.508   2.849  1.1582  1.6529 -1.1589
   89MOL    H2221318   5.379   1.856   2.708 -0.9454 -1.4992  0.3109
   89MOL    H2321319   5.467   1.710   2.669 -0.1044 -0.3555  0.8974
   89MOL    H2421320   5.553   1.840   2.738 -1.1368  2.2702 -1.1475
   89MOL    H2521321   5.293   1.856   3.147  1.6310 -0.5299  0.8153
   89MOL    C2621322   5.573   1.655   2.919 -0.2380 -0.1434 -0.0363
   89MOL    C2721323   5.628   1.629   3.065  0.0985 -0.2732 -0.0178
   89MOL    C2821324   5.673   1.758   3.132 -0.0359  0.6327  0.1924
   89MOL    C2921325   5.513   1.557   3.146 -0.0806  0.1993 -0.4639
   89MOL    O3021326   5.457   1.455   3.101  0.1971  0.0174 -0.7252
   89MOL    O3121327   5.481   1.614   3.272 -0.4751 -0.2038  0.0641
   89MOL    H3221328   5.596   1.560   2.870 -1.3669  0.3793 -1.5975
   89MOL    H3321329   5.650   1.720   2.878 -0.0147  0.8572  1.8955
   89MOL    H3421330   5.600   1.836   3.153  1.3701  1.6217  1.4884
   89MOL    H3521331   5.756   1.814   3.089 -0.4737  1.7777  0.8151
   89MOL    H3621332   5.725   1.735   3.225 -0.2581  1.7135  0.5894
   89MOL    H3721333   5.513   1.702   3.286 -3.2604  1.0365 -1.0707
   89MOL    C3821334   5.747   1.519   3.068 -0.1577 -0.4042  0.6124
   89MOL    C3921335   5.886   1.517   2.988 -0.3441 -0.2320 -0.4174
   89MOL    C4021336   5.958   1.646   3.028 -0.4550  0.5322 -0.5325
   89MOL    C4121337   5.968   1.396   3.043  0.1139  0.5195 -0.2894
   89MOL    O4221338   6.090   1.386   3.040  0.0915 -0.4703  0.0879
   89MOL    O4321339   5.892   1.289   3.073 -0.3813 -0.2557 -0.1850
   89MOL    H4421340   5.771   1.514   3.174 -1.5141  2.4724  1.0808
   89MOL    H4521341   5.701   1.421   3.055 -1.0835  0.3765 -2.6621
   89MOL    H4621342   5.921   1.730   2.968 -0.8505 -0.7426 -2.1306
   89MOL    H4721343   6.063   1.647   3.000 -0.5419 -1.0177 -0.9670
   89MOL    H4821344   5.940   1.670   3.132 -3.2532 -0.8432 -0.6331
   89MOL    H4921345   5.952   1.219   3.092 -1.4153 -0.4925  2.4049
   89MOL    C5021346   5.855   1.501   2.833  0.0344  0.6180 -0.9176
   89MOL    C5121347   5.955   1.470   2.717 -0.2052 -0.9774  0.5646
   89MOL    C5221348   6.081   1.563   2.719 -0.4667  0.0434  0.4104
   89MOL    C5321349   5.992   1.320   2.701 -0.0214  0.7037  0.1628
   89MOL    O5421350   5.943   1.236   2.780  0.5289 -0.3190 -0.1205
   89MOL    O5521351   6.083   1.294   2.606  0.0755  0.3537 -0.0701
   89MOL    H5621352   5.788   1.416   2.843 -1.1017  1.5985 -0.0532
   89MOL    H5721353   5.808   1.595   2.803  0.2623  1.3465  0.9347
   89MOL    H5821354   6.130   1.567   2.816 -0.1976  0.0008  0.2759
   89MOL    H5921355   6.057   1.667   2.697  2.4357  0.5294 -0.6298
   89MOL    H6021356   6.157   1.520   2.654 -1.1147 -1.0558  0.3636
   89MOL    H6121357   6.099   1.201   2.607 -1.5459  0.0570 -0.5250
   89MOL    C6221358   5.881   1.523   2.589  0.0961 -0.0475  0.1256
   89MOL    C6321359   5.770   1.433   2.510 -0.6040  0.1809  1.0363
   89MOL    C6421360   5.846   1.333   2.415 -0.0801  0.0135 -0.4639
   89MOL    C6521361   5.674   1.348   2.602  0.4672  0.0314  0.3656
   89MOL    O6621362   5.686   1.225   2.613  0.0491  0.2457 -0.0047
   89MOL    O6721363   5.582   1.423   2.666 -0.3886  0.4900  0.1145
   89MOL    H6821364   5.854   1.627   2.610 -0.4075 -0.6580  2.6982
   89MOL    H6921365   5.955   1.539   2.511 -0.5224 -0.6165 -0.5761
   89MOL    H7021366   5.901   1.246   2.453  0.4978 -0.2496 -1.8684
   89MOL    H7121367   5.923   1.384   2.358 -1.6283  1.3872 -1.3488
   89MOL    H7221368   5.785   1.280   2.342 -0.9637 -2.1088  1.7174
   89MOL    H7321369   5.537   1.374   2.733 -1.9038  0.0906 -1.1806
   89MOL    C7421370   5.691   1.539   2.430 -0.4623 -0.0648 -0.2411
   89MOL    C7521371   5.589   1.521   2.309 -0.8542  0.0738 -0.0868
   89MOL    C7621372   5.654   1.469   2.177  0.3052 -0.3450 -1.5990
   89MOL    C7721373   5.476   1.419   2.345 -0.2051  0.2702 -0.2577
   89MOL    O7821374   5.367   1.460   2.391  0.0392  0.3728 -0.0811
   89MOL    O7921375   5.515   1.291   2.338 -0.2423  0.2018 -0.6000
   89MOL    H8021376   5.640   1.606   2.500 -2.8772  0.4289 -2.4011
   89MOL    H8121377   5.771   1.600   2.387 -0.2095 -1.6218 -2.0345
   89MOL    H8221378   5.742   1.531   2.162  0.4466  0.1358  1.0393
   89MOL    H8321379   5.582   1.486   2.097 -1.2609  0.7684  0.0216
   89MOL    H8421380   5.685   1.365   2.162  1.3619 -0.4040  0.7902
   89MOL    H8521381   5.455   1.228   2.374  1.8252 -2.4538 -1.6130
   89MOL    C8621382   5.513   1.662   2.287  0.3503 -0.7213 -0.1150
   89MOL    C8721383   5.579   1.805   2.259 -0.6640 -0.0609  0.6066
   89MOL    C8821384   5.660   1.878   2.378  0.0988 -0.4428  0.0168
   89MOL    C8921385   5.671   1.791   2.138 -0.4710  0.2919  0.0755
   89MOL    O9021386   5.794   1.817   2.135  0.3161 -0.5084  0.1478
   89MOL    O9121387   5.603   1.745   2.029 -0.0905 -0.6149  0.4901
   89MOL    H9221388   5.465   1.636   2.192 -0.0150 -2.3432  0.4953
   89MOL    H9321389   5.436   1.689   2.358  0.3430  0.5288 -0.6009
   89MOL    H9421390   5.727   1.804   2.422 -0.2158 -0.2162  0.8885
   89MOL    H9521391   5.589   1.897   2.459 -0.0393 -0.2962 -0.1362
   89MOL    H9621392   5.711   1.967   2.340 -0.2004  0.4483  1.6849
   89MOL    H9721393   5.659   1.729   1.954 -0.3142 -0.0899  0.2153
   89MOL    C9821394   5.455   1.886   2.212  0.1108 -0.0094 -0.0001
   89MOL    C9921395   5.453   2.044   2.190 -0.2236  0.0255  0.6221
   89MOL   C10021396   5.562   2.086   2.098 -0.5339  0.1099  0.7010
   89MOL   C10121397   5.329   2.092   2.110  0.3000 -0.2322 -0.0252
   89MOL   O10221398   5.224   2.024   2.101  0.3163  0.1957  0.4364
   89MOL   O10321399   5.334   2.231   2.070 -0.0567  0.6395 -0.1908
   89MOL   H10421400   5.418   1.844   2.119  1.1600 -1.7085  0.3272
   89MOL   H10521401   5.371   1.852   2.272 -1.6837  0.7987 -2.0246
   89MOL   H10621402   5.653   2.046   2.144 -0.2406  0.6605  0.6039
   89MOL   H10721403   5.575   2.194   2.100  0.7518 -0.0289  0.7326
   89MOL   H10821404   5.552   2.056   1.994  3.6275  1.4357 -0.1746
   89MOL   H10921405   5.257   2.266   2.029 -1.3130 -0.0772  1.4661
   89MOL   C11021406   5.464   2.137   2.318  0.3068 -0.0291 -0.1993
   89MOL   C11121407   5.357   2.154   2.433 -0.0573  0.2842 -0.6038
   89MOL   C11221408   5.287   2.010   2.449  0.2383  0.9313 -0.1150
   89MOL   C11321409   5.427   2.207   2.552  0.0510 -0.0839 -0.4179
   89MOL   O11421410   5.501   2.307   2.544  0.0811  0.2751  0.1118
   89MOL   O11521411   5.421   2.124   2.660  0.2269 -0.0620 -0.4347
   89MOL   H11621412   5.559   2.110   2.364 -0.3332 -3.7559 -0.8928
   89MOL   H11721413   5.490   2.236   2.282 -1.0223  0.1439 -0.7257
   89MOL   H11821414   5.365   1.938   2.474 -0.6025  0.6405  1.7380
   89MOL   H11921415   5.235   1.981   2.357  1.0324  1.3898 -0.7181
   89MOL   H12021416   5.216   1.995   2.529  0.4693 -3.0690 -0.5451
   89MOL   H12121417   5.465   2.168   2.731  0.7208  0.8362 -1.2984
   89MOL   C12221418   5.241   2.260   2.389 -0.2971 -0.1939 -0.5016
   89MOL   C12321419   5.137   2.326   2.492  0.5585 -0.6433  0.0078
   89MOL   C12421420   5.102   2.230   2.609 -0.3923 -0.1166  0.4566
   89MOL   C12521421   5.213   2.451   2.541  0.0258  0.6554 -0.8115
   89MOL   O12621422   5.259   2.466   2.654 -0.0223  0.7074 -0.5539
   89MOL   O12721423   5.223   2.548   2.444  0.1103 -1.0453  0.1824
   89MOL   H12821424   5.275   2.337   2.320 -0.4340 -0.8726 -1.3401
   89MOL   H12921425   5.181   2.202   2.318 -1.1720 -1.2642  1.0830
   89MOL   H13021426   5.058   2.134   2.581 -0.1391 -0.2575  0.5337
   89MOL   H13121427   5.033   2.274   2.680  0.8279  0.3976  1.3435
   89MOL   H13221428   5.195   2.216   2.665  0.9156 -0.5614 -1.7548
   89MOL   H13321429   5.263   2.623   2.485  0.6895 -0.3357 -1.6079
   89MOL   C13421430   5.005   2.374   2.421 -0.1471 -0.0521  0.6910
   89MOL   C13521431   4.872   2.438   2.478 -0.5303  0.0897 -0.9728
   89MOL   C13621432   4.791   2.494   2.363 -0.8483  0.3249  0.1153
   89MOL   C13721433   4.789   2.314   2.532  0.0008 -0.2482  0.1747
   89MOL   O13821434   4.758   2.291   2.647  0.5427 -0.3867 -0.8033
   89MOL   O13921435   4.750   2.233   2.426 -0.1534  0.5941  0.7766
   89MOL   H14021436   5.037   2.449   2.349  0.0838 -0.9182 -0.1074
   89MOL   H14121437   4.978   2.295   2.351 -0.1847  2.8388 -2.6801
   89MOL   H14221438   4.783   2.425   2.279  0.4252  0.8330 -0.4439
   89MOL   H14321439   4.836   2.584   2.320  2.0110 -0.2351  1.7986
   89MOL   H14421440   4.687   2.514   2.387 -0.8524  0.6439 -0.1615
   89MOL   H14521441   4.701   2.156   2.450  1.6462 -1.5903 -2.1616
   89MOL   C14621442   4.912   2.549   2.584  0.0650 -0.0513  0.0625
   89MOL   C14721443   4.809   2.656   2.651  0.5564  0.1158  0.5958
   89MOL   C14821444   4.757   2.760   2.540  0.0503 -0.4914  0.2187
   89MOL   C14921445   4.686   2.582   2.711  0.7457  0.4343 -0.3400
   89MOL   O15021446   4.683   2.541   2.823 -0.3886 -0.1502  0.1657
   89MOL   O15121447   4.586   2.554   2.620 -0.2262 -0.6949 -0.3017
   89MOL   H15221448   4.959   2.495   2.666 -1.2406  1.4798  1.8596
   89MOL   H15321449   4.992   2.604   2.534  1.5482  0.8130  3.3067
   89MOL   H15421450   4.731   2.719   2.443 -2.5885  0.0983  0.6452
   89MOL   H15521451   4.837   2.829   2.515  1.1072 -0.8554  2.4583
   89MOL   H15621452   4.665   2.812   2.568 -1.4942 -1.8215 -2.1732
   89MOL   H15721453   4.511   2.513   2.659 -0.0544  0.1366  0.9401
   89MOL   C15821454   4.893   2.745   2.759 -0.2525  0.2615 -0.3040
   89MOL   C15921455   4.837   2.877   2.838  0.1344  0.6213 -1.1191
   89MOL   C16021456   4.831   2.997   2.739 -0.2439  0.0800 -0.0508
   89MOL   C16121457   4.694   2.850   2.900 -0.1671 -0.1372 -0.6828
   89MOL   O16221458   4.591   2.903   2.866 -0.3795 -0.0583 -0.0115
   89MOL   O16321459   4.697   2.758   2.998  0.0246 -0.6306  0.9056
   89MOL   H16421460   4.916   2.669   2.834  1.8563  0.6214 -0.5493
   89MOL   H16521461   4.990   2.767   2.714 -0.1222  3.0668  1.2203
   89MOL   H16621462   4.919   3.021   2.679  0.2830  0.9752  1.0781
   89MOL   H16721463   4.804   3.090   2.788  0.1517  0.1862 -0.0353
   89MOL   H16821464   4.756   2.995   2.659  0.3654  0.8382 -0.6398
   89MOL   H16921465   4.607   2.752   3.027 -0.1862  0.4423  0.4854
   89MOL   C17021466   4.938   2.903   2.955  0.4168  0.7370 -0.4521
   89MOL   C17121467   4.944   3.026   3.049  0.2344  0.0281  0.3514
   89MOL   C17221468   4.800   3.077   3.082  0.0940 -0.0622  0.4310
   89MOL   C17321469   5.004   2.985   3.189 -0.0737  0.0980 -0.0019
   89MOL   O17421470   4.948   3.002   3.300 -0.1091  0.1999  0.5893
   89MOL   O17521471   5.114   2.913   3.182 -0.1454  0.0489 -0.2891
   89MOL   H17621472   4.941   2.812   3.014 -0.1995  0.1794 -1.2701
   89MOL   H17721473   5.041   2.899   2.919  0.7591 -1.0539  0.6528
   89MOL   H17821474   4.726   3.014   3.131  0.8442  0.3476  2.1218
   89MOL   H17921475   4.753   3.125   2.996 -1.4724 -0.4971  1.0122
   89MOL   H18021476   4.800   3.163   3.149  3.8676  1.3076 -1.2117
   89MOL   H18121477   5.143   2.878   3.265  1.2467 -1.4097 -1.3632
   89MOL   C18221478   5.036   3.138   2.978  0.7965  0.3851  0.3051
   89MOL   C18321479   5.059   3.291   3.030 -0.4160  0.2278  0.2377
   89MOL   C18421480   5.069   3.286   3.187 -0.0259  0.1897  0.4286
   89MOL   C18521481   5.187   3.340   2.963 -0.1957 -0.0289 -0.6505
   89MOL   O18621482   5.290   3.387   3.021 -0.2297 -0.4961  0.3842
   89MOL   O18721483   5.186   3.324   2.827 -0.0939 -0.3725  0.0550
   89MOL   H18821484   5.132   3.095   2.949  0.0036 -1.3419  0.1771
   89MOL   H18921485   4.993   3.153   2.879  2.6064 -1.3538 -0.7695
   89MOL   H19021486   4.980   3.268   3.248  0.7160  2.2462  2.1818
   89MOL   H19121487   5.117   3.378   3.218  0.1654  0.1096  0.3693
   89MOL   H19221488   5.143   3.214   3.221 -0.0763  0.1406  0.4344
   89MOL   H19321489   5.264   3.368   2.799 -0.7646  0.8572  0.0898
   89MOL   C19421490   4.933   3.381   2.987  0.0446  0.1297  0.4397
   89MOL   C19521491   4.929   3.542   2.995  0.4671 -0.1797  0.5565
   89MOL   C19621492   4.983   3.584   3.131  0.9897 -0.4439  0.4997
   89MOL   C19721493   5.019   3.601   2.882 -0.5636 -0.0080  0.3872
   89MOL   O19821494   5.020   3.552   2.774 -0.1284 -1.0548 -0.4884
   89MOL   O19921495   5.100   3.702   2.923 -0.0727  0.7272 -0.3120
   89MOL   H20021496   4.895   3.345   2.892 -1.2051  1.3391  0.4614
   89MOL   H20121497   4.850   3.359   3.053  0.3370 -0.3082  0.6641
   89MOL   H20221498   4.928   3.529   3.208 -0.9098 -0.3634 -0.7803
   89MOL   H20321499   4.953   3.685   3.159  0.4357  0.3907 -2.9809
   89MOL   H20421500   5.090   3.571   3.147  1.3184  0.6784 -0.7921
   89MOL   H20521501   5.074   3.738   3.006 -1.2773 -0.7648 -0.0303
   89MOL   C20621502   4.780   3.601   2.996 -0.4359  0.1230 -0.2408
   89MOL   C20721503   4.667   3.580   2.892  0.4645  0.2615 -0.0455
   89MOL   C20821504   4.714   3.637   2.755  0.2376 -0.1950 -0.3225
   89MOL   C20921505   4.616   3.432   2.896 -0.3958 -0.2859  0.0035
   89MOL   O21021506   4.595   3.371   3.002 -0.0573 -0.1653 -0.0594
   89MOL   O21121507   4.612   3.378   2.777  0.0250  0.2657  0.4787
   89MOL   H21221508   4.743   3.552   3.085 -0.3635  3.1817  1.5444
   89MOL   H21321509   4.792   3.709   2.996 -0.7438  0.1874 -2.3000
   89MOL   H21421510   4.752   3.740   2.761 -0.2898 -0.0720  1.0122
   89MOL   H21521511   4.631   3.645   2.685 -0.6406 -0.7636  0.6431
   89MOL   H21621512   4.795   3.577   2.714  0.8137 -0.6235  1.3701
   89MOL   H21721513   4.653   3.433   2.713  0.5625 -0.4857  0.1597
   89MOL   C21821514   4.549   3.678   2.936  0.4069 -0.0099 -0.2111
   89MOL   C21921515   4.390   3.662   2.907 -0.5312  0.0214  0.5256
   89MOL   C22021516   4.370   3.627   2.756  0.3155  0.2671  0.7077
   89MOL   C22121517   4.330   3.553   2.990 -0.6167  0.2486  0.0708
   89MOL   O22221518   4.251   3.466   2.955  0.7823  0.0354 -0.3604
   89MOL   O22321519   4.343   3.578   3.120  0.2276  0.4463 -0.6064
   89MOL   H22421520   4.569   3.683   3.043  1.1552 -3.0803 -0.1499
   89MOL   H22521521   4.570   3.778   2.900 -0.3397 -0.2958 -1.4871
   89MOL   H22621522   4.420   3.703   2.695  1.1301 -2.2700 -1.8877
   89MOL   H22721523   4.264   3.624   2.732  0.5900  0.1239 -0.5657
   89MOL   H22821524   4.408   3.530   2.725  1.3914  0.9285 -0.1006
   89MOL   H22921525   4.274   3.543   3.173  1.7788 -0.3823  0.9338
   89MOL   C23021526   4.316   3.801   2.940  0.7373 -0.0431  0.2477
   89MOL   C23121527   4.165   3.812   2.987  0.0414  0.0278  0.2999
   89MOL   C23221528   4.124   3.956   3.029  0.2532 -0.2013  0.7439
   89MOL   C23321529   4.054   3.759   2.894 -0.0176 -0.7291 -0.5433
   89MOL   O23421530   3.950   3.706   2.936  0.7336  0.2738  0.6154
   89MOL   O23521531   4.080   3.779   2.765  0.0130  0.1436 -0.0182
   89MOL   H23621532   4.377   3.856   3.012  1.6204 -0.0109 -0.5130
   89MOL   H23721533   4.329   3.868   2.854  1.1748 -2.5645 -1.7075
   89MOL   H23821534   4.034   3.956   3.091 -0.5778 -2.6849 -0.3924
   89MOL   H23921535   4.105   4.012   2.937  0.2041 -0.0314  0.8576
   89MOL   H24021536   4.194   4.004   3.097 -0.2111 -0.4823  1.4250
   89MOL   H24121537   4.014   3.731   2.717  1.4179 -0.8928 -0.9495
   89MOL   H24221538   4.162   3.752   3.079 -0.7014  2.7905  2.1504
   90MOL     C121539   3.297   7.344   1.300  0.2003  0.4868 -0.0140
   90MOL     C221540   3.146   7.359   1.281  0.0440 -0.2661  0.5893
   90MOL     C321541   3.118   7.479   1.374 -0.0509  1.1342  0.1914
   90MOL     C421542   3.106   7.411   1.149  0.3395 -0.3278  0.4114
   90MOL     O521543   3.190   7.440   1.060  0.0054 -0.4177 -0.2282
   90MOL     O621544   2.968   7.430   1.131 -0.2902  0.9949 -0.0726
   90MOL     H721545   3.359   7.431   1.277 -2.1690  2.3257  0.3266
   90MOL     H821546   3.342   7.262   1.244 -1.3785 -1.2663  1.1982
   90MOL     H921547   3.095   7.434   1.471 -2.4261 -0.1285 -0.9173
   90MOL    H1021548   3.040   7.553   1.354 -2.0319 -0.3547  2.1336
   90MOL    H1121549   3.198   7.552   1.379 -1.2093  2.3413  1.8509
   90MOL    H1221550   2.945   7.463   1.045 -0.4319 -0.5355 -0.6274
   90MOL    H1321551   3.320   7.321   1.404 -0.4676  0.3946  0.1181
   90MOL    C1421552   3.058   7.236   1.334 -0.2486  0.6087 -0.2327
   90MOL    C1521553   3.050   7.099   1.259  0.6011  0.1488 -0.9970
   90MOL    C1621554   2.984   7.005   1.354 -0.3820  0.5000 -0.7055
   90MOL    C1721555   2.957   7.114   1.138 -0.2640  0.4128  0.5586
   90MOL    O1821556   2.837   7.077   1.141 -0.5012  0.0847 -0.0347
   90MOL    O1921557   3.023   7.152   1.023  0.4822  0.4961 -0.9722
   90MOL    H2021558   3.069   7.221   1.441 -2.4619 -0.5431 -0.1321
   90MOL    H2121559   2.959   7.282   1.342 -0.2714  0.7024 -0.9838
   90MOL    H2221560   2.897   7.052   1.399 -0.6648  0.8141 -1.5780
   90MOL    H2321561   3.037   6.977   1.445 -1.7443 -2.4843 -0.7785
   90MOL    H2421562   2.970   6.903   1.319 -0.7388 -0.1269  1.2060
   90MOL    H2521563   2.947   7.160   0.968 -1.5048  1.9688  1.8145
   90MOL    C2621564   3.197   7.053   1.220 -0.2878 -0.7552 -0.0920
   90MOL    C2721565   3.251   6.910   1.173 -0.6582 -0.0537 -0.5082
   90MOL    C2821566   3.244   6.807   1.296 -0.9020  0.6816  0.1352
   90MOL    C2921567   3.156   6.859   1.058 -0.7279 -0.3234 -0.0076
   90MOL    O3021568   3.087   6.757   1.066  0.2277 -0.4057  0.4187
   90MOL    O3121569   3.166   6.929   0.950  0.1373 -0.7616  0.3471
   90MOL    H3221570   3.231   7.122   1.143  1.0163 -0.3117  0.8593
   90MOL    H3321571   3.254   7.075   1.310  0.9611 -0.1987 -1.0135
   90MOL    H3421572   3.265   6.703   1.271 -0.0565  1.0556 -0.7319
   90MOL    H3521573   3.154   6.819   1.356  0.1251 -0.1362  1.8850
   90MOL    H3621574   3.326   6.849   1.355 -0.6610 -1.2563  1.2481
   90MOL    H3721575   3.119   6.892   0.877 -2.0462  2.0040  0.2465
   90MOL    C3821576   3.399   6.941   1.116  0.5887  0.1398 -0.4721
   90MOL    C3921577   3.511   6.838   1.074 -0.7192  0.2223 -0.3626
   90MOL    C4021578   3.576   6.785   1.209  0.6468  0.1449 -0.0905
   90MOL    C4121579   3.456   6.723   0.982 -0.6908  0.0637  0.1774
   90MOL    O4221580   3.412   6.746   0.869  0.0132 -0.4511 -0.1653
   90MOL    O4321581   3.453   6.601   1.038  0.9094  0.0495  0.5924
   90MOL    H4421582   3.393   7.006   1.028  3.4426  0.8510 -0.2085
   90MOL    H4521583   3.443   7.014   1.184 -0.2341 -1.8640  2.2753
   90MOL    H4621584   3.503   6.714   1.248 -0.2517 -0.0499 -2.0539
   90MOL    H4721585   3.585   6.871   1.276 -0.8006 -1.5281  2.3236
   90MOL    H4821586   3.671   6.734   1.192  1.6165  1.6528  0.6905
   90MOL    H4921587   3.419   6.545   0.970 -0.5300 -0.1708  1.4695
   90MOL    C5021588   3.617   6.915   0.990 -0.4141 -0.5001  0.9526
   90MOL    C5121589   3.749   6.859   0.910  0.1586  0.1969  0.2604
   90MOL    C5221590   3.828   6.988   0.865  0.6777  0.1538  0.4236
   90MOL    C5321591   3.847   6.777   0.996  0.3072  0.2162  0.3827
   90MOL    O5421592   3.837   6.650   1.010 -0.0667 -0.2725 -0.0493
   90MOL    O5521593   3.936   6.853   1.065  0.0934 -0.1799 -0.1626
   90MOL    H5621594   3.562   6.960   0.907  0.7312 -1.1743 -0.1898
   90MOL    H5721595   3.644   7.000   1.053 -2.2339  1.1973 -0.5170
   90MOL    H5821596   3.779   7.047   0.787  1.7840 -0.6040 -0.8538
   90MOL    H5921597   3.926   6.974   0.820 -0.3242  1.3961 -2.2245
   90MOL    H6021598   3.849   7.056   0.948 -1.6102  0.1245  1.0637
   90MOL    H6121599   3.993   6.800   1.118  1.3057  0.7190 -0.5478
   90MOL    C6221600   3.706   6.772   0.772 -0.0867  0.5347 -0.2926
   90MOL    C6321601   3.789   6.747   0.643  0.9446  0.5643  0.7411
   90MOL    C6421602   3.929   6.698   0.677 -0.3152 -0.1730  1.0180
   90MOL    C6521603   3.722   6.624   0.575  0.6217 -0.7191 -0.3789
   90MOL    O6621604   3.782   6.524   0.538  0.4120 -0.2357  0.1936
   90MOL    O6721605   3.587   6.642   0.560 -0.1211  0.2848 -0.4879
   90MOL    H6821606   3.679   6.674   0.810 -2.8100  0.3820 -2.4863
   90MOL    H6921607   3.607   6.800   0.736 -0.0536 -0.0325 -0.8298
   90MOL    H7021608   3.965   6.645   0.589 -1.8059 -2.0697  1.5154
   90MOL    H7121609   3.933   6.623   0.756 -1.1811 -0.2238  1.0224
   90MOL    H7221610   4.000   6.767   0.722 -2.0274  0.8006  2.2774
   90MOL    H7321611   3.541   6.571   0.517 -0.0312 -1.9066  2.8405
   90MOL    C7421612   3.782   6.868   0.543  0.4529  0.2001 -0.3050
   90MOL    C7521613   3.900   6.930   0.456  0.0192  0.2780  0.2664
   90MOL    C7621614   3.996   7.002   0.557 -0.5711  0.2316  0.0908
   90MOL    C7721615   3.973   6.825   0.376  0.4813  0.7767 -0.7553
   90MOL    O7821616   4.091   6.836   0.352  0.4162  0.3211  0.0874
   90MOL    O7921617   3.899   6.721   0.331  0.3417  0.8060  0.4005
   90MOL    H8021618   3.693   6.855   0.482 -1.0095  1.4127  1.5157
   90MOL    H8121619   3.736   6.950   0.598 -0.5693 -0.1007 -0.6995
   90MOL    H8221620   3.939   7.084   0.600 -3.2456 -0.8497 -1.2635
   90MOL    H8321621   4.087   7.046   0.515 -0.3158 -1.0094 -0.6939
   90MOL    H8421622   4.040   6.943   0.637 -0.4214  0.8505  0.4614
   90MOL    H8521623   3.942   6.653   0.281 -1.1080 -0.7294  1.2334
   90MOL    C8621624   3.821   7.025   0.358  0.2689 -1.2250 -0.7471
   90MOL    C8721625   3.883   7.105   0.230 -0.0865 -0.2769 -0.8834
   90MOL    C8821626   4.030   7.160   0.265  0.9110 -0.2411 -0.9138
   90MOL    C8921627   3.884   7.015   0.102  0.2697  0.0294 -0.0027
   90MOL    O9021628   3.850   6.897   0.098  0.9249  0.2499  0.0432
   90MOL    O9121629   3.962   7.068   0.005  0.4276  0.6606 -0.2129
   90MOL    H9221630   3.737   6.968   0.317 -0.2422 -2.1757  1.5127
   90MOL    H9321631   3.777   7.098   0.425  3.1134 -0.0471 -0.0847
   90MOL    H9421632   4.048   7.210   0.360 -2.9863 -1.9521  0.8751
   90MOL    H9521633   4.079   7.196   0.175 -1.8283  0.7122 -2.1034
   90MOL    H9621634   4.092   7.073   0.285  0.7395 -0.2840 -0.5693
   90MOL    H9721635   4.006   6.995   7.731  0.8595  0.8100 -0.0247
   90MOL    C9821636   3.774   7.223   0.205  0.2382 -0.3197  1.1076
   90MOL    C9921637   3.805   7.379   0.196 -0.1523  0.0172 -0.1188
   90MOL   C10021638   3.681   7.466   0.223  0.3905  1.1212 -1.1666
   90MOL   C10121639   3.892   7.418   0.317 -0.2930 -0.7969  0.2470
   90MOL   O10221640   3.984   7.494   0.304  0.4564 -0.3737  0.7464
   90MOL   O10321641   3.844   7.372   0.436  0.2771 -0.0661 -0.0912
   90MOL   H10421642   3.719   7.194   0.115 -0.0085 -1.2211  1.5522
   90MOL   H10521643   3.688   7.218   0.271 -1.7798 -1.1879 -1.4876
   90MOL   H10621644   3.640   7.446   0.322 -1.1548  0.9102 -1.8292
   90MOL   H10721645   3.592   7.428   0.172  0.2513 -0.5173  0.2478
   90MOL   H10821646   3.701   7.572   0.212 -1.3642  1.5480 -0.4110
   90MOL   H10921647   3.887   7.410   0.511 -0.0693  0.7886 -0.3228
   90MOL   C11021648   3.876   7.407   0.062  0.6151 -0.1398 -0.3065
   90MOL   C11121649   3.807   7.424   7.683 -0.4862 -0.6778 -0.0631
   90MOL   C11221650   3.909   7.377   7.579 -0.4003  0.3086 -0.3084
   90MOL   C11321651   3.686   7.320   7.669 -0.1236 -0.0089 -0.1449
   90MOL   O11421652   3.689   7.202   7.633 -0.6065 -0.5432 -0.1894
   90MOL   O11521653   3.567   7.383   7.695 -0.4214 -0.7985  0.0628
   90MOL   H11621654   3.942   7.492   0.079  1.9435 -1.1468 -0.3856
   90MOL   H11721655   3.955   7.333   0.055  2.2233  1.1973  2.6868
   90MOL   H11821656   3.877   7.386   7.475 -1.0878  1.3364 -0.0146
   90MOL   H11921657   3.931   7.271   7.589 -0.2287  0.3481 -0.2771
   90MOL   H12021658   4.003   7.431   7.582  0.4445 -1.1922  0.8658
   90MOL   H12121659   3.487   7.334   7.683  1.2388 -4.6886  3.4719
   90MOL   C12221660   3.757   7.570   7.659  0.3916  0.0828 -0.8035
   90MOL   C12321661   3.861   7.692   7.631  0.7417 -0.1795  0.3726
   90MOL   C12421662   3.980   7.699   7.727 -0.0160 -0.0451  0.7606
   90MOL   C12521663   3.910   7.700   7.486 -0.2488 -0.0657  0.3212
   90MOL   O12621664   3.851   7.637   7.397  0.0182 -0.1960 -0.0118
   90MOL   O12721665   4.021   0.004   7.459 -0.2313 -0.3707 -0.0855
   90MOL   H12821666   3.686   7.563   7.577  0.9021 -2.7790 -1.0690
   90MOL   H12921667   3.701   7.605   7.746  0.0571  0.2818 -1.0972
   90MOL   H13021668   4.026   0.026   7.697 -4.4780  1.9784 -0.1847
   90MOL   H13121669   4.043   7.613   7.705 -0.2357 -0.2486  0.9156
   90MOL   H13221670   3.956   7.703   0.066  0.3727 -1.0113  0.8955
   90MOL   H13321671   4.059   0.005   7.373  4.4455 -0.5216  1.7911
   90MOL   C13421672   3.785   0.062   7.666  1.1111  0.1012 -0.1041
   90MOL   C13521673   3.642   0.120   7.619  0.2125  0.2314 -0.8565
   90MOL   C13621674   3.634   0.267   7.674 -0.1378 -0.3496  0.0105
   90MOL   C13721675   3.633   0.127   7.465 -0.0576 -0.2729 -0.3224
   90MOL   O13821676   3.672   0.219   7.396 -0.0932  0.1779  0.7151
   90MOL   O13921677   3.577   0.013   7.411  0.3841 -0.3884 -0.4163
   90MOL   H14021678   3.771   0.048   0.007 -0.7278 -0.2917 -0.3696
   90MOL   H14121679   3.853   0.146   7.658  0.3313  0.6499 -0.9669
   90MOL   H14221680   3.714   0.328   7.632 -0.2244  0.6224  1.2487
   90MOL   H14321681   3.629   0.285   0.014 -1.0360  0.6243 -0.1928
   90MOL   H14421682   3.546   0.322   7.641  0.5701  0.9973  0.3238
   90MOL   H14521683   3.587   0.036   7.320  0.3060 -1.0295 -0.5911
   90MOL   C14621684   3.535   0.038   7.693  0.3761  0.8397 -0.0291
   90MOL   C14721685   3.388   0.091   7.719 -0.1532 -0.3461  0.1479
   90MOL   C14821686   3.316   7.727   0.009 -1.0360 -0.1766  0.0170
   90MOL   C14921687   3.393   0.194   0.075  0.1604 -0.0462 -0.0904
   90MOL   O15021688   3.349   0.313   0.068  0.1464  0.3263 -0.1424
   90MOL   O15121689   3.443   0.138   0.190 -0.1569 -0.0492  0.5702
   90MOL   H15221690   3.538   7.706   7.648  1.0768  0.4683  0.8516
   90MOL   H15321691   3.573   0.016   0.025 -1.2196 -0.2047  0.3790
   90MOL   H15421692   3.390   7.669   0.065 -0.4411  0.3645 -0.2018
   90MOL   H15521693   3.278   7.669   7.691 -0.1030  0.9707 -1.2008
   90MOL   H15621694   3.229   7.740   0.073 -0.1412  0.2027  1.1721
   90MOL   H15721695   3.456   0.202   0.258  0.8081  0.8596 -0.4443
   90MOL   C15821696   3.313   0.152   7.591 -0.0723 -0.6079  0.5449
   90MOL   C15921697   3.155   0.195   7.585  0.1392 -0.0961 -0.4384
   90MOL   C16021698   3.094   0.138   7.447 -0.3869  0.1258  0.3749
   90MOL   C16121699   3.067   0.126   7.694 -0.0915 -0.5473 -0.0864
   90MOL   O16221700   3.053   0.178   0.036  0.6051  0.1632  0.2000
   90MOL   O16321701   3.029   0.002   7.666  0.1813 -0.6074  0.0031
   90MOL   H16421702   3.367   0.242   7.562 -1.5368  0.3920  0.8464
   90MOL   H16521703   3.331   0.080   7.512  2.9885 -1.4707  1.9776
   90MOL   H16621704   3.127   0.182   7.352  2.3260 -0.1745  1.1254
   90MOL   H16721705   2.986   0.141   7.455 -0.3783  2.3611 -0.0660
   90MOL   H16821706   3.128   0.035   7.437 -0.7683  0.0638 -0.3573
   90MOL   H16921707   2.996   7.728   7.744 -2.2640 -1.5277 -1.4873
   90MOL   C17021708   3.130   0.353   7.586 -0.1509 -0.1615  0.0686
   90MOL   C17121709   3.149   0.456   7.469  0.5065  1.0820  1.0049
   90MOL   C17221710   3.280   0.429   7.389  0.7830 -0.2061 -0.9387
   90MOL   C17321711   3.030   0.458   7.371 -0.6507  0.3800  0.4183
   90MOL   O17421712   2.918   0.435   7.404 -0.2928 -0.3544 -0.1821
   90MOL   O17521713   3.054   0.489   7.240 -0.9428  0.1772 -0.4416
   90MOL   H17621714   3.032   0.370   7.629  0.0057 -0.2657  0.4706
   90MOL   H17721715   3.207   0.383   7.657 -1.1551  1.1688  0.5958
   90MOL   H17821716   3.301   0.516   7.326  0.3462  1.4967  1.2336
   90MOL   H17921717   3.277   0.344   7.321 -0.9245 -1.4872  0.7093
   90MOL   H18021718   3.365   0.420   7.456 -0.6698  1.4515  1.1876
   90MOL   H18121719   2.976   0.463   7.194 -1.3674 -0.7128  0.7619
   90MOL   C18221720   3.168   0.600   7.529  0.1584 -0.0329 -1.0364
   90MOL   C18321721   3.089   0.666   7.653  0.4119  0.0379 -0.3763
   90MOL   C18421722   2.939   0.669   7.614  0.1129  0.0715  0.6707
   90MOL   C18521723   3.114   0.583   0.011 -0.4340 -0.1976  0.0546
   90MOL   O18621724   3.017   0.543   0.072 -0.0344  0.4398  0.3270
   90MOL   O18721725   3.244   0.564   0.048  0.7094  0.3191 -0.2603
   90MOL   H18821726   3.272   0.611   7.560 -0.9248  0.7987  2.5174
   90MOL   H18921727   3.163   0.679   7.453 -2.1030  0.1310 -0.7708
   90MOL   H19021728   2.933   0.716   7.516  1.4064  0.4373  0.7514
   90MOL   H19121729   2.875   0.720   7.686  1.9603  0.4890  2.0852
   90MOL   H19221730   2.898   0.568   7.606  1.3961 -0.6844  3.0823
   90MOL   H19321731   3.244   0.509   0.124  0.4272  1.3873  0.5253
   90MOL   C19421732   3.135   0.805   7.701 -0.0866 -0.3924 -0.2018
   90MOL   C19521733   3.108   0.944   7.639  0.2595  0.2428 -0.5679
   90MOL   C19621734   3.131   0.941   7.484  0.4947 -0.0269  0.5714
   90MOL   C19721735   2.965   1.004   7.665  0.0372  0.1761  0.2823
   90MOL   O19821736   2.885   0.947   7.727  0.1367 -0.2634  0.1914
   90MOL   O19921737   2.939   1.128   7.615 -0.2155  0.3114  0.1504
   90MOL   H20021738   3.119   0.818   0.041 -2.0131  0.7679 -0.5984
   90MOL   H20121739   3.243   0.799   7.693  0.1920  0.9922  2.2930
   90MOL   H20221740   3.120   1.042   7.444  1.0386 -0.6517 -1.2001
   90MOL   H20321741   3.058   0.878   7.433 -0.1239  0.6703  0.5957
   90MOL   H20421742   3.234   0.918   7.456  0.8721 -0.3872  2.2245
   90MOL   H20521743   2.850   1.151   7.637 -0.1560  0.0274  0.6991
   90MOL   C20621744   3.215   1.050   7.694  0.4071  0.0955  0.3396
   90MOL   C20721745   3.249   1.082   0.077 -0.0174 -0.0798  0.1589
   90MOL   C20821746   3.124   1.088   0.165 -0.0726 -0.2475  0.7321
   90MOL   C20921747   3.340   0.967   0.135  0.5189  0.0382  0.2311
   90MOL   O21021748   3.410   0.896   0.062 -0.4675  0.1859  0.4610
   90MOL   O21121749   3.345   0.972   0.273 -0.4492 -0.1222  0.4030
   90MOL   H21221750   3.302   1.002   7.650  0.0848 -0.6739  0.5438
   90MOL   H21321751   3.193   1.136   7.630 -1.5059 -1.2103 -0.7921
   90MOL   H21421752   3.074   0.991   0.174  1.0260 -0.8692  0.2315
   90MOL   H21521753   3.055   1.160   0.120  1.2092  1.5597  1.5956
   90MOL   H21621754   3.141   1.134   0.263 -0.4186  4.1205 -1.1571
   90MOL   H21721755   3.415   0.924   0.315 -1.4738 -0.8503  1.3082
   90MOL   C21821756   3.312   1.225   0.072 -0.4444  0.8071  0.8309
   90MOL   C21921757   3.435   1.268   0.154  0.2774  0.3281  0.3073
   90MOL   C22021758   3.456   1.418   0.111 -0.3246 -0.3727 -0.4332
   90MOL   C22121759   3.418   1.274   0.309 -0.1524 -0.1406 -0.1510
   90MOL   O22221760   3.483   1.208   0.390  0.1277 -0.0349 -0.2391
   90MOL   O22321761   3.313   1.354   0.345  0.3205 -0.3406 -0.0346
   90MOL   H22421762   3.321   1.255   7.734 -2.3450 -1.2058  0.0619
   90MOL   H22521763   3.232   1.291   0.107 -0.0131  1.9635 -0.2948
   90MOL   H22621764   3.538   1.468   0.161 -1.4693  0.1541  0.9475
   90MOL   H22721765   3.368   1.477   0.134 -0.6644 -0.7219 -0.8064
   90MOL   H22821766   3.467   1.427   0.003 -2.0463 -1.0919 -0.6862
   90MOL   H22921767   3.295   1.342   0.437 -1.4941  1.4500 -0.1251
   90MOL   C23021768   3.566   1.174   0.118 -0.1854 -0.8541 -0.3519
   90MOL   C23121769   3.711   1.235   0.122  0.3416 -0.8523  0.0955
   90MOL   C23221770   3.825   1.132   0.143  0.3202 -0.2871  0.4108
   90MOL   C23321771   3.733   1.321   7.767 -0.3369 -1.3978  0.6225
   90MOL   O23421772   3.780   1.438   0.002  0.4990  0.9077 -0.1477
   90MOL   O23521773   3.709   1.258   7.647  0.5331  0.7729  0.1010
   90MOL   H23621774   3.570   1.082   0.176  1.1427 -0.2249  0.5986
   90MOL   H23721775   3.556   1.114   0.027  0.9390 -2.7931  0.7660
   90MOL   H23821776   3.795   1.044   0.200 -1.7466  0.9300  1.2738
   90MOL   H23921777   3.901   1.176   0.207 -0.9642  0.2872  1.5684
   90MOL   H24021778   3.881   1.100   0.055  0.3682  3.5435 -1.0381
   90MOL   H24121779   3.666   1.177   7.666 -1.6253  1.8011 -0.2856
   90MOL   H24221780   3.699   1.300   0.208 -0.5678 -0.5027 -0.2921
   91MOL     C121781   5.671   4.333   2.896  0.4765 -0.0066 -0.2233
   91MOL     C221782   5.621   4.428   2.787  0.2266  0.0255 -0.1812
   91MOL     C321783   5.729   4.524   2.758  0.7299 -0.0865 -0.6734
   91MOL     C421784   5.610   4.342   2.650 -0.5925  1.3400 -0.4506
   91MOL     O521785   5.573   4.222   2.656  0.0558 -0.2637  0.3357
   91MOL     O621786   5.646   4.401   2.530  0.1240 -0.3898  0.1215
   91MOL     H721787   5.757   4.271   2.869 -0.5443 -1.6396  0.2285
   91MOL     H821788   5.591   4.275   2.941  0.5621  0.2960  0.3388
   91MOL     H921789   5.820   4.467   2.743  1.5384  1.1863 -0.6582
   91MOL    H1021790   5.746   4.595   2.839 -0.8171 -0.4941  0.0264
   91MOL    H1121791   5.726   4.587   2.669 -2.9076  1.4728  0.4568
   91MOL    H1221792   5.656   4.344   2.456  1.2451  1.9276 -1.5568
   91MOL    H1321793   5.714   4.401   2.970  0.3210  0.2252 -0.3466
   91MOL    C1421794   5.490   4.497   2.828  0.3158  0.2804  0.0374
   91MOL    C1521795   5.416   4.614   2.755 -0.0964  0.4410 -0.5002
   91MOL    C1621796   5.496   4.739   2.784 -0.1074 -0.9659  0.2310
   91MOL    C1721797   5.388   4.577   2.607 -1.1104 -0.1537 -0.3293
   91MOL    O1821798   5.419   4.662   2.522 -0.3487 -0.6394 -0.6207
   91MOL    O1921799   5.340   4.454   2.580  0.2626 -1.1432  0.3832
   91MOL    H2021800   5.428   4.408   2.819  3.2956 -1.8751  0.0011
   91MOL    H2121801   5.499   4.519   2.935  0.7444 -0.5692  0.1767
   91MOL    H2221802   5.443   4.830   2.755  0.0991 -0.4787  1.3254
   91MOL    H2321803   5.582   4.731   2.719  0.2216 -1.0362  0.6735
   91MOL    H2421804   5.551   4.751   2.877  1.3574 -1.5801 -0.5455
   91MOL    H2521805   5.327   4.461   2.487 -1.4877 -0.2445  0.6768
   91MOL    C2621806   5.275   4.626   2.822 -0.2350 -0.1878 -0.1957
   91MOL    C2721807   5.178   4.748   2.810 -0.2931  0.0462  0.6150
   91MOL    C2821808   5.042   4.687   2.863 -0.3574  0.2752  0.1936
   91MOL    C2921809   5.221   4.869   2.904 -0.0752  0.1686  0.3309
   91MOL    O3021810   5.236   4.861   3.025 -0.1937 -0.1950  0.6148
   91MOL    O3121811   5.244   4.990   2.846  0.9529 -0.4664  0.1530
   91MOL    H3221812   5.217   4.539   2.791  2.9310 -2.2926 -0.4682
   91MOL    H3321813   5.282   4.604   2.928  3.3206  0.4268 -0.2284
   91MOL    H3421814   5.047   4.671   2.970  1.3058 -0.3724  0.0290
   91MOL    H3521815   5.010   4.595   2.813 -1.1507  0.7460 -0.1877
   91MOL    H3621816   4.968   4.765   2.847 -1.0161 -0.1980  0.8944
   91MOL    H3721817   5.252   5.061   2.908 -0.8414  0.7862 -0.9880
   91MOL    C3821818   5.170   4.803   2.660  0.2642 -0.0445 -0.1487
   91MOL    C3921819   5.056   4.890   2.590  0.8057  0.2286  0.6671
   91MOL    C4021820   4.983   4.996   2.675 -0.9445  0.5068  0.8248
   91MOL    C4121821   5.122   4.977   2.483  0.1560 -0.5651 -0.6136
   91MOL    O4221822   5.235   5.023   2.494  0.1993  0.7478  0.1867
   91MOL    O4321823   5.036   5.011   2.388 -0.1675 -0.6610 -0.0531
   91MOL    H4421824   5.269   4.846   2.640  1.1074 -1.0242  1.7583
   91MOL    H4521825   5.179   4.724   2.585 -2.2203 -1.5849  1.1368
   91MOL    H4621826   5.053   5.064   2.723  3.1343 -1.7549 -1.6178
   91MOL    H4721827   4.925   4.950   2.755 -0.0191 -2.2649 -0.0689
   91MOL    H4821828   4.922   5.060   2.611 -0.5099  0.5039  0.4111
   91MOL    H4921829   5.062   5.070   2.318 -2.3428 -1.4421 -1.5840
   91MOL    C5021830   4.936   4.804   2.538  0.1881  0.1041  0.4047
   91MOL    C5121831   4.944   4.681   2.425 -0.0159 -0.2688 -0.7165
   91MOL    C5221832   5.060   4.710   2.328 -0.4796  0.1193 -0.2998
   91MOL    C5321833   4.975   4.559   2.509 -0.1303 -0.6996 -0.0717
   91MOL    O5421834   5.084   4.504   2.502  0.1316 -0.0270 -0.4321
   91MOL    O5521835   4.869   4.526   2.594 -0.1366 -0.8051  0.1188
   91MOL    H5621836   4.878   4.774   2.625 -0.8751  0.3822 -0.2055
   91MOL    H5721837   4.865   4.875   2.495  1.4293  1.1698  0.0667
   91MOL    H5821838   5.040   4.789   2.256  1.2620  1.2724  0.4286
   91MOL    H5921839   5.090   4.613   2.291  0.3405  0.0836  0.4241
   91MOL    H6021840   5.157   4.734   2.372 -0.2887  0.1689 -0.7474
   91MOL    H6121841   4.881   4.449   2.647 -0.4298 -0.8907  0.0645
   91MOL    C6221842   4.803   4.663   2.351 -0.4456  0.0744  0.3238
   91MOL    C6321843   4.764   4.560   2.237 -0.0010  0.4685 -0.1893
   91MOL    C6421844   4.788   4.410   2.288  0.5001  0.1357  0.3110
   91MOL    C6521845   4.614   4.579   2.207  0.0910 -0.0415 -0.0219
   91MOL    O6621846   4.532   4.484   2.206  0.7083 -0.9931  0.1006
   91MOL    O6721847   4.584   4.704   2.169 -0.2741 -0.1359  0.2920
   91MOL    H6821848   4.735   4.641   2.434 -0.0021  0.1823  0.7185
   91MOL    H6921849   4.770   4.761   2.318  0.4847  1.5543  3.5381
   91MOL    H7021850   4.893   4.392   2.310  0.4545 -0.8896 -0.2716
   91MOL    H7121851   4.746   4.334   2.222 -1.4518  0.3062  1.3051
   91MOL    H7221852   4.747   4.401   2.389 -2.1486 -0.0931 -0.7458
   91MOL    H7321853   4.495   4.713   2.138  0.2312  1.7302 -0.7042
   91MOL    C7421854   4.857   4.583   2.113  0.4604  0.1884 -0.0698
   91MOL    C7521855   4.815   4.548   1.965 -0.2007 -0.4882 -0.8698
   91MOL    C7621856   4.748   4.406   1.956 -0.6628 -0.3375 -0.5204
   91MOL    C7721857   4.724   4.666   1.914 -0.1329  0.7793 -0.2616
   91MOL    O7821858   4.746   4.784   1.926  0.1397  0.2621  0.4315
   91MOL    O7921859   4.617   4.612   1.856 -0.1566  0.1878  0.6327
   91MOL    H8021860   4.891   4.685   2.128  0.8680  0.2132 -1.1103
   91MOL    H8121861   4.946   4.525   2.138  0.7071  0.8546  0.6063
   91MOL    H8221862   4.824   4.339   1.998 -0.3759  0.5938  0.4698
   91MOL    H8321863   4.718   4.367   1.859  1.2211 -2.9946 -0.1130
   91MOL    H8421864   4.660   4.399   2.020 -0.9394 -0.0672 -0.8686
   91MOL    H8521865   4.618   4.518   1.865  0.9139  0.0790 -0.3648
   91MOL    C8621866   4.955   4.542   1.893  0.1174 -0.6853  0.3556
   91MOL    C8721867   4.996   4.557   1.741 -0.1202 -0.3724  0.0946
   91MOL    C8821868   4.894   4.481   1.664  0.4096  0.3988 -0.0021
   91MOL    C8921869   4.994   4.700   1.688  0.1123 -0.7336  0.1599
   91MOL    O9021870   4.975   4.794   1.763 -0.2890 -0.0361  0.7409
   91MOL    O9121871   5.012   4.708   1.551  0.2805  0.0243 -0.3719
   91MOL    H9221872   5.014   4.614   1.949 -0.6037 -0.3643  0.7076
   91MOL    H9321873   4.995   4.445   1.924 -0.1874 -1.3203 -1.1841
   91MOL    H9421874   4.920   4.473   1.559  0.9233  1.0291  0.0699
   91MOL    H9521875   4.804   4.542   1.664 -0.0434 -0.0982  4.6241
   91MOL    H9621876   4.871   4.379   1.692  3.7157 -0.5836 -0.6825
   91MOL    H9721877   4.994   4.794   1.517 -0.8310  0.3844  1.1405
   91MOL    C9821878   5.140   4.493   1.721 -0.2328 -0.0552 -0.3791
   91MOL    C9921879   5.277   4.545   1.782 -0.2916 -0.0147 -0.1077
   91MOL   C10021880   5.310   4.691   1.738  0.1382  1.1404 -0.6893
   91MOL   C10121881   5.281   4.555   1.939  0.1795 -0.0386  0.1754
   91MOL   O10221882   5.220   4.477   2.009 -0.5013  0.5240 -0.4458
   91MOL   O10321883   5.366   4.642   1.995 -0.5292  0.6333 -0.2695
   91MOL   H10421884   5.143   4.392   1.762 -2.1185  0.6653  1.6211
   91MOL   H10521885   5.152   4.476   1.614 -0.1959 -1.0636 -0.2222
   91MOL   H10621886   5.406   4.725   1.777 -0.2037 -1.1332  2.3559
   91MOL   H10721887   5.236   4.769   1.758  0.0932  0.6284  1.2451
   91MOL   H10821888   5.313   4.695   1.629 -0.9425  0.3832 -0.7536
   91MOL   H10921889   5.392   4.638   2.086 -1.3282 -1.7337 -0.1292
   91MOL   C11021890   5.408   4.467   1.742 -0.5557  0.6128  0.7587
   91MOL   C11121891   5.438   4.313   1.748  0.4231  0.6736  0.0425
   91MOL   C11221892   5.462   4.265   1.891 -0.5278 -0.5977  0.0093
   91MOL   C11321893   5.333   4.221   1.682  0.6156  0.5310  0.0358
   91MOL   O11421894   5.292   4.112   1.722  0.6544  0.0760  0.1954
   91MOL   O11521895   5.294   4.273   1.562  0.1374 -0.4592  0.3123
   91MOL   H11621896   5.430   4.504   1.641  0.6472  1.6557  1.3855
   91MOL   H11721897   5.490   4.519   1.793  0.9924 -2.3146  1.3723
   91MOL   H11821898   5.485   4.158   1.885 -2.6128 -1.0511 -0.2029
   91MOL   H11921899   5.373   4.261   1.955 -0.5632  1.1582  0.0929
   91MOL   H12021900   5.543   4.313   1.945 -1.5811 -0.2584  1.3194
   91MOL   H12121901   5.242   4.216   1.506  2.7400 -0.9707 -1.7073
   91MOL   C12221902   5.575   4.296   1.667 -0.5733 -0.4246  0.3870
   91MOL   C12321903   5.676   4.177   1.670 -0.0953  0.3408  0.2742
   91MOL   C12421904   5.767   4.161   1.792 -0.4445 -0.4149 -0.2519
   91MOL   C12521905   5.599   4.040   1.650 -0.8378  0.5700 -0.3741
   91MOL   O12621906   5.537   4.007   1.550  0.3154 -0.3953  0.3404
   91MOL   O12721907   5.619   3.945   1.751 -0.4590 -0.0524  0.1457
   91MOL   H12821908   5.532   4.305   1.568 -3.0370  0.0676  1.4444
   91MOL   H12921909   5.632   4.389   1.673 -4.8492  2.3625  0.0718
   91MOL   H13021910   5.704   4.147   1.879  0.4797 -0.3147  0.4367
   91MOL   H13121911   5.835   4.241   1.820 -1.0192 -0.3958  1.1421
   91MOL   H13221912   5.829   4.072   1.779 -1.9509 -1.6248  0.5571
   91MOL   H13321913   5.583   3.864   1.719 -2.1044  1.8684 -2.9963
   91MOL   C13421914   5.767   4.184   1.537 -0.8202 -0.0723  0.0822
   91MOL   C13521915   5.899   4.271   1.517  1.1596  0.0320 -0.5811
   91MOL   C13621916   5.885   4.411   1.587  0.1262 -0.0620  0.0158
   91MOL   C13721917   6.007   4.197   1.597 -0.1961  0.4321  0.1707
   91MOL   O13821918   6.066   4.242   1.695  0.7539 -0.3523 -0.3597
   91MOL   O13921919   6.043   4.077   1.547  0.0247  0.6603  0.5775
   91MOL   H14021920   5.785   4.084   1.498  0.6583  0.3622 -0.3634
   91MOL   H14121921   5.694   4.216   1.462 -0.4867 -1.1226 -0.6892
   91MOL   H14221922   5.969   4.480   1.588 -1.7835  2.3042  1.4847
   91MOL   H14321923   5.847   4.414   1.689 -1.6946  0.9202 -0.6606
   91MOL   H14421924   5.801   4.453   1.532  0.8177  0.7183 -0.4646
   91MOL   H14521925   6.109   4.031   1.596  0.9964  1.9595  0.5082
   91MOL   C14621926   5.932   4.286   1.362 -0.3440 -0.3382 -0.4726
   91MOL   C14721927   6.031   4.396   1.294 -0.3544  0.6352  0.0407
   91MOL   C14821928   5.960   4.535   1.296 -0.4539 -0.2861  0.6806
   91MOL   C14921929   6.160   4.394   1.375 -0.1990 -0.5026 -0.1518
   91MOL   O15021930   6.220   4.295   1.406  0.2326  0.2733 -0.3640
   91MOL   O15121931   6.192   4.517   1.424  0.4214 -0.1686  0.3707
   91MOL   H15221932   5.973   4.186   1.347 -0.8686 -0.1503 -3.3433
   91MOL   H15321933   5.845   4.283   1.296  0.9929 -1.0286 -2.2247
   91MOL   H15421934   5.866   4.530   1.241  0.1873 -1.4061 -0.3325
   91MOL   H15521935   6.025   4.617   1.263 -0.8867  0.9729  2.8551
   91MOL   H15621936   5.939   4.578   1.394  1.2177  2.2145  0.0087
   91MOL   H15721937   6.268   4.511   1.480 -2.4410  1.9021  4.7952
   91MOL   C15821938   6.066   4.363   1.139 -0.1707  0.0673 -0.0861
   91MOL   C15921939   6.119   4.464   1.033 -0.6806 -0.4802  0.1825
   91MOL   C16021940   6.001   4.559   0.989 -0.0296  0.1176  0.5444
   91MOL   C16121941   6.237   4.534   1.087 -0.7344 -0.1847  0.0567
   91MOL   O16221942   6.244   4.659   1.091  0.7272 -0.5222  0.1282
   91MOL   O16321943   6.343   4.451   1.117  0.3528 -0.0339 -0.7789
   91MOL   H16421944   6.133   4.277   1.134 -0.1482  0.1607 -1.7581
   91MOL   H16521945   5.968   4.337   1.101 -0.1924  1.8586 -1.3024
   91MOL   H16621946   6.013   4.582   0.884 -0.2108 -0.7369  0.3300
   91MOL   H16721947   6.007   4.658   1.034  0.3664  0.5922 -0.5560
   91MOL   H16821948   5.898   4.529   1.006 -0.0895  1.1756  2.1936
   91MOL   H16921949   6.420   4.500   1.139  0.3164 -0.9258  1.3861
   91MOL   C17021950   6.151   4.391   0.899 -0.1886  0.0645  0.0116
   91MOL   C17121951   6.249   4.444   0.780  0.9226 -0.0870 -0.2411
   91MOL   C17221952   6.260   4.600   0.756 -0.0974 -0.2904 -0.1855
   91MOL   C17321953   6.391   4.395   0.810  0.4525 -0.7057 -0.3589
   91MOL   O17421954   6.492   4.468   0.833  0.4774 -0.2118  0.1329
   91MOL   O17521955   6.397   4.261   0.829  0.0672  0.1357  0.0766
   91MOL   H17621956   6.185   4.292   0.928  1.4672  0.9631  1.3020
   91MOL   H17721957   6.059   4.370   0.846 -1.3976  1.3526  1.5325
   91MOL   H17821958   6.284   4.654   0.847 -0.4185 -1.8818  0.8604
   91MOL   H17921959   6.164   4.646   0.731  0.2041  0.3860 -0.1039
   91MOL   H18021960   6.338   4.618   0.681 -1.2104  3.4767 -0.5260
   91MOL   H18121961   6.486   4.235   0.844 -0.0195 -0.2624 -0.0906
   91MOL   C18221962   6.191   4.381   0.648  0.9321  0.0933  0.3924
   91MOL   C18321963   6.259   4.364   0.507 -0.2195  0.6011 -0.0125
   91MOL   C18421964   6.325   4.496   0.472 -0.2997  0.3888 -0.1002
   91MOL   C18521965   6.372   4.253   0.513  0.1012  0.0520 -0.8483
   91MOL   O18621966   6.488   4.276   0.491  0.0575  0.2239  0.1045
   91MOL   O18721967   6.334   4.138   0.571 -0.4777 -0.2429  0.0255
   91MOL   H18821968   6.156   4.283   0.679  3.1466 -0.3271  1.6397
   91MOL   H18921969   6.107   4.448   0.626  0.1050 -0.5182  1.6745
   91MOL   H19021970   6.412   4.505   0.538 -1.2504 -0.4452  1.2854
   91MOL   H19121971   6.252   4.577   0.482 -0.7581 -0.0038 -0.2744
   91MOL   H19221972   6.366   4.483   0.372 -0.6419  1.9476 -0.4696
   91MOL   H19321973   6.397   4.068   0.582  0.3938  0.1737 -2.1147
   91MOL   C19421974   6.151   4.306   0.406 -0.6207 -0.2782  0.7688
   91MOL   C19521975   6.058   4.408   0.323  0.0232 -0.0366  0.0037
   91MOL   C19621976   5.963   4.496   0.413  0.5326 -0.5072  0.5204
   91MOL   C19721977   6.136   4.495   0.224 -0.9958 -0.8399  0.6224
   91MOL   O19821978   6.224   4.448   0.155 -0.0397  0.4252 -0.2190
   91MOL   O19921979   6.112   4.626   0.235 -0.5275  0.8053 -0.1491
   91MOL   H20021980   6.211   4.255   0.331 -0.4069  1.4877 -0.2725
   91MOL   H20121981   6.087   4.235   0.459  1.1557 -2.8911 -0.4688
   91MOL   H20221982   5.896   4.560   0.356  1.5238  0.4597  0.4365
   91MOL   H20321983   6.013   4.574   0.469 -1.2017  1.6072 -0.7975
   91MOL   H20421984   5.903   4.445   0.489 -1.2959  2.2749  1.0292
   91MOL   H20521985   6.159   4.678   0.172  1.6867 -0.7210  0.1634
   91MOL   C20621986   5.957   4.322   0.243  0.4636 -0.0399  0.0405
   91MOL   C20721987   5.891   4.350   0.100 -0.0257  0.0227 -0.3614
   91MOL   C20821988   5.838   4.498   0.087 -0.1179  0.8670  0.1412
   91MOL   C20921989   5.997   4.329   7.756 -0.3672 -0.1589 -0.9280
   91MOL   O21021990   6.085   4.235   7.759 -0.0210 -0.1271 -1.0978
   91MOL   O21121991   6.006   4.423   7.658  0.0773  0.0269  0.3325
   91MOL   H21221992   6.002   4.222   0.243 -1.5437 -1.1076  5.2324
   91MOL   H21321993   5.879   4.298   0.316 -0.1674 -0.4812 -0.7748
   91MOL   H21421994   5.743   4.511   0.138  0.5210 -0.4708  1.6872
   91MOL   H21521995   5.802   4.511   7.751  0.9260 -0.3000 -0.3850
   91MOL   H21621996   5.910   4.577   0.106  0.9176 -0.2404  0.8195
   91MOL   H21721997   6.069   4.394   7.594  0.7682  1.1629  0.4864
   91MOL   C21821998   5.785   4.235   0.080  0.3196 -0.0856  0.4630
   91MOL   C21921999   5.670   4.247   7.744 -0.1508  0.2218  1.1162
   91MOL   C22022000   5.562   4.355   0.012  0.1479 -0.2710  0.1764
   91MOL   C22122001   5.716   4.281   7.598  0.1099 -0.1461 -0.2060
   91MOL   O22222002   5.660   4.371   7.531 -0.4938  0.8717 -0.1211
   91MOL   O22322003   5.818   4.208   7.545  0.6205  0.3191 -0.0763
   91MOL   H22422004   5.824   4.134   0.074 -1.0039 -0.7525  2.5344
   91MOL   H22522005   5.728   4.229   0.173 -0.9127 -0.3946 -0.3182
   91MOL   H22622006   5.596   4.458   0.012  0.9729 -0.5375  0.3481
   91MOL   H22722007   5.526   4.322   0.110  2.1072  0.6519  1.2331
   91MOL   H22822008   5.471   4.340   7.721 -1.0436  0.4389  1.8268
   91MOL   H22922009   5.827   4.231   7.454 -0.0285  0.6723 -0.0571
   91MOL   C23022010   5.599   4.113   7.740  0.1577  0.7912  0.2375
   91MOL   C23122011   5.554   4.044   0.108 -0.4248 -0.1785  0.2016
   91MOL   C23222012   5.411   3.970   0.105 -1.0601  0.1337 -1.0013
   91MOL   C23322013   5.660   3.942   0.163  0.2038 -0.3141 -0.0928
   91MOL   O23422014   5.665   3.916   0.281 -0.1308  0.0292 -0.4244
   91MOL   O23522015   5.737   3.877   0.068 -0.1855 -0.7335  0.2073
   91MOL   H23622016   5.508   4.120   7.680  0.0993 -1.5909 -0.0007
   91MOL   H23722017   5.669   4.045   7.690 -2.1555 -3.3305  2.3236
   91MOL   H23822018   5.385   3.934   0.006 -3.3209  0.9099 -0.7081
   91MOL   H23922019   5.342   4.041   0.151 -0.0617  0.8096 -0.5142
   91MOL   H24022020   5.408   3.876   0.161  0.0083 -0.8677 -2.5869
   91MOL   H24122021   5.797   3.815   0.107  0.2952 -0.3892  0.0115
   91MOL   H24222022   5.545   4.126   0.179 -0.2097 -0.2466  0.3092
   92MOL     C122023   3.495   4.612   3.295  0.0183 -0.3450 -0.0871
   92MOL     C222024   3.613   4.613   3.190 -0.5713 -0.2908  0.4596
   92MOL     C322025   3.657   4.466   3.168  0.7035  0.5100  0.0857
   92MOL     C422026   3.564   4.663   3.054 -0.1121  0.1936 -0.0926
   92MOL     O522027   3.639   4.722   2.975 -0.1522 -0.0690  0.2461
   92MOL     O622028   3.437   4.639   3.022  0.2319 -0.2976  0.6810
   92MOL     H722029   3.529   4.575   3.392  1.8684 -0.2777 -0.6904
   92MOL     H822030   3.398   4.566   3.274 -1.5462  2.0725  1.5214
   92MOL     H922031   3.711   4.414   3.247 -0.7025 -1.6455 -0.3291
   92MOL    H1022032   3.729   4.456   3.086  0.3006  2.5092 -0.5435
   92MOL    H1122033   3.568   4.405   3.156  0.9087 -0.3330  2.5492
   92MOL    H1222034   3.419   4.666   2.933 -0.4637 -0.0031  0.9101
   92MOL    H1322035   3.454   4.711   3.318  1.8528 -0.2770  3.1815
   92MOL    C1422036   3.740   4.693   3.235 -0.5924 -0.3010  0.3556
   92MOL    C1522037   3.722   4.847   3.286 -0.9448 -0.4939  0.2599
   92MOL    C1622038   3.622   4.926   3.203  0.0459  0.2926 -0.7484
   92MOL    C1722039   3.673   4.839   3.437 -0.3394  0.3534  0.5184
   92MOL    O1822040   3.570   4.898   3.477 -0.3537  0.3166 -1.2944
   92MOL    O1922041   3.761   4.783   3.521  0.7849  0.0937 -0.2582
   92MOL    H2022042   3.783   4.634   3.316 -0.3930 -0.0671  0.4221
   92MOL    H2122043   3.817   4.681   3.160  0.0944 -1.6483  1.2435
   92MOL    H2222044   3.665   4.941   3.105 -0.7686  0.7134 -1.0473
   92MOL    H2322045   3.620   5.030   3.238  1.6793  0.4946 -1.2157
   92MOL    H2422046   3.521   4.888   3.190  0.2521 -0.3842 -0.4176
   92MOL    H2522047   3.728   4.793   3.609  0.6793  2.3518 -0.5181
   92MOL    C2622048   3.872   4.904   3.283  0.2338 -0.1719 -0.2599
   92MOL    C2722049   3.918   5.054   3.295  0.2694 -0.3649  0.2107
   92MOL    C2822050   3.902   5.125   3.151  0.2416 -0.0932 -0.8214
   92MOL    C2922051   3.833   5.125   3.404 -0.6121 -0.2251 -0.2378
   92MOL    O3022052   3.826   5.078   3.515 -0.3423  0.6083 -0.4863
   92MOL    O3122053   3.778   5.245   3.368  0.2731  0.3962 -0.0637
   92MOL    H3222054   3.923   4.842   3.357 -1.1363  0.4862  1.2626
   92MOL    H3322055   3.907   4.879   3.183 -1.8119  0.7189 -1.2374
   92MOL    H3422056   3.955   5.220   3.148 -0.1099  0.1294 -0.0988
   92MOL    H3522057   3.797   5.144   3.135  0.5748  1.0692 -1.6102
   92MOL    H3622058   3.938   5.059   3.072  0.3800 -1.3341  0.2389
   92MOL    H3722059   3.714   5.277   3.430  0.5553  2.4928 -0.8054
   92MOL    C3822060   4.070   5.037   3.337 -0.1288 -0.4610 -0.1987
   92MOL    C3922061   4.189   5.138   3.326 -0.4412 -0.7342 -0.3246
   92MOL    C4022062   4.310   5.059   3.386  0.3439 -0.0657 -0.3518
   92MOL    C4122063   4.238   5.161   3.180 -0.2301  0.0875  0.5515
   92MOL    O4222064   4.241   5.272   3.136 -0.3454 -0.1274  0.0646
   92MOL    O4322065   4.268   5.051   3.104  0.3935  0.5584  0.3799
   92MOL    H4422066   4.078   5.002   3.440  0.1735  1.4099  0.4192
   92MOL    H4522067   4.101   4.947   3.283  1.1641 -0.5231  0.6420
   92MOL    H4622068   4.407   5.104   3.364  1.1564 -1.3478  0.5509
   92MOL    H4722069   4.306   4.959   3.343 -2.2132 -0.4360  0.6395
   92MOL    H4822070   4.300   5.069   3.495  0.7874  0.2851 -0.3397
   92MOL    H4922071   4.280   4.968   3.147  0.8230  0.0958 -0.6276
   92MOL    C5022072   4.159   5.263   3.412 -0.5702 -0.6135  0.3528
   92MOL    C5122073   4.228   5.405   3.404  0.3883  0.6365  0.1655
   92MOL    C5222074   4.388   5.398   3.393  0.0727 -0.2977 -0.3697
   92MOL    C5322075   4.160   5.492   3.288  0.2781 -0.1710 -0.5494
   92MOL    O5422076   4.060   5.461   3.222  0.3113 -0.3366  0.1894
   92MOL    O5522077   4.229   5.606   3.277  0.0495  0.0348 -0.0986
   92MOL    H5622078   4.052   5.281   3.400 -0.4740 -0.1373  0.2275
   92MOL    H5722079   4.173   5.229   3.514 -1.3565  0.6059  0.8756
   92MOL    H5822080   4.432   5.358   3.302  0.9628  1.1011 -0.5785
   92MOL    H5922081   4.435   5.352   3.479 -2.5821  0.1144  1.3396
   92MOL    H6022082   4.436   5.496   3.388 -0.7463  0.0141 -3.2570
   92MOL    H6122083   4.173   5.656   3.220  0.3922 -2.0095 -2.3353
   92MOL    C6222084   4.217   5.487   3.545  0.1532  0.0417  0.4302
   92MOL    C6322085   4.084   5.552   3.601  0.6042 -0.0389 -0.6073
   92MOL    C6422086   3.967   5.447   3.604 -0.1210 -0.8027  0.3492
   92MOL    C6522087   4.115   5.588   3.752  0.8752 -0.1578 -0.0617
   92MOL    O6622088   4.058   5.540   3.851 -0.6061 -0.8684  0.7290
   92MOL    O6722089   4.221   5.675   3.754  0.6679  0.3617 -0.3116
   92MOL    H6822090   4.252   5.418   3.622 -0.4112 -1.7849 -0.9199
   92MOL    H6922091   4.291   5.567   3.550  0.6382 -0.4796  1.6934
   92MOL    H7022092   3.998   5.361   3.663 -2.0911 -1.9728 -0.2385
   92MOL    H7122093   3.925   5.407   3.511  2.5157 -2.8414 -0.0389
   92MOL    H7222094   3.891   5.486   3.672 -0.8738  1.3454 -1.6386
   92MOL    H7322095   4.256   5.692   3.840 -2.4656  1.2010  0.8677
   92MOL    C7422096   4.027   5.684   3.519 -0.5919  0.0395  0.3120
   92MOL    C7522097   3.942   5.793   3.577  0.0946 -0.0041  0.4343
   92MOL    C7622098   3.841   5.750   3.679  0.3944 -0.0152 -0.4329
   92MOL    C7722099   4.013   5.905   3.638 -0.2176 -0.1612 -0.1203
   92MOL    O7822100   4.134   5.922   3.636 -0.0911  0.6415 -0.3179
   92MOL    O7922101   3.937   5.997   3.699 -0.7160 -0.7955 -0.0235
   92MOL    H8022102   4.110   5.732   3.468 -1.3118 -0.5945 -1.4950
   92MOL    H8122103   3.970   5.632   3.443  0.2817  2.3243 -1.9647
   92MOL    H8222104   3.779   5.821   3.733  0.9031  0.0115  0.1227
   92MOL    H8322105   3.896   5.693   3.754  0.9914  2.0228  0.7102
   92MOL    H8422106   3.764   5.683   3.639  0.8381 -0.0055 -1.3101
   92MOL    H8522107   4.001   6.066   3.713 -0.3701 -0.6298 -2.2143
   92MOL    C8622108   3.852   5.848   3.456 -0.1204  0.6568 -0.1523
   92MOL    C8722109   3.883   5.892   3.304 -0.0303 -0.3960  0.2827
   92MOL    C8822110   4.003   5.994   3.302 -0.1445 -0.6168  0.0547
   92MOL    C8922111   3.923   5.769   3.215  0.0754  0.4248 -0.5710
   92MOL    O9022112   4.033   5.761   3.161 -0.4347 -0.2846  0.0035
   92MOL    O9122113   3.836   5.664   3.212  0.3713 -0.0883 -0.0459
   92MOL    H9222114   3.777   5.770   3.455  0.3183  0.1995  1.2829
   92MOL    H9322115   3.798   5.934   3.497  0.2894  1.5012 -1.3258
   92MOL    H9422116   3.981   6.074   3.372 -1.7106  0.3694 -1.5115
   92MOL    H9522117   4.022   6.027   3.200  2.7478  0.9593  1.0567
   92MOL    H9622118   4.091   5.946   3.345 -0.7200 -0.7357  1.1135
   92MOL    H9722119   3.862   5.608   3.141  2.2531  0.7186 -0.0270
   92MOL    C9822120   3.747   5.964   3.252  0.1127  0.0129 -0.4145
   92MOL    C9922121   3.705   5.979   3.104  0.8296 -0.6718 -0.3963
   92MOL   C10022122   3.824   6.027   3.013  0.3883 -0.7250  0.9383
   92MOL   C10122123   3.660   5.840   3.045  1.0446  0.3147  0.5398
   92MOL   O10222124   3.711   5.789   2.947 -0.0534  0.4545  0.0992
   92MOL   O10322125   3.557   5.777   3.108  0.0580  0.0181  0.0236
   92MOL   H10422126   3.660   5.919   3.300 -0.9580  0.2778 -2.0802
   92MOL   H10522127   3.747   6.061   3.302 -0.9180  0.3773 -1.1056
   92MOL   H10622128   3.863   6.121   3.053 -1.2661  1.0211 -1.4262
   92MOL   H10722129   3.798   6.050   2.910 -0.6924 -1.9152  0.9264
   92MOL   H10822130   3.898   5.948   3.001  0.3101 -0.8217  1.0852
   92MOL   H10922131   3.540   5.703   3.051  1.9385 -0.4559  0.0441
   92MOL   C11022132   3.585   6.084   3.105  0.0795  0.0819 -0.5463
   92MOL   C11122133   3.540   6.177   2.978 -0.1021  0.9324 -0.5280
   92MOL   C11222134   3.415   6.246   3.026 -0.3243  0.4059 -1.0736
   92MOL   C11322135   3.642   6.295   2.959  0.0176  0.3713  0.3026
   92MOL   O11422136   3.736   6.323   3.035 -0.3775  0.3558 -0.1633
   92MOL   O11522137   3.608   6.367   2.851  0.5266  0.6244 -0.5527
   92MOL   H11622138   3.491   6.032   3.123  0.8696 -1.9434 -2.0724
   92MOL   H11722139   3.597   6.154   3.188 -0.7075 -1.6674  1.0756
   92MOL   H11822140   3.379   6.322   2.957  0.4202  0.5805 -1.2810
   92MOL   H11922141   3.449   6.303   3.113  1.9468 -1.5597 -0.6059
   92MOL   H12022142   3.336   6.190   3.076 -0.1792  2.2540  1.3009
   92MOL   H12122143   3.664   6.442   2.835  0.6307  0.6219 -0.1895
   92MOL   C12222144   3.521   6.095   2.841 -0.5896 -0.4478  0.7441
   92MOL   C12322145   3.390   6.081   2.763 -0.1008  0.0391  1.6355
   92MOL   C12422146   3.286   6.012   2.846  0.4951  0.3339  0.0961
   92MOL   C12522147   3.336   6.221   2.714 -0.3631  0.6084  0.2509
   92MOL   O12622148   3.223   6.267   2.737  0.5489  0.2850  0.1058
   92MOL   O12722149   3.428   6.289   2.643 -0.4641  0.2543 -0.3385
   92MOL   H12822150   3.599   6.120   2.770 -0.8125  0.0740  0.6822
   92MOL   H12922151   3.546   5.993   2.868  0.5412 -0.7080 -1.1840
   92MOL   H13022152   3.254   6.071   2.931  1.7118 -0.1051  0.8797
   92MOL   H13122153   3.326   5.918   2.885  2.1601  1.7933  2.0021
   92MOL   H13222154   3.197   5.988   2.789  0.2319  2.2146 -0.2906
   92MOL   H13322155   3.387   6.373   2.628  0.0121  0.2604 -1.6957
   92MOL   C13422156   3.429   5.978   2.650  1.3729  0.2299 -0.4581
   92MOL   C13522157   3.345   5.967   2.514 -0.8144  0.6005  0.6124
   92MOL   C13622158   3.189   5.984   2.523  0.0771 -0.0167  0.1268
   92MOL   C13722159   3.396   6.079   2.417  0.6458  0.6830 -0.3852
   92MOL   O13822160   3.323   6.163   2.368  0.5116 -0.1508 -0.6035
   92MOL   O13922161   3.535   6.086   2.408 -0.6081 -0.1733  0.0562
   92MOL   H14022162   3.535   5.985   2.626  1.8579  0.9545  1.7961
   92MOL   H14122163   3.421   5.878   2.693 -1.8810 -0.5066 -2.5861
   92MOL   H14222164   3.156   6.084   2.551  0.3359 -0.3060  1.4911
   92MOL   H14322165   3.142   5.905   2.581 -1.2887  0.7543  0.0984
   92MOL   H14422166   3.152   5.973   2.421  0.8847  3.3864 -0.6184
   92MOL   H14522167   3.551   6.166   2.360 -0.3275  0.0290  0.4836
   92MOL   C14622168   3.399   5.836   2.441  0.8717  0.3502  0.9135
   92MOL   C14722169   3.330   5.693   2.451 -0.5713 -0.1549 -0.4238
   92MOL   C14822170   3.307   5.653   2.605  0.2412 -0.0405  0.5631
   92MOL   C14922171   3.188   5.680   2.390 -0.6904 -0.2151  0.5951
   92MOL   O15022172   3.100   5.617   2.442  0.3963 -0.0820  0.1530
   92MOL   O15122173   3.175   5.743   2.268  0.2653  1.1668 -0.0958
   92MOL   H15222174   3.390   5.852   2.333  0.1445  0.5407  0.9952
   92MOL   H15322175   3.503   5.819   2.466  1.3320 -1.3087 -1.8655
   92MOL   H15422176   3.254   5.733   2.657 -1.5756 -0.5637 -0.4566
   92MOL   H15522177   3.403   5.636   2.655  0.3829  1.1179  0.7040
   92MOL   H15622178   3.258   5.557   2.619  0.7397  0.1143  3.8460
   92MOL   H15722179   3.091   5.725   2.228  0.1373 -0.5974  0.9372
   92MOL   C15822180   3.431   5.571   2.396 -0.0602 -0.0306  0.0970
   92MOL   C15922181   3.497   5.565   2.249 -0.3425 -0.2404  0.2157
   92MOL   C16022182   3.388   5.561   2.136 -0.0551 -0.6149 -0.3224
   92MOL   C16122183   3.589   5.692   2.236 -0.6388 -0.1056  0.1195
   92MOL   O16222184   3.578   5.769   2.139 -0.6424  0.3941  0.3830
   92MOL   O16322185   3.680   5.712   2.337 -0.1482  0.0158  0.0083
   92MOL   H16422186   3.501   5.552   2.477  0.7652 -0.9852 -0.8240
   92MOL   H16522187   3.374   5.478   2.397 -0.8041  0.4231  0.0444
   92MOL   H16622188   3.329   5.650   2.115 -0.0807 -0.7115 -0.6590
   92MOL   H16722189   3.324   5.474   2.149 -0.4308 -0.2965 -0.0279
   92MOL   H16822190   3.445   5.533   2.047 -0.4581 -1.7832 -0.2196
   92MOL   H16922191   3.721   5.797   2.337  0.3367 -0.1680  2.7353
   92MOL   C17022192   3.593   5.443   2.263  0.2018  0.2171 -0.2472
   92MOL   C17122193   3.676   5.381   2.139  0.2532 -0.8436  0.9816
   92MOL   C17222194   3.586   5.278   2.063  0.1530 -0.3804 -0.1882
   92MOL   C17322195   3.729   5.496   2.048  0.0138 -0.0059  1.0169
   92MOL   O17422196   3.829   5.560   2.086  0.9345  0.1437 -0.8508
   92MOL   O17522197   3.664   5.518   1.930  0.2309  0.4654  0.2596
   92MOL   H17622198   3.657   5.453   2.350  0.5395  0.4079 -0.5175
   92MOL   H17722199   3.537   5.352   2.286  1.4498  0.1015  2.5868
   92MOL   H17822200   3.635   5.219   1.985  1.2835 -1.6841  1.4648
   92MOL   H17922201   3.496   5.322   2.019  0.5761  1.9540  1.2336
   92MOL   H18022202   3.545   5.202   2.129  1.5295 -2.1291 -1.2984
   92MOL   H18122203   3.706   5.582   1.875  0.6816 -0.7719 -0.8410
   92MOL   C18222204   3.797   5.300   2.206  0.0145 -0.4123 -0.4674
   92MOL   C18322205   3.905   5.210   2.133 -0.1545 -0.7510 -0.0531
   92MOL   C18422206   3.934   5.263   1.988 -0.2225  0.1475  0.8344
   92MOL   C18522207   4.029   5.222   2.226  0.1699 -0.3419 -0.2074
   92MOL   O18622208   4.016   5.238   2.342 -0.0322 -0.0403 -0.4229
   92MOL   O18722209   4.142   5.241   2.156 -0.2805  0.5632 -0.1558
   92MOL   H18822210   3.846   5.385   2.254  0.6243 -0.3346 -1.2364
   92MOL   H18922211   3.749   5.244   2.287 -0.8221 -0.2751 -0.8638
   92MOL   H19022212   3.846   5.276   1.926  0.1518 -0.8931  0.0678
   92MOL   H19122213   4.007   5.208   1.929 -0.5214 -0.3572  0.9318
   92MOL   H19222214   3.976   5.363   1.999  1.1436 -0.2132 -0.8597
   92MOL   H19322215   4.209   5.266   2.218  1.5034  1.0241 -2.2392
   92MOL   C19422216   3.854   5.061   2.128  0.1862  0.3766 -0.4332
   92MOL   C19522217   3.912   4.947   2.041 -0.6635  0.1165 -0.8238
   92MOL   C19622218   3.849   4.819   2.105 -0.3160  0.1470 -0.2418
   92MOL   C19722219   3.860   4.964   1.896  0.2340 -0.3453  0.4103
   92MOL   O19822220   3.927   5.005   1.801  0.5644  0.1081 -0.0076
   92MOL   O19922221   3.726   4.935   1.889 -0.1417 -0.9588  0.1142
   92MOL   H20022222   3.858   5.032   2.233 -1.3879  1.3145 -0.1078
   92MOL   H20122223   3.747   5.066   2.112  0.1568  1.3274  0.0240
   92MOL   H20222224   3.875   4.829   2.210 -1.0429  1.0158 -0.1424
   92MOL   H20322225   3.880   4.725   2.059 -0.1540  0.2714 -0.3904
   92MOL   H20422226   3.741   4.828   2.096 -0.1896  1.0875 -0.9735
   92MOL   H20522227   3.702   4.932   1.798 -0.2943 -1.8339  0.1809
   92MOL   C20622228   4.071   4.947   2.041  0.1623  0.2235 -0.5420
   92MOL   C20722229   4.162   4.821   1.988  0.9448 -0.1548  0.5450
   92MOL   C20822230   4.288   4.895   1.933  0.2067 -0.4237 -0.1967
   92MOL   C20922231   4.208   4.735   2.105 -0.6463  0.3729 -0.5661
   92MOL   O21022232   4.323   4.708   2.122 -0.1106  0.4177 -0.1982
   92MOL   O21122233   4.103   4.691   2.183 -0.4675 -0.6358  0.2057
   92MOL   H21222234   4.107   5.034   1.985 -0.1281 -1.1815 -2.9417
   92MOL   H21322235   4.095   4.960   2.147 -0.9460 -1.1489 -0.1106
   92MOL   H21422236   4.264   4.948   1.841 -1.0069 -0.2507  0.2109
   92MOL   H21522237   4.376   4.833   1.917  1.2639  0.1193  3.1960
   92MOL   H21622238   4.315   4.972   2.005 -0.7117 -1.8456  1.7425
   92MOL   H21722239   4.142   4.653   2.261 -1.0423  0.0828  0.8514
   92MOL   C21822240   4.097   4.740   1.865 -0.2340  0.7438  0.1601
   92MOL   C21922241   4.158   4.597   1.821 -0.0823  0.7733  0.2015
   92MOL   C22022242   4.315   4.588   1.812  0.2572 -0.0179  0.1958
   92MOL   C22122243   4.114   4.482   1.910  0.2295 -0.3547  0.2814
   92MOL   O22222244   4.022   4.494   1.991  0.4918 -0.1444  0.3683
   92MOL   O22322245   4.186   4.366   1.895  0.2980 -0.1083 -0.2157
   92MOL   H22422246   4.000   4.710   1.904  0.8008 -1.0992  1.4056
   92MOL   H22522247   4.072   4.805   1.781  0.7022  1.0877  0.1426
   92MOL   H22622248   4.367   4.575   1.907 -1.9230  1.3297  1.6102
   92MOL   H22722249   4.355   4.681   1.771  0.0755 -0.8251 -1.8397
   92MOL   H22822250   4.343   4.503   1.751  0.0123 -1.6035  2.2424
   92MOL   H22922251   4.151   4.299   1.952  1.1528  0.3127  0.8099
   92MOL   C23022252   4.098   4.568   1.678 -0.2793 -0.4336  0.7226
   92MOL   C23122253   4.140   4.668   1.568  0.3461  0.1792 -0.1405
   92MOL   C23222254   4.220   4.615   1.452 -0.0041 -0.0959  0.6996
   92MOL   C23322255   4.026   4.753   1.504 -0.0722 -0.5578  0.0947
   92MOL   O23422256   3.918   4.702   1.482 -0.0575 -0.7401  0.0228
   92MOL   O23522257   4.060   4.886   1.495 -0.2172 -0.0870  0.7992
   92MOL   H23622258   4.131   4.471   1.640  1.1628  0.9047 -1.5891
   92MOL   H23722259   3.990   4.567   1.685 -0.6709  1.4168 -3.3601
   92MOL   H23822260   4.170   4.559   1.372  1.4054 -1.4043  0.7045
   92MOL   H23922261   4.310   4.562   1.483  0.0225 -1.2398 -1.2370
   92MOL   H24022262   4.257   4.700   1.395  1.2848 -0.2756  1.2485
   92MOL   H24122263   3.978   4.930   1.480 -0.2054 -0.6845 -1.1270
   92MOL   H24222264   4.201   4.745   1.614  1.7227  1.1542 -3.4267
   93MOL     C122265   6.487   2.939   2.082  0.1367  0.3296  0.6688
   93MOL     C222266   6.457   2.800   2.026  0.1809 -0.0093  0.1361
   93MOL     C322267   6.588   2.744   1.964  0.0670  0.1945  0.0631
   93MOL     C422268   6.412   2.714   2.147  0.4198  0.0354 -0.0812
   93MOL     O522269   6.295   2.678   2.162  0.4845 -0.0780 -0.3549
   93MOL     O622270   6.514   2.697   2.236  0.0463 -0.3909 -0.0245
   93MOL     H722271   6.519   3.003   2.000 -1.1545  0.1068 -0.0231
   93MOL     H822272   6.564   2.936   2.159  1.6172  1.2193 -0.7464
   93MOL     H922273   6.648   2.822   1.917  1.7671 -0.8498  0.4648
   93MOL    H1022274   6.583   2.648   1.912 -2.6472  0.5227 -0.3674
   93MOL    H1122275   6.647   2.689   2.037  0.7337 -1.2079 -1.4896
   93MOL    H1222276   6.483   2.643   2.308  2.5853 -1.4671  0.2970
   93MOL    H1322277   6.399   2.983   2.128  0.5155  0.6065  1.1361
   93MOL    C1422278   6.339   2.805   1.921  0.2876 -0.3589  0.2999
   93MOL    C1522279   6.328   2.899   1.802 -0.4180 -0.0282 -0.0181
   93MOL    C1622280   6.213   2.841   1.718  0.7752 -0.1886 -0.8330
   93MOL    C1722281   6.289   3.039   1.846  0.0768 -0.3764 -0.4509
   93MOL    O1822282   6.363   3.133   1.843  0.2365  0.4986  0.4369
   93MOL    O1922283   6.164   3.046   1.886 -0.8921  0.0926  0.6441
   93MOL    H2022284   6.333   2.699   1.895  0.4605 -0.1756 -0.4696
   93MOL    H2122285   6.246   2.823   1.975  0.6037  0.1681  0.6769
   93MOL    H2222286   6.189   2.922   1.650  1.8985 -0.2355 -1.3029
   93MOL    H2322287   6.131   2.820   1.786  2.0345 -1.0836  0.4396
   93MOL    H2422288   6.243   2.743   1.680 -1.6624 -1.2195 -0.2297
   93MOL    H2522289   6.139   3.137   1.895  2.1532  1.0553 -0.1127
   93MOL    C2622290   6.462   2.908   1.718 -0.1791 -0.6857 -0.8127
   93MOL    C2722291   6.483   2.943   1.565 -0.3528 -0.7775 -0.3712
   93MOL    C2822292   6.639   2.949   1.558 -0.2995 -1.3986  0.0908
   93MOL    C2922293   6.443   2.831   1.472  0.6043  0.2251 -0.2463
   93MOL    O3022294   6.515   2.749   1.416  0.5023 -0.5818 -0.1078
   93MOL    O3122295   6.314   2.836   1.440 -0.2863 -0.3125  0.0391
   93MOL    H3222296   6.538   2.966   1.770  0.4613 -1.4756 -0.8516
   93MOL    H3322297   6.499   2.805   1.719 -0.0932 -0.6516  0.3785
   93MOL    H3422298   6.675   3.033   1.616  1.9638 -1.8551 -0.6160
   93MOL    H3522299   6.679   2.960   1.457  1.6833 -0.6303  0.9280
   93MOL    H3622300   6.687   2.854   1.582 -1.0004 -1.3166  1.9089
   93MOL    H3722301   6.300   2.792   1.358 -0.7871  2.4695 -1.4334
   93MOL    C3822302   6.426   3.082   1.530  0.2901  0.2767 -0.2476
   93MOL    C3922303   6.454   3.166   1.395 -0.5582 -0.2024 -0.2073
   93MOL    C4022304   6.340   3.273   1.393 -0.1854 -0.1782 -1.2297
   93MOL    C4122305   6.587   3.239   1.411  0.7668 -0.4910  0.5987
   93MOL    O4222306   6.691   3.201   1.352 -0.0314 -0.0722 -0.3908
   93MOL    O4322307   6.585   3.352   1.485  0.4295  0.9728 -0.3218
   93MOL    H4422308   6.319   3.076   1.550  0.0193 -1.6465 -2.2355
   93MOL    H4522309   6.448   3.147   1.615 -0.7152  1.8799 -1.1900
   93MOL    H4622310   6.245   3.222   1.377  0.3318 -1.9705  1.0081
   93MOL    H4722311   6.350   3.351   1.318 -0.7694  0.2016 -0.9183
   93MOL    H4822312   6.329   3.326   1.488 -0.8133 -0.0233 -1.3859
   93MOL    H4922313   6.675   3.372   1.506 -0.0198 -0.4903  3.3855
   93MOL    C5022314   6.462   3.072   1.260  0.4948 -0.6548  0.3126
   93MOL    C5122315   6.418   3.124   1.119  0.2441 -0.7299  0.4238
   93MOL    C5222316   6.266   3.163   1.121 -0.0648 -0.4677 -0.0433
   93MOL    C5322317   6.494   3.259   1.082  0.0408 -0.4720 -0.0357
   93MOL    O5422318   6.444   3.363   1.037  0.5416 -0.0054 -1.0448
   93MOL    O5522319   6.627   3.234   1.075 -0.0739  0.1294  0.2198
   93MOL    H5622320   6.560   3.026   1.249  1.9052  2.1934  0.4356
   93MOL    H5722321   6.393   2.988   1.267 -1.8778  1.4120  3.5160
   93MOL    H5822322   6.221   3.162   1.022  0.8620  2.5604 -0.5379
   93MOL    H5922323   6.259   3.269   1.144 -1.2221 -0.2877 -1.1733
   93MOL    H6022324   6.202   3.108   1.191 -0.1469  0.4547  0.6113
   93MOL    H6122325   6.676   3.310   1.049  1.1377 -0.4430  0.7912
   93MOL    C6222326   6.454   3.014   1.005 -0.4165 -0.0818 -0.4125
   93MOL    C6322327   6.417   2.856   1.011  0.3054 -0.1935 -0.0515
   93MOL    C6422328   6.512   2.777   1.101 -0.4124  0.1613  0.5994
   93MOL    C6522329   6.270   2.851   1.060 -0.0017  0.2510  0.2745
   93MOL    O6622330   6.241   2.798   1.167 -0.1866  0.2592  0.3309
   93MOL    O6722331   6.184   2.891   0.965 -0.7676  0.1485 -0.5934
   93MOL    H6822332   6.406   3.055   0.917  2.6675  0.7136 -1.7918
   93MOL    H6922333   6.562   3.009   0.993 -0.3692 -1.8233  0.5565
   93MOL    H7022334   6.603   2.767   1.042 -0.4353 -0.4074  0.6535
   93MOL    H7122335   6.469   2.681   1.130 -0.8083  0.3017  0.4805
   93MOL    H7222336   6.552   2.826   1.189  0.1538  1.5790 -0.4405
   93MOL    H7322337   6.092   2.888   0.990 -0.6366 -3.9623 -0.2876
   93MOL    C7422338   6.436   2.791   0.869  0.0480 -0.8580  1.1940
   93MOL    C7522339   6.420   2.639   0.823  0.4534 -0.4294  0.1974
   93MOL    C7622340   6.451   2.624   0.673 -0.5701  0.2197 -0.0835
   93MOL    C7722341   6.517   2.549   0.895 -0.3600  0.6028  0.0802
   93MOL    O7822342   6.488   2.469   0.981  0.5318  0.1933  0.4123
   93MOL    O7922343   6.641   2.579   0.859 -0.5681  0.3151  0.0895
   93MOL    H8022344   6.375   2.847   0.798 -0.5307 -2.0576  0.7385
   93MOL    H8122345   6.536   2.825   0.843  0.2203 -1.7669  0.6472
   93MOL    H8222346   6.374   2.669   0.610 -2.4150 -0.0941  1.9038
   93MOL    H8322347   6.446   2.518   0.646 -2.2339 -0.1381  1.5383
   93MOL    H8422348   6.549   2.662   0.645 -0.6669  0.0235 -0.7125
   93MOL    H8522349   6.694   2.520   0.911 -0.6250 -0.8368 -1.1400
   93MOL    C8622350   6.271   2.598   0.860 -0.0783 -0.1018 -0.2893
   93MOL    C8722351   6.191   2.478   0.809  0.2536 -0.1956  0.5591
   93MOL    C8822352   6.157   2.498   0.657  0.3428  0.3694 -0.3569
   93MOL    C8922353   6.257   2.340   0.825 -0.2722  0.2105  0.0957
   93MOL    O9022354   6.242   2.262   0.915 -0.3437  0.3188  0.5239
   93MOL    O9122355   6.339   2.310   0.725 -0.1540 -0.2162 -0.0607
   93MOL    H9222356   6.264   2.594   0.968 -0.5576 -0.6211 -0.3352
   93MOL    H9322357   6.205   2.680   0.833  2.5098  2.8855  2.0957
   93MOL    H9422358   6.093   2.421   0.615  1.1059 -1.5130  1.8677
   93MOL    H9522359   6.244   2.516   0.595  0.7587  0.8032  0.3488
   93MOL    H9622360   6.100   2.591   0.653 -1.1271 -0.2994  2.8973
   93MOL    H9722361   6.379   2.225   0.734 -0.3653 -0.7957 -3.8319
   93MOL    C9822362   6.058   2.473   0.894  1.1290 -0.3542 -0.3853
   93MOL    C9922363   5.917   2.401   0.875 -0.0751 -0.6592 -0.1505
   93MOL   C10022364   5.859   2.412   0.730 -0.2851 -0.2884  0.0324
   93MOL   C10122365   5.921   2.255   0.921  0.6290  0.5819 -0.1799
   93MOL   O10222366   5.889   2.158   0.855  0.3426  0.5604  0.0692
   93MOL   O10322367   5.961   2.256   1.048 -0.2796 -0.1377  0.0216
   93MOL   H10422368   6.094   2.454   0.995 -0.3542  0.7016  0.3549
   93MOL   H10522369   6.027   2.577   0.889  1.3143 -0.1498  2.1226
   93MOL   H10622370   5.753   2.389   0.727 -0.3652  0.2095 -1.6211
   93MOL   H10722371   5.909   2.334   0.671  1.7118  0.9015  0.0980
   93MOL   H10822372   5.877   2.511   0.689 -0.3060  0.1902  1.1800
   93MOL   H10922373   5.959   2.169   1.086  3.1866 -0.6192 -0.7209
   93MOL   C11022374   5.828   2.502   0.966  0.5330  0.7740 -0.2621
   93MOL   C11122375   5.684   2.470   1.019  0.5124 -0.7635  0.5041
   93MOL   C11222376   5.585   2.421   0.907  0.7508 -0.6716 -0.8350
   93MOL   C11322377   5.691   2.366   1.136 -0.3605  0.8298 -0.6856
   93MOL   O11422378   5.651   2.250   1.135 -1.0168  0.5973 -0.1146
   93MOL   O11522379   5.742   2.424   1.242 -0.0366 -0.2617 -0.2190
   93MOL   H11622380   5.890   2.529   1.052 -1.6421 -1.9086  2.2632
   93MOL   H11722381   5.821   2.588   0.900  3.5241  1.0877 -0.2287
   93MOL   H11822382   5.612   2.318   0.881 -0.1366 -1.9036  2.7997
   93MOL   H11922383   5.561   2.478   0.818 -0.3982 -1.7910 -1.2475
   93MOL   H12022384   5.484   2.413   0.946  1.4195  3.9287  2.1387
   93MOL   H12122385   5.719   2.367   1.314  0.1536  0.0981  0.1306
   93MOL   C12222386   5.620   2.610   1.060 -0.1369  0.8029  0.0641
   93MOL   C12322387   5.662   2.732   1.159  0.3067  0.5586 -0.2336
   93MOL   C12422388   5.608   2.697   1.306  0.0641  0.1084  0.2677
   93MOL   C12522389   5.814   2.762   1.167 -0.2805 -0.6454 -0.7653
   93MOL   O12622390   5.885   2.842   1.111 -0.3659  0.3603 -0.7651
   93MOL   O12722391   5.876   2.679   1.254  0.2489  0.0875  0.2129
   93MOL   H12822392   5.596   2.663   0.968  0.8294 -1.4588 -1.5197
   93MOL   H12922393   5.520   2.584   1.093  0.3073 -1.8048 -0.5342
   93MOL   H13022394   5.608   2.796   1.353 -0.2060  0.9870 -1.5491
   93MOL   H13122395   5.669   2.628   1.364 -0.5861 -0.9280 -0.2643
   93MOL   H13222396   5.510   2.649   1.306 -0.0271  0.2605 -1.7042
   93MOL   H13322397   5.971   2.680   1.250  0.2324 -1.6931 -1.4202
   93MOL   C13422398   5.587   2.866   1.115 -0.6236 -0.0635 -0.2949
   93MOL   C13522399   5.573   2.920   0.970  0.0068 -0.9110 -0.5813
   93MOL   C13622400   5.697   2.902   0.870 -0.5337 -0.3694  0.6960
   93MOL   C13722401   5.446   2.864   0.898 -0.2941 -0.1503  0.0028
   93MOL   O13822402   5.364   2.792   0.959 -0.3943  0.3892  0.1017
   93MOL   O13922403   5.433   2.888   0.770 -0.0588 -0.6352  0.0536
   93MOL   H14022404   5.485   2.849   1.149 -1.1857 -0.3879 -2.0918
   93MOL   H14122405   5.629   2.946   1.176 -1.3816  0.5535 -0.5814
   93MOL   H14222406   5.730   2.800   0.849  2.4563  0.6333  0.2759
   93MOL   H14322407   5.788   2.936   0.919  0.2286  0.4904 -1.2527
   93MOL   H14422408   5.675   2.946   0.773 -0.8558 -2.2861 -0.1319
   93MOL   H14522409   5.354   2.845   0.739  0.8226 -2.8135  0.7059
   93MOL   C14622410   5.537   3.074   0.969 -0.2991  0.4843  0.3451
   93MOL   C14722411   5.646   3.193   0.995 -0.1354  0.5825  0.3799
   93MOL   C14822412   5.713   3.174   1.130 -0.1397 -1.0116 -0.0115
   93MOL   C14922413   5.760   3.203   0.883 -0.6159  0.1090  0.0478
   93MOL   O15022414   5.732   3.196   0.764 -1.0592 -0.4517 -0.6162
   93MOL   O15122415   5.885   3.222   0.940 -0.2145  0.1626 -0.0773
   93MOL   H15222416   5.477   3.102   0.882  0.3910  0.6994 -0.0713
   93MOL   H15322417   5.467   3.073   1.052  2.1434  1.5827  2.4765
   93MOL   H15422418   5.769   3.261   1.165 -3.3618  0.6507  1.2866
   93MOL   H15522419   5.785   3.093   1.137 -1.6307 -2.5723 -1.9661
   93MOL   H15622420   5.644   3.146   1.210  1.2729 -2.7570  0.6291
   93MOL   H15722421   5.953   3.229   0.875 -0.9926  0.7362 -0.8476
   93MOL   C15822422   5.571   3.335   1.005 -0.0344  0.1883 -0.2430
   93MOL   C15922423   5.451   3.381   0.916  0.1384 -0.9443 -0.1872
   93MOL   C16022424   5.318   3.326   0.978  0.5904 -0.0334  0.5284
   93MOL   C16122425   5.457   3.539   0.948 -0.8327 -0.0956  0.1712
   93MOL   O16222426   5.383   3.597   1.028  0.2718  0.0189 -0.4058
   93MOL   O16322427   5.563   3.606   0.879  0.5641 -0.0933  0.7525
   93MOL   H16422428   5.531   3.337   1.106  0.3168  1.5700 -0.1286
   93MOL   H16522429   5.654   3.404   0.989  0.7894 -0.8661 -0.6346
   93MOL   H16622430   5.231   3.371   0.931  0.2730 -2.5423 -1.4661
   93MOL   H16722431   5.298   3.339   1.084 -3.5937 -2.3402  0.1235
   93MOL   H16822432   5.297   3.221   0.956 -3.1730  1.0876 -1.6429
   93MOL   H16922433   5.563   3.699   0.896  0.5345  0.4906 -2.1414
   93MOL   C17022434   5.461   3.359   0.762 -0.1066 -0.5053 -0.8596
   93MOL   C17122435   5.346   3.343   0.662 -0.2445 -0.0105 -0.9975
   93MOL   C17222436   5.277   3.208   0.691 -1.2484  0.8772 -0.2501
   93MOL   C17322437   5.237   3.454   0.678  0.1934  0.6470 -0.1618
   93MOL   O17422438   5.258   3.569   0.718 -0.5721 -0.0600 -0.6969
   93MOL   O17522439   5.120   3.415   0.618 -0.1350 -0.2752 -0.2098
   93MOL   H17622440   5.524   3.440   0.725 -1.3834  0.9540  0.1123
   93MOL   H17722441   5.526   3.271   0.752  1.8899  0.7866  0.4362
   93MOL   H17822442   5.340   3.127   0.727 -1.2217  0.3329 -1.4955
   93MOL   H17922443   5.227   3.175   0.600  3.0482 -1.0063 -2.0614
   93MOL   H18022444   5.203   3.201   0.772  1.0150 -1.5425  1.6901
   93MOL   H18122445   5.034   3.452   0.607 -0.7592 -1.5080  0.3972
   93MOL   C18222446   5.396   3.325   0.514  0.3491 -0.0485  0.0059
   93MOL   C18322447   5.491   3.417   0.438  0.1388  0.1183 -0.6336
   93MOL   C18422448   5.446   3.565   0.459 -0.0265 -0.3785 -0.1460
   93MOL   C18522449   5.637   3.389   0.494  0.2011  0.1523  0.7406
   93MOL   O18622450   5.701   3.484   0.534 -0.1818  0.1803  0.1403
   93MOL   O18722451   5.673   3.259   0.493 -0.5732  0.8798 -0.2577
   93MOL   H18822452   5.430   3.222   0.504  0.8875  0.1551 -0.2747
   93MOL   H18922453   5.307   3.313   0.453  0.6275 -0.1225 -0.3854
   93MOL   H19022454   5.497   3.645   0.404 -1.2634 -1.1916 -2.5438
   93MOL   H19122455   5.459   3.588   0.565  0.0804 -1.5646  0.1023
   93MOL   H19222456   5.341   3.586   0.437  0.4015  0.4111 -1.4895
   93MOL   H19322457   5.745   3.256   0.555 -0.0224  0.2571 -0.9176
   93MOL   C19422458   5.476   3.388   0.281  0.6778  0.5063 -0.2144
   93MOL   C19522459   5.584   3.429   0.168 -0.2663  0.4119 -0.0361
   93MOL   C19622460   5.623   3.581   0.184  0.5253  0.2939 -0.0413
   93MOL   C19722461   5.713   3.340   0.174 -0.6032  0.9051 -0.3436
   93MOL   O19822462   5.824   3.391   0.160  0.0830  0.3958  0.0738
   93MOL   O19922463   5.700   3.206   0.178 -0.0980 -0.3037 -0.1081
   93MOL   H20022464   5.484   3.280   0.273 -0.5640  0.5081 -1.7072
   93MOL   H20122465   5.370   3.405   0.262  0.1996 -3.0077 -0.9980
   93MOL   H20222466   5.539   3.650   0.185 -0.7418 -1.2185 -0.0291
   93MOL   H20322467   5.712   3.608   0.126  0.5289  2.0709  0.7936
   93MOL   H20422468   5.671   3.591   0.281 -0.5830  1.4243  0.3989
   93MOL   H20522469   5.785   3.174   0.151 -0.1440 -0.3375 -0.2102
   93MOL   C20622470   5.516   3.397   0.029  0.5365  0.0028 -0.2657
   93MOL   C20722471   5.443   3.503   7.710 -0.1953  0.2435  0.2177
   93MOL   C20822472   5.315   3.560   0.018 -0.8504  0.5572  0.2693
   93MOL   C20922473   5.534   3.617   7.662 -0.3033 -0.7461  0.1887
   93MOL   O21022474   5.648   3.599   7.620 -0.0192 -0.2343  0.3993
   93MOL   O21122475   5.478   3.742   7.672 -0.5088  0.1481  0.5912
   93MOL   H21222476   5.597   3.356   7.735  2.0990 -0.3065  1.9706
   93MOL   H21322477   5.453   3.310   0.043  2.0789 -0.6424  3.0695
   93MOL   H21422478   5.246   3.612   7.719  1.0058  0.9092 -1.4465
   93MOL   H21522479   5.326   3.628   0.102  2.6447  0.1958  0.1850
   93MOL   H21622480   5.277   3.471   0.068 -1.6587  0.8280  0.1427
   93MOL   H21722481   5.544   3.806   7.652 -1.4752  0.9526 -0.1035
   93MOL   C21822482   5.397   3.423   7.581 -0.3593  0.6384  1.0376
   93MOL   C21922483   5.351   3.477   7.442  0.4305 -0.4502  0.2003
   93MOL   C22022484   5.295   3.357   7.370  0.3778 -0.4161  0.7150
   93MOL   C22122485   5.232   3.579   7.459  0.1804  0.8080 -0.6355
   93MOL   O22222486   5.252   3.699   7.475 -0.5705 -0.1312  0.3016
   93MOL   O22322487   5.106   3.526   7.462 -0.4146 -0.0047 -0.2006
   93MOL   H22422488   5.464   3.342   7.553 -2.0914 -0.6394  0.4977
   93MOL   H22522489   5.324   3.355   7.624  1.1496 -1.0950  0.8972
   93MOL   H22622490   5.235   3.295   7.436  0.8899 -0.7056  0.9056
   93MOL   H22722491   5.369   3.293   7.323 -1.2648 -1.4933 -0.4588
   93MOL   H22822492   5.241   3.387   7.280  0.9829  0.5965  0.6718
   93MOL   H22922493   5.046   3.598   7.469  0.0666  0.3896 -0.1115
   93MOL   C23022494   5.471   3.544   7.364 -0.0517  0.1278 -0.5550
   93MOL   C23122495   5.466   3.568   7.209 -0.5665  0.5631 -0.4663
   93MOL   C23222496   5.550   3.685   7.169  0.0691 -0.1747 -0.4031
   93MOL   C23322497   5.522   3.441   7.132 -0.1928 -0.5673 -0.3620
   93MOL   O23422498   5.596   3.361   7.191 -0.1886 -0.0751 -0.0043
   93MOL   O23522499   5.474   3.426   7.007  0.3748  0.2462 -0.2584
   93MOL   H23622500   5.481   3.643   7.409 -1.3197 -0.6612  1.5124
   93MOL   H23722501   5.565   3.499   7.396 -0.6024  0.0279  0.9279
   93MOL   H23822502   5.522   3.776   7.223  0.8037  1.3718 -2.5453
   93MOL   H23922503   5.547   3.709   7.062 -0.4366 -1.3313 -0.6569
   93MOL   H24022504   5.654   3.666   7.194  0.3335  0.5321 -0.9196
   93MOL   H24122505   5.507   3.347   6.967 -0.2104  1.4387 -3.2513
   93MOL   H24222506   5.363   3.590   7.182 -1.6086 -0.6574  2.2807
   94MOL     C122507   3.936   0.336   5.078  0.3097  0.4401  0.1173
   94MOL     C222508   3.848   0.245   5.168 -0.5849  0.0326 -0.2397
   94MOL     C322509   3.750   0.328   5.249 -0.3152  0.0677  0.3650
   94MOL     C422510   3.773   0.156   5.067  0.0236 -0.2931 -0.1048
   94MOL     O522511   3.651   0.174   5.047 -0.1193  0.7464  0.1509
   94MOL     O622512   3.855   0.063   5.001 -0.7350  0.2855 -0.5323
   94MOL     H722513   4.002   0.276   5.015  0.1843  0.2401  0.1778
   94MOL     H822514   3.999   0.404   5.135 -0.9839  2.2362 -0.5079
   94MOL     H922515   3.684   0.396   5.195  0.1747 -1.2498 -1.9542
   94MOL    H1022516   3.800   0.406   5.307 -0.3575  0.0521  0.4241
   94MOL    H1122517   3.683   0.261   5.303 -0.9764  0.9926  0.7058
   94MOL    H1222518   3.817   0.007   4.936  2.5128 -0.2240 -2.0425
   94MOL    H1322519   3.862   0.379   5.010  0.7415  1.1460  0.0829
   94MOL    C1422520   3.944   0.164   5.265  0.5477  0.2961  0.0546
   94MOL    C1522521   3.893   0.059   5.369  0.3539  0.4050  0.5482
   94MOL    C1622522   3.773   7.741   5.316 -0.3807  0.7718 -0.0529
   94MOL    C1722523   4.006   7.726   5.394 -0.0367  0.0994 -0.7143
   94MOL    O1822524   3.994   7.607   5.402  0.3782  0.3018 -0.2497
   94MOL    O1922525   4.122   0.020   5.421 -0.0949 -0.0810  0.2239
   94MOL    H2022526   4.014   0.105   5.205  0.3923  0.3959 -0.2275
   94MOL    H2122527   4.016   0.229   5.314  1.8233 -1.4974  0.6186
   94MOL    H2222528   3.806   7.703   5.219 -0.1792  0.3493  0.1771
   94MOL    H2322529   3.691   0.044   5.305 -0.0744  1.0222 -0.7284
   94MOL    H2422530   3.743   7.659   5.382  0.4401 -0.9821 -1.8177
   94MOL    H2522531   4.106   0.113   5.427 -3.2116 -0.6407  1.0859
   94MOL    C2622532   3.837   0.133   5.495  0.1422 -0.3128 -1.0298
   94MOL    C2722533   3.877   0.118   5.650  0.2596  0.8528  0.2036
   94MOL    C2822534   3.865   7.743   5.697 -0.3736 -0.4037  0.4065
   94MOL    C2922535   4.019   0.173   5.668 -0.4131  0.0689 -0.3874
   94MOL    O3022536   4.066   0.250   5.582  0.5971  0.0085  0.1987
   94MOL    O3122537   4.082   0.116   5.770 -0.0996 -1.0270  0.1027
   94MOL    H3222538   3.865   0.235   5.467 -0.5885 -0.1323 -1.1109
   94MOL    H3322539   3.728   0.135   5.497  0.1871  1.9932  0.7001
   94MOL    H3422540   3.778   7.697   5.649  1.6122 -0.7359 -3.0040
   94MOL    H3522541   3.854   7.731   5.805  4.0202  1.0739  1.0937
   94MOL    H3622542   3.955   7.696   5.659  0.2046  1.8293 -1.1262
   94MOL    H3722543   4.170   0.151   5.776  0.5215 -2.5844  0.2499
   94MOL    C3822544   3.763   0.198   5.729  0.0328  0.5280 -0.1101
   94MOL    C3922545   3.712   0.351   5.703 -0.5195  0.3516 -1.0423
   94MOL    C4022546   3.831   0.435   5.661  1.0900  0.5508  0.0409
   94MOL    C4122547   3.610   0.364   5.584 -0.8175 -0.6922  0.1011
   94MOL    O4222548   3.601   0.464   5.511 -0.4885  0.1328 -0.2029
   94MOL    O4322549   3.532   0.257   5.555 -0.2289  0.6323  0.1707
   94MOL    H4422550   3.677   0.130   5.733  1.7663 -1.7084 -0.0237
   94MOL    H4522551   3.797   0.208   5.832 -0.8140  0.1410  0.2135
   94MOL    H4622552   3.917   0.412   5.724  0.0741 -0.9801  0.8913
   94MOL    H4722553   3.805   0.541   5.663  1.9916  0.7685  0.7171
   94MOL    H4822554   3.858   0.422   5.556 -1.9130 -2.4594 -0.4304
   94MOL    H4922555   3.480   0.280   5.480  0.8011 -0.1531 -0.7978
   94MOL    C5022556   3.651   0.421   5.835  0.0947  0.4993  0.0986
   94MOL    C5122557   3.518   0.379   5.916 -0.4116  0.6121  0.1217
   94MOL    C5222558   3.390   0.409   5.825 -0.5854 -0.1069 -0.2809
   94MOL    C5322559   3.531   0.224   5.945 -0.1976  0.6395  0.0926
   94MOL    O5422560   3.456   0.139   5.895  0.2594 -0.0576 -0.5207
   94MOL    O5522561   3.616   0.194   6.037 -0.0079  0.8465 -0.0025
   94MOL    H5622562   3.725   0.428   5.914 -1.0830 -2.7799  1.5787
   94MOL    H5722563   3.634   0.525   5.808 -2.4583  0.3828  1.1113
   94MOL    H5822564   3.302   0.376   5.879  0.7435 -0.2123  1.8698
   94MOL    H5922565   3.387   0.352   5.732  0.7753 -1.2858  0.3750
   94MOL    H6022566   3.391   0.516   5.807  1.9975 -0.4538 -2.5555
   94MOL    H6122567   3.595   0.108   6.070 -1.1012  0.4936 -1.5179
   94MOL    C6222568   3.503   0.467   6.042  0.3580  0.3487 -0.3121
   94MOL    C6322569   3.381   0.474   6.145 -0.0039 -0.4467 -0.1133
   94MOL    C6422570   3.265   0.566   6.087  0.2050  0.9313 -0.1493
   94MOL    C6522571   3.332   0.329   6.168 -0.8240 -0.4510 -0.8238
   94MOL    O6622572   3.397   0.244   6.231 -0.7361  0.0501 -0.6613
   94MOL    O6722573   3.217   0.294   6.099 -0.1865 -0.1610 -0.0755
   94MOL    H6822574   3.597   0.462   6.098  0.0892  1.1247  0.2180
   94MOL    H6922575   3.512   0.567   6.000  1.8526  1.0002  1.4644
   94MOL    H7022576   3.278   0.577   5.979  1.8922  0.3981 -0.0236
   94MOL    H7122577   3.274   0.672   6.112  2.6714  1.3067 -2.3909
   94MOL    H7222578   3.166   0.523   6.092  1.3541 -1.5992  1.6580
   94MOL    H7322579   3.188   0.205   6.109  0.9058 -0.9303 -3.1255
   94MOL    C7422580   3.431   0.533   6.283  0.1472  0.3777  0.2115
   94MOL    C7522581   3.335   0.544   6.415  0.1872 -0.4435  1.3635
   94MOL    C7622582   3.308   0.409   6.474  1.0564  1.2317  0.3846
   94MOL    C7722583   3.426   0.615   6.523 -0.1983 -0.1530 -0.3452
   94MOL    O7822584   3.474   0.559   6.624 -0.0182 -0.1926  0.0162
   94MOL    O7922585   3.456   0.737   6.488 -0.1465 -0.8275 -0.5738
   94MOL    H8022586   3.524   0.483   6.310  0.4194  0.1844 -1.0739
   94MOL    H8122587   3.476   0.628   6.257  0.8936 -0.0909 -0.2243
   94MOL    H8222588   3.225   0.357   6.427  0.2094  2.3347  0.6453
   94MOL    H8322589   3.282   0.402   6.580  0.4699 -2.5664  0.0738
   94MOL    H8422590   3.386   0.333   6.476  0.3340  0.4058 -1.8073
   94MOL    H8522591   3.521   0.777   6.545 -1.4383 -3.2525  2.7301
   94MOL    C8622592   3.200   0.635   6.405 -0.0103  0.6451 -0.8489
   94MOL    C8722593   3.077   0.635   6.515 -0.8433 -0.4272  0.1445
   94MOL    C8822594   3.117   0.622   6.659 -0.3803  0.6249 -0.4075
   94MOL    C8922595   3.010   0.779   6.504 -0.0245  0.9343  0.1121
   94MOL    O9022596   3.023   0.877   6.579 -0.6334  0.0816  0.1221
   94MOL    O9122597   2.956   0.785   6.382 -0.1466  0.7884  0.5133
   94MOL    H9222598   3.230   0.740   6.404 -0.4244  0.7582 -1.3803
   94MOL    H9322599   3.150   0.628   6.309 -1.8224  3.1243 -0.1533
   94MOL    H9422600   3.035   0.659   6.721 -1.1978 -1.0569 -0.4652
   94MOL    H9522601   3.207   0.681   6.678 -1.2557  2.2992 -1.2856
   94MOL    H9622602   3.134   0.519   6.688  3.4086  1.1185 -0.7375
   94MOL    H9722603   2.929   0.874   6.365  0.6629  0.6554 -1.7375
   94MOL    C9822604   2.977   0.533   6.468 -0.7379  0.3742  0.6743
   94MOL    C9922605   2.841   0.489   6.537  0.9563  0.1477  0.9555
   94MOL   C10022606   2.873   0.405   6.662  0.2767 -0.7549 -0.0009
   94MOL   C10122607   2.750   0.606   6.578  0.2003  0.3159 -0.4311
   94MOL   O10222608   2.655   0.648   6.514  0.0147  0.0337  0.3028
   94MOL   O10322609   2.787   0.657   6.699 -0.5930  0.3631  0.6596
   94MOL   H10422610   2.950   0.548   6.364  1.6227 -1.4139 -0.2388
   94MOL   H10522611   3.029   0.437   6.461 -0.5544  0.2760  2.9674
   94MOL   H10622612   2.926   0.314   6.635 -1.8566 -1.6594 -1.3290
   94MOL   H10722613   2.785   0.371   6.717  0.3027 -1.3183 -0.2981
   94MOL   H10822614   2.917   0.468   6.738 -1.0995  1.2611 -0.8193
   94MOL   H10922615   2.740   0.736   6.721  0.6551  0.9499  1.2781
   94MOL   C11022616   2.752   0.401   6.433 -0.6743 -0.5846 -0.2854
   94MOL   C11122617   2.800   0.263   6.355 -0.4230 -0.1283  0.5803
   94MOL   C11222618   2.911   0.285   6.251  0.1424  0.2761  0.3802
   94MOL   C11322619   2.845   0.156   6.461 -0.0992  0.1462 -0.5460
   94MOL   O11422620   2.952   0.091   6.461 -0.1616 -0.4801 -0.1960
   94MOL   O11522621   2.743   0.132   6.554  0.3888 -0.2473  0.1335
   94MOL   H11622622   2.665   0.378   6.494  0.3135 -0.4131  1.2262
   94MOL   H11722623   2.724   0.467   6.352  0.8146 -0.6376 -0.8638
   94MOL   H11822624   3.014   0.286   6.286  0.1565  0.7364  0.3338
   94MOL   H11922625   2.896   0.372   6.187 -1.3144 -0.9164 -0.9389
   94MOL   H12022626   2.907   0.200   6.184 -2.1372 -0.0712  0.9164
   94MOL   H12122627   2.756   0.048   6.593  0.9347  0.2667  1.0572
   94MOL   C12222628   2.681   0.193   6.278  0.1432 -0.3499 -0.6393
   94MOL   C12322629   2.606   0.248   6.148  0.1747 -0.4672 -0.3147
   94MOL   C12422630   2.568   0.403   6.149 -0.7066 -0.9272 -0.0312
   94MOL   C12522631   2.703   0.226   6.031 -0.3926  0.2207  0.4920
   94MOL   O12622632   2.734   0.315   5.949  0.0827 -0.4211  0.1921
   94MOL   O12722633   2.745   0.103   6.024 -0.1033 -0.7289  0.1885
   94MOL   H12822634   2.704   0.088   6.263 -2.1508 -1.2200  1.5480
   94MOL   H12922635   2.596   0.186   6.346  1.1147  0.3752  0.6752
   94MOL   H13022636   2.661   0.457   6.135 -1.4342  0.6025  0.9519
   94MOL   H13122637   2.520   0.439   6.240 -1.7280 -1.7806 -0.2215
   94MOL   H13222638   2.502   0.427   6.065 -1.0362  4.1505  1.5238
   94MOL   H13322639   2.806   0.110   5.953 -1.0927  2.3123 -0.4334
   94MOL   C13422640   2.478   0.169   6.114  0.6283  0.3698  0.4995
   94MOL   C13522641   2.357   0.119   6.211  0.1724  0.5376  0.3453
   94MOL   C13622642   2.243   0.070   6.119 -0.2677 -0.3338 -0.5370
   94MOL   C13722643   2.394   7.764   6.303  0.3324 -0.7259  0.6172
   94MOL   O13822644   2.495   7.699   6.291  0.4817  0.1981 -0.0103
   94MOL   O13922645   2.285   7.730   6.385  0.0302  0.0285  0.3460
   94MOL   H14022646   2.436   0.210   6.022 -1.8252  1.8526  2.2265
   94MOL   H14122647   2.512   0.075   6.071 -1.1628 -0.7784  1.5306
   94MOL   H14222648   2.286   7.760   6.054  0.6197 -1.9786  1.9343
   94MOL   H14322649   2.199   0.142   6.050  0.1031  0.4644  0.0519
   94MOL   H14422650   2.158   0.031   6.176 -2.4214  1.8652 -2.1206
   94MOL   H14522651   2.223   0.034   6.376  0.4265  0.5146  1.3755
   94MOL   C14622652   2.314   0.241   6.305  0.2007  0.7384 -0.5356
   94MOL   C14722653   2.193   0.340   6.291 -0.1548  0.1363  0.9724
   94MOL   C14822654   2.197   0.414   6.149  0.6041 -0.2709 -0.6739
   94MOL   C14922655   2.058   0.272   6.302 -0.3152  0.6113 -0.1240
   94MOL   O15022656   2.042   0.154   6.332 -0.1985  0.4643  0.2596
   94MOL   O15122657   1.953   0.351   6.274  0.2303  0.3361 -0.0890
   94MOL   H15222658   2.296   0.201   6.405  1.0584  2.1451  0.1988
   94MOL   H15322659   2.404   0.299   6.325 -0.6627  1.6243  0.8610
   94MOL   H15422660   2.149   0.356   6.070  0.3515 -1.0508  0.0516
   94MOL   H15522661   2.290   0.458   6.113  1.4416 -0.3164  1.3825
   94MOL   H15622662   2.130   0.500   6.153  0.4618 -0.4218  0.3333
   94MOL   H15722663   1.872   0.302   6.271  0.3345  0.1043  0.9029
   94MOL   C15822664   2.208   0.463   6.387 -0.0900  0.7150  0.3847
   94MOL   C15922665   2.218   0.453   6.544 -0.6296 -0.0707 -0.5216
   94MOL   C16022666   2.346   0.377   6.588  1.3179  0.7252  0.4005
   94MOL   C16122667   2.226   0.602   6.588  0.1298  0.6704 -0.3789
   94MOL   O16222668   2.127   0.667   6.585  0.4296 -0.4411  0.7966
   94MOL   O16322669   2.354   0.647   6.596  0.3644 -0.6943 -0.3326
   94MOL   H16422670   2.295   0.521   6.356 -0.5576  1.7193  0.9496
   94MOL   H16522671   2.119   0.524   6.374 -1.6191 -1.6171 -0.4069
   94MOL   H16622672   2.431   0.412   6.529 -0.4983  2.8233 -1.0520
   94MOL   H16722673   2.345   0.268   6.588  0.9693  0.7292  0.7461
   94MOL   H16822674   2.376   0.402   6.689 -0.6463  0.9156  0.9546
   94MOL   H16922675   2.355   0.738   6.624 -0.2150 -1.4466  2.3131
   94MOL   C17022676   2.084   0.398   6.617 -0.4601  0.5260 -0.3193
   94MOL   C17122677   2.075   0.345   6.765  0.0119 -1.1242 -0.1933
   94MOL   C17222678   2.143   0.202   6.775  0.1984 -0.5665  0.2833
   94MOL   C17322679   2.138   0.436   6.869 -0.4775  0.4045  0.3030
   94MOL   O17422680   2.213   0.387   6.951  0.2704  0.3441  0.4792
   94MOL   O17522681   2.101   0.565   6.859  0.2420 -0.3625  0.1139
   94MOL   H17622682   2.011   0.476   6.599  0.3670  1.3375 -0.1565
   94MOL   H17722683   2.044   0.313   6.561 -1.6117  1.5718 -1.0927
   94MOL   H17822684   2.086   0.139   6.707  1.0285 -1.0539  0.0352
   94MOL   H17922685   2.129   0.164   6.876 -2.2530  0.3644  0.3416
   94MOL   H18022686   2.250   0.198   6.758  0.4371  3.2677  0.3751
   94MOL   H18122687   2.142   0.621   6.923 -0.5058  1.0920 -0.6797
   94MOL   C18222688   1.918   0.344   6.790  0.0392 -0.3449  0.3899
   94MOL   C18322689   1.843   0.277   6.920  0.4893  0.3914  0.1719
   94MOL   C18422690   1.940   0.289   7.044  0.4691 -0.4364 -0.0382
   94MOL   C18522691   1.721   0.366   6.946  0.0177  0.0227 -0.2227
   94MOL   O18622692   1.694   0.415   7.062  0.0562 -0.3397 -0.5362
   94MOL   O18722693   1.647   0.375   6.828  0.3765 -0.3562 -0.4750
   94MOL   H18822694   1.881   0.446   6.776  0.5374  0.1054  2.2420
   94MOL   H18922695   1.865   0.302   6.704  0.0288 -0.0199  0.2368
   94MOL   H19022696   2.032   0.231   7.040  1.2747  0.9089 -1.3161
   94MOL   H19122697   1.890   0.269   7.139 -0.5714 -1.0462 -0.7091
   94MOL   H19222698   1.954   0.397   7.057 -1.3127  0.1862 -2.8973
   94MOL   H19322699   1.563   0.409   6.854  0.1486 -0.7483 -0.6807
   94MOL   C19422700   1.801   0.130   6.879  0.0443  0.0089  0.1933
   94MOL   C19522701   1.738   0.032   6.984  0.4287  0.2816 -0.4037
   94MOL   C19622702   1.779   0.044   7.132  0.4772 -0.3576  0.3534
   94MOL   C19722703   1.582   0.056   6.980 -0.1564 -0.1563 -0.8578
   94MOL   O19822704   1.517   0.122   7.062 -0.2421 -0.0009 -0.2201
   94MOL   O19922705   1.531   0.001   6.867 -0.7750  0.1462 -0.4231
   94MOL   H20022706   1.730   0.125   6.797 -2.0957  0.6842  1.9323
   94MOL   H20122707   1.890   0.076   6.848  0.7559 -0.4186  2.8039
   94MOL   H20222708   1.885   0.054   7.154  0.7473 -0.1564 -0.9669
   94MOL   H20322709   1.730   7.735   7.191 -0.4063 -0.7267 -0.8256
   94MOL   H20422710   1.734   0.129   7.183  0.2416 -0.7516  0.8032
   94MOL   H20522711   1.440   7.754   6.890 -1.0687  0.7042 -1.2349
   94MOL   C20622712   1.779   7.653   6.939  0.3299 -0.5217  0.1339
   94MOL   C20722713   1.909   7.570   6.983  0.1385  0.6681 -0.3355
   94MOL   C20822714   2.037   7.644   6.950  0.1239 -0.2375  0.1955
   94MOL   C20922715   1.906   7.535   7.135 -0.0278 -0.0003  0.2933
   94MOL   O21022716   1.999   7.553   7.211 -0.3360  0.5497  0.2897
   94MOL   O21122717   1.789   7.479   7.172  0.2980 -0.2158 -0.8884
   94MOL   H21222718   1.692   7.589   6.953 -0.3247  0.4416  0.5822
   94MOL   H21322719   1.776   7.660   6.830  0.2300 -0.0163  0.1674
   94MOL   H21422720   2.030   7.751   6.969 -1.9487 -0.7270  2.3834
   94MOL   H21522721   2.058   7.624   6.845  0.9272  3.7303 -0.4930
   94MOL   H21622722   2.128   7.630   7.009  1.1479 -0.2114 -1.3399
   94MOL   H21722723   1.794   7.458   7.264  0.0708 -1.7403 -1.2148
   94MOL   C21822724   1.903   7.435   6.901  0.2635  0.1950  1.0511
   94MOL   C21922725   2.001   7.312   6.929  0.1220 -0.2554 -0.7128
   94MOL   C22022726   2.151   7.350   6.938 -0.7253 -0.1532  0.8026
   94MOL   C22122727   1.962   7.228   7.055 -0.4631 -0.5088  0.6239
   94MOL   O22222728   1.852   7.181   7.069 -0.1369  0.2155  0.1127
   94MOL   O22322729   2.055   7.244   7.153 -0.3172  0.1884 -0.5493
   94MOL   H22422730   1.809   7.383   6.886  1.3462 -1.6943  0.6634
   94MOL   H22522731   1.919   7.475   6.801 -0.1577 -2.2314 -0.0217
   94MOL   H22622732   2.185   7.396   6.845  0.9738  0.1065  1.5327
   94MOL   H22722733   2.211   7.261   6.962  1.5447  0.8932 -0.7706
   94MOL   H22822734   2.177   7.420   7.017  1.6630  0.8723 -0.8379
   94MOL   H22922735   2.016   7.219   7.236  0.6706 -1.8736 -0.6801
   94MOL   C23022736   1.988   7.227   6.798  0.2233 -0.4027 -0.2586
   94MOL   C23122737   2.059   7.088   6.788  0.5824 -0.2050  0.0309
   94MOL   C23222738   1.981   6.969   6.839 -0.3101 -0.0430 -0.3425
   94MOL   C23322739   2.100   7.063   6.645  0.3517 -0.0032  0.2935
   94MOL   O23422740   2.028   6.989   6.576  0.4133 -0.2413 -1.2751
   94MOL   O23522741   2.211   7.129   6.605 -0.1435  0.0405  0.0707
   94MOL   H23622742   1.880   7.212   6.787  0.2918 -0.3261 -1.0844
   94MOL   H23722743   2.015   7.297   6.719 -2.5686 -0.7912 -1.6329
   94MOL   H23822744   1.884   6.955   6.791  0.4318 -0.7761 -1.6309
   94MOL   H23922745   1.955   6.983   6.944 -0.2085 -1.4036 -0.1299
   94MOL   H24022746   2.030   6.872   6.829 -0.1253  0.1707 -1.5296
   94MOL   H24122747   2.229   7.131   6.512 -2.3454 -0.8846 -0.4040
   94MOL   H24222748   2.148   7.086   6.851  0.6294 -1.6862 -0.0697
   95MOL     C122749   1.606   6.353   0.556 -0.5481 -0.3158 -0.6650
   95MOL     C222750   1.474   6.271   0.602  0.7439  0.0318 -0.4885
   95MOL     C322751   1.493   6.123   0.580 -0.0655 -0.4324  0.9541
   95MOL     C422752   1.462   6.293   0.752 -0.2247  0.2545  0.6726
   95MOL     O522753   1.396   6.214   0.824  0.6883 -0.1581  0.0279
   95MOL     O622754   1.514   6.406   0.794  0.3823 -0.3850  0.0441
   95MOL     H722755   1.615   6.458   0.584 -0.3876 -0.6779  0.7162
   95MOL     H822756   1.607   6.372   0.449 -0.4738 -1.5188 -0.8881
   95MOL     H922757   1.416   6.062   0.626  0.8972 -0.8660  2.0476
   95MOL    H1022758   1.585   6.096   0.632  0.4222 -1.7043 -0.5429
   95MOL    H1122759   1.499   6.098   0.474 -0.1119 -0.6105  0.9936
   95MOL    H1222760   1.515   6.406   0.889  0.1440 -1.9359  0.0609
   95MOL    H1322761   1.698   6.296   0.568  0.8837  2.2820  1.3856
   95MOL    C1422762   1.344   6.310   0.515 -0.0645  0.0795  0.4850
   95MOL    C1522763   1.250   6.428   0.541 -0.7749 -1.2421 -0.3803
   95MOL    C1622764   1.346   6.551   0.512 -0.4117  0.5341  0.5949
   95MOL    C1722765   1.139   6.401   0.438 -0.1393 -0.1257  0.7186
   95MOL    O1822766   1.061   6.308   0.445  0.2261 -0.0262  0.0890
   95MOL    O1922767   1.146   6.494   0.340 -0.8937  0.0627  0.1054
   95MOL    H2022768   1.380   6.298   0.413  0.7905 -1.0385  0.9013
   95MOL    H2122769   1.281   6.224   0.535  1.1013 -0.0386  4.0410
   95MOL    H2222770   1.387   6.551   0.411 -0.5624  1.9990  0.5242
   95MOL    H2322771   1.430   6.540   0.580  0.7838  2.4808 -0.5111
   95MOL    H2422772   1.305   6.649   0.538  1.3264  1.0699  1.3410
   95MOL    H2522773   1.076   6.487   0.277  0.9765 -0.3313 -1.9377
   95MOL    C2622774   1.199   6.443   0.684 -0.3980  0.2732 -0.2338
   95MOL    C2722775   1.068   6.536   0.721 -0.3179  0.7637  0.1789
   95MOL    C2822776   1.065   6.665   0.636 -0.1065  0.2064 -0.0698
   95MOL    C2922777   0.935   6.454   0.694 -0.4649  0.3010 -0.3260
   95MOL    O3022778   0.836   6.498   0.636 -0.2688 -0.4154  0.5798
   95MOL    O3122779   0.949   6.327   0.740  0.4391 -0.4364 -0.2383
   95MOL    H3222780   1.172   6.349   0.730  1.6639 -1.1070 -1.7586
   95MOL    H3322781   1.288   6.485   0.731  0.2941 -0.6713 -0.6824
   95MOL    H3422782   1.138   6.735   0.677  0.1589 -0.5697  0.7987
   95MOL    H3522783   0.967   6.712   0.640 -0.6082 -0.9061  0.9004
   95MOL    H3622784   1.089   6.643   0.532  2.1123 -0.0773  0.4793
   95MOL    H3722785   0.870   6.276   0.730  0.0149 -0.3814  2.6521
   95MOL    C3822786   1.100   6.560   0.873  0.7425  0.4192 -0.1291
   95MOL    C3922787   1.004   6.612   0.988 -0.1232  0.1568  0.5181
   95MOL    C4022788   0.909   6.503   1.038  0.5158 -0.3276  0.6921
   95MOL    C4122789   1.098   6.641   1.101  0.4089 -0.0055 -0.0298
   95MOL    O4222790   1.074   6.600   1.217  0.7619 -0.4061  0.1750
   95MOL    O4322791   1.189   6.742   1.076 -0.2091 -0.2036 -0.5057
   95MOL    H4422792   1.133   6.465   0.914  0.8111 -0.2989 -1.8266
   95MOL    H4522793   1.194   6.615   0.873  0.5768  0.8049 -3.0163
   95MOL    H4622794   0.864   6.518   1.136 -0.2181  0.0788  0.2961
   95MOL    H4722795   0.970   6.413   1.040  0.1627 -0.5578  1.0936
   95MOL    H4822796   0.830   6.488   0.964  2.0625 -1.3870 -0.7786
   95MOL    H4922797   1.233   6.774   1.153 -0.1959 -1.5155  0.0446
   95MOL    C5022798   0.925   6.736   0.927  0.2906  0.2908 -0.1900
   95MOL    C5122799   0.805   6.800   1.005  0.0674 -0.4165 -0.1768
   95MOL    C5222800   0.681   6.703   1.031 -0.3681 -0.3229  0.3879
   95MOL    C5322801   0.856   6.863   1.136  0.9911  0.2525 -0.7485
   95MOL    O5422802   0.964   6.915   1.145 -0.0176  0.5769  0.7096
   95MOL    O5522803   0.765   6.874   1.237 -0.1774  0.1793  0.1685
   95MOL    H5622804   1.006   6.808   0.913  0.2056 -0.0415 -2.6021
   95MOL    H5722805   0.876   6.712   0.832 -1.5884  2.3980  0.2201
   95MOL    H5822806   0.635   6.670   0.937  1.8261  0.8084 -1.1335
   95MOL    H5922807   0.598   6.747   1.086  1.0737  1.3148  1.2990
   95MOL    H6022808   0.692   6.608   1.084  1.4413 -1.3521 -1.7411
   95MOL    H6122809   0.809   6.883   1.320  0.5700 -1.6079 -0.0133
   95MOL    C6222810   0.723   6.903   0.904 -0.9445 -1.1346  0.3600
   95MOL    C6322811   0.786   7.038   0.846 -0.0741  0.4231 -0.5123
   95MOL    C6422812   0.908   7.001   0.745  0.7400 -0.7644  0.0354
   95MOL    C6522813   0.677   7.103   0.754  0.1229 -0.3638 -0.4111
   95MOL    O6622814   0.670   7.097   0.633 -0.1125 -0.6274  0.0668
   95MOL    O6722815   0.580   7.171   0.820  0.6106  0.1139 -0.2958
   95MOL    H6822816   0.683   6.851   0.817 -2.3670  2.6239 -1.3306
   95MOL    H6922817   0.638   6.940   0.961  0.0880  0.3181  1.0099
   95MOL    H7022818   0.918   7.079   0.669  2.0879  0.1842  1.1654
   95MOL    H7122819   0.877   6.913   0.689  1.4389  0.1638 -1.8640
   95MOL    H7222820   1.008   6.983   0.783  1.0888  0.9750  0.0022
   95MOL    H7322821   0.520   7.221   0.766  1.4852  2.6475  0.9783
   95MOL    C7422822   0.842   7.129   0.956  0.5415  0.7756  0.1636
   95MOL    C7522823   0.862   7.284   0.938 -0.3866 -0.5413 -0.2573
   95MOL    C7622824   0.900   7.322   0.791 -0.0171  0.0780  0.6018
   95MOL    C7722825   0.734   7.357   0.983  0.1190  0.3466  0.4521
   95MOL    O7822826   0.668   7.427   0.900 -0.1184  0.3316 -0.3462
   95MOL    O7922827   0.696   7.334   1.111  0.4493 -0.3457  0.1924
   95MOL    H8022828   0.772   7.111   1.038  1.3020  1.0782  0.8812
   95MOL    H8122829   0.930   7.073   0.988 -0.9709 -0.5284  2.2515
   95MOL    H8222830   0.840   7.285   0.708  0.6067 -0.1591  0.2550
   95MOL    H8322831   1.001   7.285   0.774 -0.5027 -1.0320  0.1216
   95MOL    H8422832   0.905   7.427   0.763  1.0116 -0.2012 -0.3097
   95MOL    H8522833   0.605   7.355   1.120  0.6558 -0.0347  1.6552
   95MOL    C8622834   0.983   7.315   1.037  0.3895  0.1899 -0.4130
   95MOL    C8722835   1.035   7.463   1.088 -0.4561  0.4972  0.1487
   95MOL    C8822836   0.983   7.579   0.998  0.0862  0.1662  0.1327
   95MOL    C8922837   0.978   7.487   1.228  0.3108 -0.3101 -0.7853
   95MOL    O9022838   0.924   7.589   1.258 -0.0855  0.3857 -0.4935
   95MOL    O9122839   0.988   7.376   1.307  0.3444  0.4321 -0.6928
   95MOL    H9222840   0.973   7.253   1.126 -1.8839  1.2753  0.1401
   95MOL    H9322841   1.072   7.262   1.003  0.5703 -0.0274  0.3840
   95MOL    H9422842   1.044   7.669   0.999  1.1161 -0.5241  0.9221
   95MOL    H9522843   0.879   7.607   1.013  0.1345  0.8143 -0.7341
   95MOL    H9622844   0.971   7.555   0.892 -3.7594 -0.6443  0.6813
   95MOL    H9722845   0.936   7.397   1.384  1.3309  0.7087 -0.0888
   95MOL    C9822846   1.191   7.475   1.117  0.0039 -0.1214 -0.2218
   95MOL    C9922847   1.306   7.461   1.009 -0.6179 -0.3828 -0.0619
   95MOL   C10022848   1.259   7.504   0.868  0.2104 -0.3523 -0.3859
   95MOL   C10122849   1.426   7.551   1.042  0.3389  0.5470  0.2623
   95MOL   O10222850   1.421   7.653   1.113 -0.4903 -0.6028  0.4981
   95MOL   O10322851   1.532   7.521   0.968 -0.2610 -0.1362 -0.2485
   95MOL   H10422852   1.203   7.572   1.166  2.4655  0.2014 -1.4393
   95MOL   H10522853   1.219   7.425   1.210  0.2885  2.0263  0.8631
   95MOL   H10622854   1.181   7.441   0.825 -0.9835 -0.4269  1.8288
   95MOL   H10722855   1.341   7.510   0.796  2.7796  0.2621  2.4969
   95MOL   H10822856   1.234   7.610   0.870 -0.3609 -0.4987  3.3352
   95MOL   H10922857   1.596   7.590   0.977 -0.2904 -0.2526  1.0391
   95MOL   C11022858   1.361   7.317   0.985 -0.2974 -0.3665 -0.4386
   95MOL   C11122859   1.415   7.218   1.093 -0.0072  0.0309  0.8109
   95MOL   C11222860   1.502   7.281   1.196  0.3411 -0.1988  0.4849
   95MOL   C11322861   1.289   7.155   1.168 -0.0406  0.3078  0.2192
   95MOL   O11422862   1.280   7.170   1.292  0.1273 -0.4050  0.2319
   95MOL   O11522863   1.214   7.070   1.097 -0.2325 -0.7751 -0.0108
   95MOL   H11622864   1.284   7.270   0.925 -1.1419 -0.3413  0.6107
   95MOL   H11722865   1.431   7.313   0.901  0.0899  0.5696 -0.1623
   95MOL   H11822866   1.463   7.361   1.259  0.1739  1.1188 -1.2559
   95MOL   H11922867   1.598   7.317   1.158  0.1329 -0.0211  0.1318
   95MOL   H12022868   1.531   7.210   1.274  0.6943  0.1942  0.7167
   95MOL   H12122869   1.134   7.045   1.140  0.1095 -0.0840  1.0603
   95MOL   C12222870   1.488   7.094   1.020  0.3421  0.0437  0.0358
   95MOL   C12322871   1.638   7.079   0.975  0.0645 -0.4924 -0.5166
   95MOL   C12422872   1.674   7.206   0.888  0.5854 -0.1846  0.0600
   95MOL   C12522873   1.717   7.080   1.101  0.2190  1.0222 -0.5268
   95MOL   O12622874   1.692   6.999   1.189  0.0178 -0.4075  0.3059
   95MOL   O12722875   1.805   7.180   1.114 -0.4804  0.1768 -0.1810
   95MOL   H12822876   1.473   7.010   1.088  2.1224 -0.3848 -0.0758
   95MOL   H12922877   1.425   7.068   0.935  0.8689 -0.2141 -0.2727
   95MOL   H13022878   1.780   7.219   0.868  0.2939  0.9533 -0.7919
   95MOL   H13122879   1.641   7.302   0.928 -0.0662 -0.1275 -0.5839
   95MOL   H13222880   1.629   7.200   0.789  0.9177 -1.6918 -0.0077
   95MOL   H13322881   1.816   7.231   1.035  1.0170 -0.7191 -0.5747
   95MOL   C13422882   1.654   6.937   0.906 -0.7894 -0.1050 -0.0751
   95MOL   C13522883   1.788   6.883   0.845 -0.5892 -0.1564  0.5409
   95MOL   C13622884   1.758   6.743   0.789 -0.0688  0.1754 -0.0404
   95MOL   C13722885   1.828   6.985   0.730  0.4759 -0.4624 -0.0478
   95MOL   O13822886   1.916   7.068   0.739  0.0618 -0.3246  0.0368
   95MOL   O13922887   1.744   6.975   0.622  1.0709 -0.3939  0.6108
   95MOL   H14022888   1.610   6.865   0.975 -0.2162 -0.0547  0.3448
   95MOL   H14122889   1.573   6.935   0.833 -0.4241 -1.3781 -0.4748
   95MOL   H14222890   1.671   6.751   0.725 -0.2388  1.1110  0.3049
   95MOL   H14322891   1.734   6.658   0.853 -2.3472  0.7170 -0.1181
   95MOL   H14422892   1.834   6.712   0.718  0.3193  1.1844 -0.0773
   95MOL   H14522893   1.772   7.032   0.552 -1.6943 -2.1814 -2.0514
   95MOL   C14622894   1.909   6.880   0.948  0.1246 -0.0630 -0.0825
   95MOL   C14722895   2.037   6.787   0.948  0.4688 -0.0900 -0.2330
   95MOL   C14822896   1.992   6.644   0.991  0.1483 -0.6135  0.2850
   95MOL   C14922897   2.111   6.771   0.819 -0.8735 -0.0130 -0.4350
   95MOL   O15022898   2.073   6.811   0.712 -0.5285 -0.0870 -0.1321
   95MOL   O15122899   2.228   6.704   0.840  0.0205  0.4995 -0.0841
   95MOL   H15222900   1.956   6.978   0.943  0.2233 -0.1240 -0.4043
   95MOL   H15322901   1.865   6.872   1.047  1.1290  2.5059  0.6002
   95MOL   H15422902   1.939   6.597   0.909 -0.6389 -0.7461  0.8611
   95MOL   H15522903   1.924   6.650   1.076  1.4623  2.2766  1.2039
   95MOL   H15622904   2.072   6.572   1.007  0.8761 -0.1003 -0.9883
   95MOL   H15722905   2.289   6.717   0.769  1.3452 -2.0630  0.5278
   95MOL   C15822906   2.128   6.844   1.055 -0.7561 -0.3065 -0.3911
   95MOL   C15922907   2.235   6.957   1.051  0.3667 -0.5165  0.2940
   95MOL   C16022908   2.353   6.932   0.953 -0.5711  0.3568  0.4552
   95MOL   C16122909   2.168   7.091   1.023 -0.1944  0.0659  0.0638
   95MOL   O16222910   2.096   7.155   1.102  0.0260  0.2061  0.5939
   95MOL   O16322911   2.181   7.133   0.899  1.0771  0.0154  0.5725
   95MOL   H16422912   2.066   6.861   1.143 -0.8580  0.8129 -0.6718
   95MOL   H16522913   2.178   6.754   1.090 -1.0404  0.0918  1.0617
   95MOL   H16622914   2.435   7.002   0.972  0.5162 -0.9840  0.8080
   95MOL   H16722915   2.334   6.942   0.847  0.5044  0.7958  0.2973
   95MOL   H16822916   2.395   6.831   0.956 -0.7970  0.1917 -1.7865
   95MOL   H16922917   2.132   7.213   0.888 -0.3722 -1.2269 -2.5293
   95MOL   C17022918   2.305   6.976   1.193  0.4237  0.0386 -0.3129
   95MOL   C17122919   2.402   6.873   1.270 -0.5595 -0.7580 -0.0224
   95MOL   C17222920   2.382   6.717   1.226  0.6539  0.2497  0.6581
   95MOL   C17322921   2.547   6.903   1.215  0.5854 -0.1210  0.1448
   95MOL   O17422922   2.615   6.829   1.143  0.4191  0.6715 -0.9091
   95MOL   O17522923   2.591   7.027   1.246  0.3618  0.1827  0.3171
   95MOL   H17622924   2.339   7.079   1.193  1.4979 -0.2919  1.7882
   95MOL   H17722925   2.217   6.990   1.257 -1.5701 -0.4530 -2.8526
   95MOL   H17822926   2.397   6.696   1.120 -0.6692 -0.1104  0.5313
   95MOL   H17922927   2.281   6.684   1.249  0.5433 -0.7161 -1.0812
   95MOL   H18022928   2.448   6.648   1.277  0.3241 -1.9583 -1.8077
   95MOL   H18122929   2.679   7.029   1.211 -0.2475  1.2349 -1.1950
   95MOL   C18222930   2.409   6.893   1.427  0.4078  0.2231  1.0960
   95MOL   C18322931   2.311   6.816   1.526  0.1151  0.6140 -0.5651
   95MOL   C18422932   2.364   6.668   1.535  0.7012 -0.2475 -0.0247
   95MOL   C18522933   2.335   6.879   1.665 -0.2807 -0.3901 -0.4657
   95MOL   O18622934   2.393   6.816   1.756 -0.0490  0.1264 -0.8722
   95MOL   O18722935   2.273   7.001   1.688  0.5976  0.1794 -0.3448
   95MOL   H18822936   2.512   6.879   1.461  0.1708 -1.5020  1.1957
   95MOL   H18922937   2.395   7.000   1.442 -0.3332  0.3051 -0.1819
   95MOL   H19022938   2.327   6.599   1.458 -0.3741  0.0415  0.2294
   95MOL   H19122939   2.331   6.615   1.624  2.7272 -1.2373  0.1582
   95MOL   H19222940   2.472   6.659   1.541  0.7067 -0.3002 -0.1955
   95MOL   H19322941   2.307   7.038   1.768  0.4238  1.2922 -0.7742
   95MOL   C19422942   2.161   6.833   1.486  0.2041 -0.1781 -0.6369
   95MOL   C19522943   2.028   6.786   1.570  0.6596  0.0483  0.1684
   95MOL   C19622944   1.908   6.862   1.504  0.5787  0.0007 -0.4065
   95MOL   C19722945   2.014   6.636   1.529  0.2508 -0.6233  1.0366
   95MOL   O19822946   1.933   6.594   1.450 -0.2323  0.5321  0.5464
   95MOL   O19922947   2.104   6.558   1.586  0.0451  0.2396 -0.6243
   95MOL   H20022948   2.155   6.941   1.474 -0.9460 -0.2439 -0.6472
   95MOL   H20122949   2.152   6.801   1.383  0.1489  2.4304 -1.4647
   95MOL   H20222950   1.882   6.958   1.549 -2.2934 -1.8919  2.1952
   95MOL   H20322951   1.808   6.820   1.511  0.4583  0.6046  1.6599
   95MOL   H20422952   1.923   6.879   1.397 -2.1163  1.2331 -0.6536
   95MOL   H20522953   2.085   6.467   1.573  0.5113  0.2235 -1.1899
   95MOL   C20622954   2.034   6.814   1.721 -0.5046 -0.6833 -0.0316
   95MOL   C20722955   1.914   6.800   1.826  0.3026 -0.1794  0.7465
   95MOL   C20822956   2.000   6.819   1.964  0.2999  0.0960 -0.5522
   95MOL   C20922957   1.829   6.931   1.819  0.0258  0.4222  0.4354
   95MOL   O21022958   1.717   6.930   1.776  0.3517  0.1156 -0.3304
   95MOL   O21122959   1.893   7.047   1.856  0.0443 -0.6147 -0.2335
   95MOL   H21222960   2.120   6.757   1.756  0.1370  0.2826 -0.0180
   95MOL   H21322961   2.068   6.917   1.726  0.5884 -0.9425 -1.7293
   95MOL   H21422962   2.076   6.897   1.971  0.6206 -0.3797  1.7621
   95MOL   H21522963   2.064   6.734   1.989 -0.7009 -0.6835 -0.6352
   95MOL   H21622964   1.942   6.830   2.056 -0.0739  0.2054 -0.8028
   95MOL   H21722965   1.861   7.133   1.834  0.1995 -0.6581 -0.6380
   95MOL   C21822966   1.834   6.663   1.799 -0.2519 -0.3421  0.4547
   95MOL   C21922967   1.757   6.582   1.907 -0.6528  0.3856 -0.1583
   95MOL   C22022968   1.676   6.686   1.990  0.2154  0.1503 -0.1876
   95MOL   C22122969   1.657   6.495   1.830  0.2084 -0.9983 -0.5906
   95MOL   O22222970   1.534   6.502   1.847 -0.3959 -0.7701  0.4881
   95MOL   O22322971   1.717   6.413   1.740 -0.5945 -0.0723 -0.2570
   95MOL   H22422972   1.753   6.691   1.732 -0.0064 -1.8904 -0.5121
   95MOL   H22522973   1.896   6.588   1.750 -1.0038 -1.9130  1.8659
   95MOL   H22622974   1.604   6.633   2.053 -1.2459  0.3741 -1.6282
   95MOL   H22722975   1.622   6.757   1.927 -0.1334  0.6645  0.6828
   95MOL   H22822976   1.736   6.760   2.044  0.4252  0.8645 -1.3713
   95MOL   H22922977   1.647   6.373   1.692 -0.7423 -2.9003  2.1691
   95MOL   C23022978   1.842   6.491   2.002 -0.2131 -0.5450  0.6324
   95MOL   C23122979   1.949   6.396   1.929  0.0536 -0.3195  0.1835
   95MOL   C23222980   2.098   6.435   1.957  0.0155 -0.2881  0.2163
   95MOL   C23322981   1.920   6.246   1.972 -0.0448  0.1073  0.5124
   95MOL   O23422982   1.877   6.171   1.881  0.9346 -0.1392  0.2230
   95MOL   O23522983   1.957   6.205   2.101  0.3833 -0.6486 -0.1064
   95MOL   H23622984   1.883   6.559   2.078 -0.8236 -0.4555  0.8839
   95MOL   H23722985   1.773   6.434   2.065  0.3578  0.4240  2.1726
   95MOL   H23822986   2.156   6.345   1.935 -0.3198 -1.0037  2.1660
   95MOL   H23922987   2.116   6.462   2.061  1.0342 -2.7662  0.7307
   95MOL   H24022988   2.125   6.513   1.886  0.0138  0.6975  1.2921
   95MOL   H24122989   1.996   6.280   2.144 -0.9892  0.0876 -0.0956
   95MOL   H24222990   1.939   6.399   1.821  0.3549  2.3652  0.2125
   96MOL     C122991   4.764   4.470   4.000  0.3702 -0.1713 -0.5390
   96MOL     C222992   4.747   4.332   3.933 -0.4216 -0.7421  0.2489
   96MOL     C322993   4.624   4.359   3.847 -0.4534  0.1888  0.1427
   96MOL     C422994   4.868   4.305   3.843 -0.1103 -0.1879  0.1479
   96MOL     O522995   4.861   4.273   3.729 -0.0358  0.0019 -0.4115
   96MOL     O622996   4.984   4.325   3.904 -0.1990  0.2411  0.4639
   96MOL     H722997   4.853   4.468   4.063 -1.1201  0.3584  1.6435
   96MOL     H822998   4.677   4.490   4.063  0.6372 -2.0196  0.4437
   96MOL     H922999   4.647   4.438   3.775 -0.0410  1.4662  1.6414
   96MOL    H1023000   4.539   4.399   3.903 -1.4641  0.4426 -1.5485
   96MOL    H1123001   4.574   4.278   3.795 -1.8552  1.2394 -0.1830
   96MOL    H1223002   5.056   4.306   3.845  1.1607  0.2156  2.1063
   96MOL    H1323003   4.771   4.548   3.924  0.4395 -1.7735 -2.2023
   96MOL    C1423004   4.709   4.227   4.041 -0.1358  0.4616  0.4767
   96MOL    C1523005   4.720   4.067   4.008 -0.2899 -0.0694  0.0968
   96MOL    C1623006   4.676   4.034   3.863  0.1162 -0.0813 -0.2171
   96MOL    C1723007   4.870   4.031   4.025 -0.0648 -0.1442  0.1547
   96MOL    O1823008   4.940   3.975   3.934 -0.4839 -0.7090 -0.1418
   96MOL    O1923009   4.918   4.079   4.145  0.1759  0.4871  0.2509
   96MOL    H2023010   4.747   4.257   4.139 -1.6502  3.9808  0.0735
   96MOL    H2123011   4.601   4.232   4.057 -0.4506 -4.3038  0.5463
   96MOL    H2223012   4.704   3.929   3.851 -0.9240 -0.5143  1.0050
   96MOL    H2323013   4.740   4.080   3.788  2.0493 -0.8798  0.8920
   96MOL    H2423014   4.569   4.052   3.848 -0.2073 -1.1387  0.7579
   96MOL    H2523015   5.012   4.078   4.144  0.1974 -1.3881  1.4192
   96MOL    C2623016   4.635   3.981   4.106  0.2694  0.0774  0.3554
   96MOL    C2723017   4.580   3.834   4.095 -0.5367  0.1185 -0.2342
   96MOL    C2823018   4.472   3.823   3.982 -0.3018 -0.2895 -0.1528
   96MOL    C2923019   4.704   3.740   4.059 -0.1565  0.1999  0.3618
   96MOL    O3023020   4.816   3.750   4.097  0.1632 -0.0074  0.1054
   96MOL    O3123021   4.666   3.639   3.983 -0.1409  0.2368  0.1184
   96MOL    H3223022   4.688   3.985   4.201 -1.4101 -0.2945  1.3326
   96MOL    H3323023   4.550   4.044   4.132  0.1472 -0.2109  0.6692
   96MOL    H3423024   4.415   3.732   3.999 -0.7453  0.3120  1.6958
   96MOL    H3523025   4.512   3.800   3.883  0.3733 -1.7524  0.4361
   96MOL    H3623026   4.409   3.911   3.969  2.0738  1.5927  0.6397
   96MOL    H3723027   4.573   3.632   3.966 -0.1016 -0.6266  0.2442
   96MOL    C3823028   4.514   3.800   4.236 -0.3293  0.3666 -0.0701
   96MOL    C3923029   4.492   3.658   4.310  0.8487 -0.1420 -0.2608
   96MOL    C4023030   4.413   3.699   4.440  0.4428 -0.2517 -0.0968
   96MOL    C4123031   4.391   3.565   4.225 -0.1472  0.2742 -0.4058
   96MOL    O4223032   4.276   3.541   4.263  0.7232  0.2284 -0.3846
   96MOL    O4323033   4.447   3.523   4.108 -0.0199 -0.1770  0.1789
   96MOL    H4423034   4.555   3.866   4.313 -0.9862  1.9562 -1.0748
   96MOL    H4523035   4.414   3.841   4.223 -0.9442 -1.1361 -0.2390
   96MOL    H4623036   4.392   3.604   4.489  2.0192 -2.0726 -2.7773
   96MOL    H4723037   4.319   3.745   4.408  0.7753  0.5549  0.0769
   96MOL    H4823038   4.472   3.760   4.507 -2.0466 -0.4335  2.3354
   96MOL    H4923039   4.394   3.459   4.064 -1.7365  1.4640 -0.2000
   96MOL    C5023040   4.619   3.597   4.350 -0.1198 -0.2232  0.4058
   96MOL    C5123041   4.645   3.483   4.459 -0.4708  0.4481  0.6018
   96MOL    C5223042   4.540   3.372   4.453 -0.3499 -0.1844  0.3827
   96MOL    C5323043   4.778   3.421   4.418 -0.7502 -0.1139 -0.2437
   96MOL    O5423044   4.884   3.487   4.388  0.3976 -0.5377 -0.5823
   96MOL    O5523045   4.781   3.290   4.425  0.0711  0.5194  0.3482
   96MOL    H5623046   4.661   3.559   4.257 -0.0467 -0.2886  0.4657
   96MOL    H5723047   4.691   3.673   4.381  2.0590 -1.8182 -0.5932
   96MOL    H5823048   4.438   3.406   4.465  0.0580  0.6724  1.4892
   96MOL    H5923049   4.553   3.286   4.519 -2.1252  0.9196  2.2126
   96MOL    H6023050   4.536   3.325   4.354 -1.4751 -1.0395  0.8222
   96MOL    H6123051   4.867   3.262   4.396 -0.8512 -2.2693  0.1336
   96MOL    C6223052   4.655   3.547   4.601 -0.6364 -0.1326 -0.0591
   96MOL    C6323053   4.614   3.484   4.738  0.0057 -0.2415  0.7301
   96MOL    C6423054   4.465   3.460   4.745 -0.3806 -0.0959 -0.3695
   96MOL    C6523055   4.699   3.362   4.762  0.0342  0.7936 -0.4664
   96MOL    O6623056   4.650   3.255   4.798 -0.1148 -0.3899 -0.3416
   96MOL    O6723057   4.838   3.385   4.758  0.3323 -0.4358 -0.4314
   96MOL    H6823058   4.759   3.577   4.613 -0.3201 -1.6230  1.1963
   96MOL    H6923059   4.620   3.649   4.590  1.0678  0.4176 -0.4049
   96MOL    H7023060   4.428   3.371   4.695 -0.3097  0.1428 -0.8471
   96MOL    H7123061   4.401   3.538   4.704 -0.5572  0.7164  1.3820
   96MOL    H7223062   4.426   3.434   4.843  0.0355 -0.0188 -0.1834
   96MOL    H7323063   4.895   3.310   4.763  0.2862 -0.5811 -1.8850
   96MOL    C7423064   4.652   3.601   4.845 -0.4180  0.0785  0.1896
   96MOL    C7523065   4.660   3.585   5.001 -0.1250 -0.3732 -0.7058
   96MOL    C7623066   4.570   3.469   5.057  0.6130 -0.4168  0.3050
   96MOL    C7723067   4.809   3.546   5.043 -0.9088  0.6634 -0.4994
   96MOL    O7823068   4.848   3.431   5.064 -0.0345  0.4301  0.0321
   96MOL    O7923069   4.891   3.652   5.059 -0.1786  0.2089  0.3168
   96MOL    H8023070   4.746   3.641   4.808 -0.6483  0.2677 -0.1935
   96MOL    H8123071   4.590   3.688   4.823 -0.0675  0.2758 -0.0128
   96MOL    H8223072   4.462   3.479   5.041  0.8196  0.3555 -0.6050
   96MOL    H8323073   4.584   3.445   5.162  0.7590 -0.0318  0.3735
   96MOL    H8423074   4.599   3.371   5.019 -1.2455  0.0154 -2.3678
   96MOL    H8523075   4.976   3.614   5.075  0.5739  0.9240 -1.7807
   96MOL    C8623076   4.627   3.727   5.075  0.0257  0.4570 -0.0053
   96MOL    C8723077   4.488   3.799   5.095  0.1766  0.3211 -0.3054
   96MOL    C8823078   4.405   3.808   4.957 -0.7597 -0.2290 -0.0480
   96MOL    C8923079   4.398   3.714   5.192 -0.1273 -0.6549  0.6694
   96MOL    O9023080   4.291   3.668   5.153  0.0758  0.2042 -0.4288
   96MOL    O9123081   4.463   3.699   5.311  0.6578 -0.0490  0.3523
   96MOL    H9223082   4.665   3.705   5.175 -0.1543  0.5076  0.0739
   96MOL    H9323083   4.693   3.798   5.026  2.1038 -2.1277 -1.0503
   96MOL    H9423084   4.463   3.882   4.902 -2.5919  3.0030  2.2098
   96MOL    H9523085   4.309   3.854   4.981 -1.6421 -2.0722  0.0369
   96MOL    H9623086   4.406   3.712   4.905  2.0587  1.3276 -3.0146
   96MOL    H9723087   4.416   3.631   5.358 -1.3011 -0.6031 -2.3110
   96MOL    C9823088   4.533   3.937   5.162  0.0223  0.7123 -0.0714
   96MOL    C9923089   4.437   4.059   5.197  0.0343  0.0963 -0.2113
   96MOL   C10023090   4.392   4.136   5.075  0.9076  0.4392  0.0421
   96MOL   C10123091   4.315   4.008   5.270  0.1634 -0.3800 -0.2498
   96MOL   O10223092   4.315   3.996   5.395 -0.4987  0.1783  0.0515
   96MOL   O10323093   4.217   3.967   5.185 -0.1899 -0.4500  0.2913
   96MOL   H10423094   4.587   3.907   5.252 -1.4087  0.9823  0.8966
   96MOL   H10523095   4.613   3.973   5.097 -0.5260 -0.9913 -1.7207
   96MOL   H10623096   4.328   4.070   5.016  2.3859 -0.7641 -0.2513
   96MOL   H10723097   4.479   4.160   5.014 -0.4807  0.2378 -2.0782
   96MOL   H10823098   4.330   4.222   5.101  2.0852  1.2517  0.1802
   96MOL   H10923099   4.149   3.921   5.233  1.4570 -1.9273  1.2695
   96MOL   C11023100   4.539   4.151   5.279 -0.2148  0.1346 -0.3265
   96MOL   C11123101   4.523   4.297   5.321  0.4948 -0.8508  0.1625
   96MOL   C11223102   4.378   4.343   5.343  0.1600  0.1639  0.5766
   96MOL   C11323103   4.604   4.306   5.457  0.4647 -0.5146 -0.2909
   96MOL   O11423104   4.726   4.313   5.470  0.2346 -0.5289 -0.5679
   96MOL   O11523105   4.522   4.301   5.566  0.1195 -0.0658 -0.5827
   96MOL   H11623106   4.564   4.086   5.362 -1.1651 -0.6002 -0.6097
   96MOL   H11723107   4.630   4.149   5.218 -0.2013  1.0911 -0.3370
   96MOL   H11823108   4.388   4.444   5.382  0.6141 -0.0320  0.9703
   96MOL   H11923109   4.317   4.282   5.409  2.5278 -2.3604  0.5181
   96MOL   H12023110   4.323   4.355   5.249  0.3352  1.3052  0.6094
   96MOL   H12123111   4.576   4.298   5.643  0.4840  0.6336 -0.8085
   96MOL   C12223112   4.595   4.384   5.217  0.0911  0.0149  0.1035
   96MOL   C12323113   4.606   4.547   5.229 -0.1033  0.6249  0.1581
   96MOL   C12423114   4.626   4.609   5.364 -0.0183 -0.2949  0.3180
   96MOL   C12523115   4.735   4.579   5.155  0.2851 -0.2029 -0.2497
   96MOL   O12623116   4.765   4.511   5.053 -0.3950 -0.2153 -0.0753
   96MOL   O12723117   4.815   4.676   5.193 -0.0737 -0.2632  0.6352
   96MOL   H12823118   4.700   4.354   5.225 -0.3277 -1.3492  0.5917
   96MOL   H12923119   4.563   4.356   5.117  0.2862  0.3708 -0.0568
   96MOL   H13023120   4.720   4.572   5.404  0.7165  0.1448 -1.0007
   96MOL   H13123121   4.543   4.580   5.430  0.0677 -1.5100 -0.0925
   96MOL   H13223122   4.626   4.718   5.368  0.0855 -0.3407  2.5107
   96MOL   H13323123   4.870   4.707   5.122 -0.5457 -1.2021 -0.1527
   96MOL   C13423124   4.474   4.616   5.160  0.4714 -0.2186  0.5653
   96MOL   C13523125   4.464   4.758   5.095  0.2828 -0.8566  0.2647
   96MOL   C13623126   4.486   4.871   5.201  0.3244 -0.3429  0.1553
   96MOL   C13723127   4.568   4.775   4.977 -0.0533  0.6299 -0.1252
   96MOL   O13823128   4.665   4.849   4.981 -0.0877 -0.3807 -0.6205
   96MOL   O13923129   4.533   4.698   4.868 -0.4569  0.2005 -0.4488
   96MOL   H14023130   4.441   4.548   5.082  1.6975 -0.0117 -0.1495
   96MOL   H14123131   4.395   4.620   5.235  2.0136 -0.1087  2.2330
   96MOL   H14223132   4.441   4.967   5.177 -0.5938 -1.0444 -0.9530
   96MOL   H14323133   4.589   4.902   5.219 -0.0674  0.6369  0.7314
   96MOL   H14423134   4.447   4.845   5.299 -0.5425  0.2559 -0.0278
   96MOL   H14523135   4.595   4.692   4.797 -0.3580  0.0387 -0.3480
   96MOL   C14623136   4.325   4.767   5.026  0.3354 -0.4698 -0.5012
   96MOL   C14723137   4.184   4.785   5.102  0.3035  0.2281  0.1520
   96MOL   C14823138   4.157   4.702   5.226  0.6912 -0.2759  0.1278
   96MOL   C14923139   4.159   4.939   5.117 -0.0677  0.7551 -0.7702
   96MOL   O15023140   4.144   5.014   5.022 -0.0087  1.0215 -0.0477
   96MOL   O15123141   4.161   4.975   5.245  0.2480  0.0924 -0.0647
   96MOL   H15223142   4.332   4.846   4.950  0.9855 -1.2837 -1.3024
   96MOL   H15323143   4.316   4.675   4.969 -0.4206  1.0623 -2.9415
   96MOL   H15423144   4.066   4.722   5.283 -0.3051 -0.7038 -1.3072
   96MOL   H15523145   4.227   4.748   5.296  0.6283  1.6661 -1.0412
   96MOL   H15623146   4.173   4.596   5.209 -1.0667 -0.9286  2.2425
   96MOL   H15723147   4.123   5.061   5.253  1.0017  0.3483  0.7823
   96MOL   C15823148   4.080   4.736   4.987 -0.1769  0.0468  0.2590
   96MOL   C15923149   4.044   4.586   4.955  0.5001 -0.0423  0.6161
   96MOL   C16023150   4.158   4.475   4.957  0.5908  0.0879 -0.1141
   96MOL   C16123151   3.938   4.530   5.063 -0.3824 -1.2439  0.2533
   96MOL   O16223152   3.894   4.591   5.161  0.4595  0.1335 -0.4771
   96MOL   O16323153   3.886   4.410   5.022  0.3071 -0.3193  0.4201
   96MOL   H16423154   3.987   4.786   5.010 -0.2088  0.3331 -0.4716
   96MOL   H16523155   4.122   4.779   4.896 -0.8294  1.1555  0.4707
   96MOL   H16623156   4.130   4.380   4.912 -0.9742  0.4449  0.0546
   96MOL   H16723157   4.194   4.442   5.055  3.1012 -0.1100 -1.0770
   96MOL   H16823158   4.244   4.487   4.892 -0.0245 -1.0286 -1.1473
   96MOL   H16923159   3.821   4.376   5.082 -0.7683  0.5788 -0.2208
   96MOL   C17023160   3.991   4.589   4.803 -0.0121  0.0260  0.0708
   96MOL   C17123161   3.860   4.674   4.753  0.0294 -0.3382  0.0760
   96MOL   C17223162   3.743   4.661   4.852 -0.2578  0.0749  0.3363
   96MOL   C17323163   3.902   4.826   4.740 -0.4493 -0.1396  0.2378
   96MOL   O17423164   4.014   4.855   4.695 -0.1977  0.0795 -0.3436
   96MOL   O17523165   3.816   4.919   4.790 -0.1300  0.5408  0.4473
   96MOL   H17623166   4.073   4.625   4.741 -1.7616  1.4785 -1.4484
   96MOL   H17723167   3.981   4.484   4.776 -1.3267  0.6773 -2.0968
   96MOL   H17823168   3.726   4.560   4.887  2.0595  0.0137  1.3908
   96MOL   H17923169   3.656   4.717   4.817  0.0105  0.7217  0.6965
   96MOL   H18023170   3.762   4.722   4.940 -2.9362  0.0624  0.9386
   96MOL   H18123171   3.859   5.003   4.775 -0.6114  0.3389 -2.3771
   96MOL   C18223172   3.823   4.613   4.622  0.2009 -0.3124 -0.9552
   96MOL   C18323173   3.715   4.655   4.519 -0.1858  0.1512 -0.1549
   96MOL   C18423174   3.718   4.802   4.490 -0.1784 -0.7861 -0.8459
   96MOL   C18523175   3.775   4.591   4.390  0.4799 -0.7742  0.9012
   96MOL   O18623176   3.845   4.650   4.310 -0.2451  0.3483 -0.1497
   96MOL   O18723177   3.745   4.457   4.384  0.2468 -0.1469  0.1327
   96MOL   H18823178   3.919   4.614   4.570  0.0659  0.8629 -1.1912
   96MOL   H18923179   3.800   4.510   4.649 -2.1564 -0.0538 -1.8507
   96MOL   H19023180   3.674   4.832   4.395  1.8969  1.4584 -1.1291
   96MOL   H19123181   3.822   4.835   4.486 -0.2047 -0.2039  1.8883
   96MOL   H19223182   3.674   4.867   4.566  0.2874 -0.5387 -0.7871
   96MOL   H19323183   3.800   4.407   4.325  0.4806  0.8797 -0.5379
   96MOL   C19423184   3.576   4.601   4.563 -0.7145  0.0299 -0.1118
   96MOL   C19523185   3.447   4.615   4.476  0.2616 -0.5063  0.0092
   96MOL   C19623186   3.477   4.576   4.330 -0.1007 -0.1463 -0.0060
   96MOL   C19723187   3.342   4.512   4.532  0.0284 -0.0811 -0.2434
   96MOL   O19823188   3.298   4.418   4.469  0.3255 -0.3785 -0.2431
   96MOL   O19923189   3.315   4.532   4.670 -0.4529 -0.1080  0.1369
   96MOL   H20023190   3.576   4.497   4.596  0.8499 -0.1876 -0.7351
   96MOL   H20123191   3.546   4.642   4.659 -1.5381 -0.8427  0.0115
   96MOL   H20223192   3.532   4.650   4.272 -1.2229  1.5907  1.0940
   96MOL   H20323193   3.385   4.576   4.270 -0.2354  1.3118  0.1832
   96MOL   H20423194   3.512   4.475   4.313  0.8484 -0.1453  1.8555
   96MOL   H20523195   3.343   4.618   4.699 -1.8391  0.3933  0.0218
   96MOL   C20623196   3.388   4.755   4.488 -0.6548  0.1277  0.0513
   96MOL   C20723197   3.262   4.821   4.421 -0.3510 -0.5476  0.3823
   96MOL   C20823198   3.260   4.968   4.461 -0.0038 -0.2074 -0.3136
   96MOL   C20923199   3.298   4.834   4.270 -0.2589  0.1005 -0.1838
   96MOL   O21023200   3.236   4.786   4.173 -0.6752  0.7503  0.1770
   96MOL   O21123201   3.416   4.900   4.246  0.9534  0.1592 -0.3106
   96MOL   H21223202   3.367   4.772   4.594 -1.3603  1.9909 -0.3675
   96MOL   H21323203   3.468   4.828   4.472 -1.5549  1.7121  2.4284
   96MOL   H21423204   3.185   5.029   4.412 -0.1851  1.4483  1.9327
   96MOL   H21523205   3.359   5.010   4.444  0.1545 -0.3038  0.3314
   96MOL   H21623206   3.242   4.977   4.568 -4.2820 -0.6404 -0.9220
   96MOL   H21723207   3.434   4.886   4.154  1.6884  1.6932 -0.4171
   96MOL   C21823208   3.117   4.754   4.437 -0.3521 -0.5360 -0.2963
   96MOL   C21923209   3.006   4.803   4.538 -0.3204 -0.1225 -0.2145
   96MOL   C22023210   3.064   4.792   4.687  0.0895 -0.2770  0.6948
   96MOL   C22123211   2.957   4.953   4.513 -0.5060 -0.3655 -0.2409
   96MOL   O22223212   2.893   4.979   4.405 -0.0192  0.3826  0.8782
   96MOL   O22323213   2.995   5.043   4.611 -0.3259 -0.2619 -0.7065
   96MOL   H22423214   3.064   4.767   4.342  0.6548  0.5566 -0.7190
   96MOL   H22523215   3.139   4.648   4.449  2.0275 -0.0248  0.0654
   96MOL   H22623216   3.056   4.880   4.752 -0.5794  1.1501 -1.2596
   96MOL   H22723217   3.172   4.778   4.678 -0.1084 -0.4834 -1.8252
   96MOL   H22823218   3.016   4.713   4.744 -2.6030  0.6416 -0.2138
   96MOL   H22923219   2.958   5.128   4.600  2.4982  1.3139  1.2607
   96MOL   C23023220   2.877   4.715   4.545  0.1856  0.3596  0.4642
   96MOL   C23123221   2.900   4.563   4.573 -0.4095 -0.5622  0.5975
   96MOL   C23223222   2.802   4.509   4.677 -0.6054 -0.0067  0.4909
   96MOL   C23323223   2.893   4.481   4.440 -0.3535 -0.2166 -0.2024
   96MOL   O23423224   2.908   4.527   4.327 -0.2583  0.4190  0.3758
   96MOL   O23523225   2.874   4.351   4.458  0.0128  0.0961  0.3130
   96MOL   H23623226   2.810   4.765   4.614 -0.3771  1.4299 -0.8330
   96MOL   H23723227   2.814   4.720   4.457  1.9853  1.2266 -0.8226
   96MOL   H23823228   2.808   4.574   4.764 -0.9577  0.3316  0.2592
   96MOL   H23923229   2.832   4.407   4.702 -0.8490 -0.6027 -1.5277
   96MOL   H24023230   2.699   4.507   4.644  0.1871 -1.4459 -1.9964
   96MOL   H24123231   2.873   4.318   4.370 -0.4964  2.9895 -0.8191
   96MOL   H24223232   3.005   4.556   4.599 -0.2276  0.7769  0.2491
   97MOL     C123233   4.695   4.022   4.542 -0.0779 -0.0804  0.5407
   97MOL     C223234   4.786   4.053   4.668 -0.2575 -0.0997  0.1493
   97MOL     C323235   4.689   4.053   4.790 -0.1009  0.3352 -0.0855
   97MOL     C423236   4.885   3.939   4.691 -0.2229 -0.4738 -0.0601
   97MOL     O523237   4.873   3.824   4.649  0.0320  0.3554  0.2873
   97MOL     O623238   4.988   3.970   4.778  0.0465  0.3169 -0.0631
   97MOL     H723239   4.662   3.919   4.559  0.2572 -0.3969 -0.6160
   97MOL     H823240   4.759   4.018   4.453  0.5331  0.8489  0.9350
   97MOL     H923241   4.650   3.954   4.814 -1.4828  0.4097 -1.8662
   97MOL    H1023242   4.598   4.113   4.776  0.3627  0.7978 -1.2114
   97MOL    H1123243   4.741   4.080   4.882  0.0688 -0.3021  0.0105
   97MOL    H1223244   5.046   3.900   4.803  1.4286  1.4553 -0.0555
   97MOL    H1323245   4.616   4.097   4.537  2.4837  2.8785  2.8224
   97MOL    C1423246   4.850   4.200   4.660  0.1633 -0.1890 -0.4453
   97MOL    C1523247   4.938   4.263   4.545  0.7913  0.6600  0.3161
   97MOL    C1623248   5.046   4.161   4.497  0.2200  1.0532 -0.0757
   97MOL    C1723249   4.854   4.298   4.425  0.0469 -0.3074 -0.5481
   97MOL    O1823250   4.735   4.284   4.416  0.8631  0.1841 -0.8138
   97MOL    O1923251   4.923   4.344   4.316  0.1772  0.2188 -0.3370
   97MOL    H2023252   4.763   4.259   4.687 -0.7681 -2.3477  1.4258
   97MOL    H2123253   4.917   4.211   4.746  1.1884  2.3333 -1.4992
   97MOL    H2223254   5.096   4.122   4.585 -1.1519 -0.2164  0.1607
   97MOL    H2323255   5.113   4.212   4.428  0.5761  0.1581 -0.4002
   97MOL    H2423256   4.998   4.074   4.452  2.4748  0.0416 -0.6354
   97MOL    H2523257   4.852   4.381   4.266  1.5362  0.0757 -2.4359
   97MOL    C2623258   5.021   4.388   4.606  0.8467 -0.8361  0.5265
   97MOL    C2723259   4.964   4.530   4.644 -0.1944  1.0375 -0.3928
   97MOL    C2823260   4.893   4.603   4.522  0.4393  0.3306 -0.3445
   97MOL    C2923261   4.863   4.521   4.765 -0.1446  0.0212 -0.6340
   97MOL    O3023262   4.761   4.590   4.773  0.7837  0.3697 -0.4130
   97MOL    O3123263   4.907   4.440   4.863 -0.0382 -0.5756  0.1690
   97MOL    H3223264   5.071   4.350   4.695 -0.5997 -2.3629  0.7124
   97MOL    H3323265   5.100   4.400   4.532  0.9258 -1.9164  0.4206
   97MOL    H3423266   4.897   4.712   4.527  2.0477  0.2517  0.6976
   97MOL    H3523267   4.795   4.559   4.508 -0.0364  1.6652 -1.2681
   97MOL    H3623268   4.937   4.579   4.425  1.5632 -0.0351  0.2439
   97MOL    H3723269   4.850   4.442   4.938 -0.7089  0.6769 -0.3670
   97MOL    C3823270   5.091   4.617   4.687 -0.3614  0.7503  0.2465
   97MOL    C3923271   5.090   4.751   4.776  0.0915 -0.1770  0.0783
   97MOL    C4023272   4.977   4.848   4.742 -0.1241  0.0687  0.0880
   97MOL    C4123273   5.078   4.708   4.921  0.2979  0.0292  0.0880
   97MOL    O4223274   4.990   4.743   5.000  0.4830 -0.1131 -0.0708
   97MOL    O4323275   5.176   4.618   4.950  0.7034  0.0346  0.2702
   97MOL    H4423276   5.160   4.549   4.735  0.9175  1.4152 -0.6207
   97MOL    H4523277   5.141   4.638   4.592 -2.7921 -2.7795 -1.9247
   97MOL    H4623278   4.999   4.907   4.653 -0.9478  0.2027 -0.0340
   97MOL    H4723279   4.951   4.920   4.820  0.0180  1.9639 -1.5600
   97MOL    H4823280   4.877   4.807   4.729  0.2364 -0.3666 -1.4511
   97MOL    H4923281   5.195   4.587   5.037 -0.9589 -0.8225  0.3563
   97MOL    C5023282   5.230   4.821   4.752  0.1079  0.1116  0.5192
   97MOL    C5123283   5.288   4.957   4.811  0.9256 -0.2272 -0.4141
   97MOL    C5223284   5.400   4.991   4.713  0.5182 -0.2457  0.3283
   97MOL    C5323285   5.178   5.062   4.816 -0.2966  0.8266  0.1399
   97MOL    O5423286   5.112   5.069   4.920  0.4290  0.6913  0.2831
   97MOL    O5523287   5.158   5.139   4.703 -0.1815  0.0431  0.0474
   97MOL    H5623288   5.303   4.740   4.757  0.4229  0.2081 -1.7462
   97MOL    H5723289   5.220   4.839   4.645 -0.5431  1.0783  0.7391
   97MOL    H5823290   5.363   5.003   4.612  1.0490 -1.8044 -0.0640
   97MOL    H5923291   5.478   4.914   4.715 -0.5069 -1.2823  1.3893
   97MOL    H6023292   5.435   5.092   4.735 -2.3447  0.5152  1.6150
   97MOL    H6123293   5.103   5.209   4.734 -1.2730 -0.0248 -1.6905
   97MOL    C6223294   5.360   4.928   4.952 -0.4387  0.5580  0.0267
   97MOL    C6323295   5.448   5.036   5.035  1.1647 -0.4415 -0.0726
   97MOL    C6423296   5.363   5.172   5.061  0.4063 -0.2050  0.1070
   97MOL    C6523297   5.465   4.962   5.171  0.0137  0.2729 -1.0416
   97MOL    O6623298   5.505   4.843   5.185  0.1306 -0.0260 -0.8921
   97MOL    O6723299   5.444   5.047   5.281  0.5094 -0.1101  0.1215
   97MOL    H6823300   5.284   4.888   5.019  1.5527  0.3793  2.2280
   97MOL    H6923301   5.417   4.835   4.945  2.9154  2.2623  3.0677
   97MOL    H7023302   5.269   5.147   5.110  0.6622 -1.6690 -0.1354
   97MOL    H7123303   5.322   5.215   4.970 -1.4395 -0.4733  0.8055
   97MOL    H7223304   5.396   5.255   5.124  0.7501  0.1093 -0.4859
   97MOL    H7323305   5.459   5.006   5.365  0.9285  1.4578  0.8524
   97MOL    C7423306   5.597   5.042   4.974 -0.2335  0.3950 -0.6634
   97MOL    C7523307   5.704   5.151   5.018  0.1579  0.0075  0.4280
   97MOL    C7623308   5.842   5.084   4.981  0.3977  0.0825 -0.2388
   97MOL    C7723309   5.681   5.267   4.918  0.1384  0.6368  0.0005
   97MOL    O7823310   5.774   5.323   4.859  0.1613  0.3841  0.2903
   97MOL    O7923311   5.560   5.293   4.892  0.2952 -0.5109 -0.2511
   97MOL    H8023312   5.649   4.949   4.996  0.8547  1.4121  1.1041
   97MOL    H8123313   5.596   5.022   4.867  1.6217  0.7372 -0.7601
   97MOL    H8223314   5.868   5.004   5.050  2.9148  0.7728 -0.3158
   97MOL    H8323315   5.918   5.163   4.974  0.6151  0.1392  2.2785
   97MOL    H8423316   5.838   5.038   4.882  0.3038 -2.5496  0.9739
   97MOL    H8523317   5.498   5.247   4.947  0.3019 -0.4881 -0.2249
   97MOL    C8623318   5.703   5.196   5.169  0.2282  0.2564  0.3247
   97MOL    C8723319   5.783   5.332   5.220  1.1171 -0.4997 -0.6230
   97MOL    C8823320   5.933   5.316   5.202  0.5733  0.5500  0.0453
   97MOL    C8923321   5.736   5.460   5.150 -0.6619  1.0047 -0.8630
   97MOL    O9023322   5.808   5.538   5.087 -0.1664 -0.2192  0.3756
   97MOL    O9123323   5.599   5.463   5.147  0.5550  0.5636  0.0986
   97MOL    H9223324   5.601   5.216   5.204  0.0247  0.6077 -0.4606
   97MOL    H9323325   5.743   5.112   5.225 -0.5173 -0.8768 -0.8194
   97MOL    H9423326   5.974   5.215   5.214  1.6074  0.9316 -0.1682
   97MOL    H9523327   6.000   5.390   5.245  0.7717 -0.5096  1.6043
   97MOL    H9623328   5.965   5.319   5.097 -1.0432  0.8394 -0.4510
   97MOL    H9723329   5.573   5.526   5.082  0.7205  2.5274  1.8859
   97MOL    C9823330   5.751   5.331   5.378  0.0709  0.2796 -0.5734
   97MOL    C9923331   5.815   5.423   5.486  0.3448  0.0054 -0.4620
   97MOL   C10023332   5.943   5.352   5.543  0.2756 -0.3197  0.6095
   97MOL   C10123333   5.859   5.567   5.434 -0.2290  0.0110 -0.1373
   97MOL   O10223334   5.974   5.608   5.432  0.6134  0.0702 -0.0321
   97MOL   O10323335   5.751   5.647   5.390  0.2244 -0.8735  0.0245
   97MOL   H10423336   5.643   5.339   5.381  0.1746  1.7200 -0.1826
   97MOL   H10523337   5.775   5.229   5.409  0.9701  0.6368 -0.0590
   97MOL   H10623338   5.945   5.255   5.593 -0.6207 -0.3880  0.5159
   97MOL   H10723339   6.002   5.416   5.608 -1.5487  2.0763 -0.0594
   97MOL   H10823340   6.003   5.331   5.454  0.3425  1.8412  0.1181
   97MOL   H10923341   5.774   5.729   5.349 -1.8312  0.0204  0.6034
   97MOL   C11023342   5.710   5.462   5.595 -1.4823  0.1178 -0.5469
   97MOL   C11123343   5.676   5.358   5.715 -0.3236  0.6504 -0.9360
   97MOL   C11223344   5.650   5.213   5.660 -0.1037 -0.3144  0.1729
   97MOL   C11323345   5.781   5.349   5.829 -0.2697  0.3488  0.9127
   97MOL   O11423346   5.877   5.423   5.838  0.0673 -0.1038  0.0032
   97MOL   O11523347   5.752   5.257   5.920  0.8062  0.2522 -0.0041
   97MOL   H11623348   5.746   5.557   5.636  1.2273 -0.5361 -1.2893
   97MOL   H11723349   5.616   5.501   5.555 -2.0186  0.9101  1.4502
   97MOL   H11823350   5.625   5.136   5.734 -2.2710 -0.1276 -0.3518
   97MOL   H11923351   5.746   5.182   5.618  1.2089  1.2071  1.9663
   97MOL   H12023352   5.572   5.211   5.585 -2.6394 -0.4190  2.7456
   97MOL   H12123353   5.678   5.205   5.893  0.7371 -0.4612  1.5309
   97MOL   C12223354   5.540   5.401   5.783  0.0371  0.0510  0.0765
   97MOL   C12323355   5.507   5.525   5.869 -0.4783  0.1564 -0.1104
   97MOL   C12423356   5.606   5.547   5.993 -0.4094  0.6201 -0.3612
   97MOL   C12523357   5.515   5.659   5.796  0.4877 -0.1734 -0.0847
   97MOL   O12623358   5.555   5.767   5.842  0.1632 -0.6902 -0.1858
   97MOL   O12723359   5.451   5.649   5.670 -0.1380 -0.2834 -0.3453
   97MOL   H12823360   5.466   5.397   5.703  1.9794  1.4603 -1.8403
   97MOL   H12923361   5.516   5.319   5.851 -2.6851  1.2396  0.6008
   97MOL   H13023362   5.696   5.602   5.965  0.2152 -1.6342 -3.1498
   97MOL   H13123363   5.641   5.451   6.031 -2.0151 -0.2535 -1.0269
   97MOL   H13223364   5.562   5.604   6.075 -2.4620 -0.4193 -0.6968
   97MOL   H13323365   5.450   5.739   5.641  0.3930  0.2429  1.2631
   97MOL   C13423366   5.359   5.514   5.915 -0.0876  0.2294  0.1798
   97MOL   C13523367   5.280   5.404   5.985  0.2526  0.2595  0.4900
   97MOL   C13623368   5.147   5.456   6.047  0.0922 -0.0939  0.0058
   97MOL   C13723369   5.256   5.295   5.875  0.3945 -0.0910 -0.4546
   97MOL   O13823370   5.306   5.185   5.867  0.4299  0.0830  0.0725
   97MOL   O13923371   5.151   5.331   5.795 -0.1172  0.0650 -0.1674
   97MOL   H14023372   5.340   5.592   5.988 -0.5656 -0.1208  0.4308
   97MOL   H14123373   5.293   5.551   5.836  1.1149  0.8285 -0.5570
   97MOL   H14223374   5.168   5.533   6.120  3.2773 -0.6479 -0.2522
   97MOL   H14323375   5.097   5.371   6.093  0.2084 -0.4554 -0.5254
   97MOL   H14423376   5.072   5.501   5.982 -2.4143  1.0161  3.5709
   97MOL   H14523377   5.143   5.273   5.721 -0.4350 -1.1358  0.8012
   97MOL   C14623378   5.376   5.342   6.098 -0.5724  0.3544  0.4386
   97MOL   C14723379   5.327   5.256   6.218 -0.1619 -0.6263  0.0212
   97MOL   C14823380   5.236   5.143   6.166  0.4189 -0.6304 -0.1066
   97MOL   C14923381   5.455   5.188   6.275  0.1264  0.2532 -0.4901
   97MOL   O15023382   5.462   5.068   6.311 -0.1704  0.2318  0.0208
   97MOL   O15123383   5.560   5.282   6.299 -0.0670 -0.3794 -0.1320
   97MOL   H15223384   5.448   5.275   6.051 -2.4178 -1.3504 -0.0080
   97MOL   H15323385   5.442   5.420   6.137  2.9767 -2.1441 -0.3601
   97MOL   H15423386   5.215   5.074   6.248  1.1478  1.0933  1.5547
   97MOL   H15523387   5.297   5.096   6.088 -0.8058 -0.9531 -0.8861
   97MOL   H15623388   5.145   5.172   6.113  0.5895  0.0640 -0.0213
   97MOL   H15723389   5.622   5.241   6.356  1.3005  0.1572 -1.2118
   97MOL   C15823390   5.263   5.352   6.332 -0.1480  1.1802  0.2707
   97MOL   C15923391   5.140   5.321   6.424 -0.2638 -0.1507  0.2646
   97MOL   C16023392   5.010   5.284   6.350 -0.4866  0.1860  0.1983
   97MOL   C16123393   5.191   5.190   6.499  0.0458  0.1540 -0.0452
   97MOL   O16223394   5.128   5.085   6.507 -0.5539 -0.5596  0.3312
   97MOL   O16323395   5.311   5.206   6.562  0.8801 -0.4108 -0.5240
   97MOL   H16423396   5.349   5.380   6.394 -0.3259  0.5735  0.7899
   97MOL   H16523397   5.241   5.445   6.279 -0.7501  1.0412  0.2828
   97MOL   H16623398   5.027   5.202   6.280 -0.8370  0.5213 -0.2713
   97MOL   H16723399   4.967   5.367   6.295 -0.9586  0.3738  0.8431
   97MOL   H16823400   4.932   5.251   6.418 -0.1515  0.1881  0.5905
   97MOL   H16923401   5.349   5.129   6.601  0.7674 -0.1842  0.0364
   97MOL   C17023402   5.116   5.445   6.517  0.4277 -0.3395 -0.1461
   97MOL   C17123403   4.994   5.466   6.608  0.8362  0.2389  0.6462
   97MOL   C17223404   5.018   5.598   6.688 -0.7568 -0.2197  0.2989
   97MOL   C17323405   4.870   5.500   6.512  0.6510 -0.1247 -0.6228
   97MOL   O17423406   4.762   5.441   6.519  0.6889  0.2150  0.0223
   97MOL   O17523407   4.897   5.603   6.426  0.6574  0.0044  0.0149
   97MOL   H17623408   5.188   5.433   6.597  2.2978 -2.4139 -2.0699
   97MOL   H17723409   5.154   5.536   6.470 -1.0095  0.0814 -0.5421
   97MOL   H17823410   5.112   5.592   6.744  0.7165 -0.5878 -2.1501
   97MOL   H17923411   4.935   5.615   6.757  1.0000 -0.2297  2.5016
   97MOL   H18023412   5.032   5.684   6.624 -0.2684  1.4848  2.6284
   97MOL   H18123413   4.818   5.606   6.374  0.2390  0.1202  0.6535
   97MOL   C18223414   4.975   5.340   6.692 -0.3046  0.1889 -0.3330
   97MOL   C18323415   4.904   5.324   6.834 -0.1919  0.4173  0.2193
   97MOL   C18423416   4.768   5.394   6.826 -0.8270  0.6255 -0.0307
   97MOL   C18523417   4.890   5.177   6.852 -0.1433 -0.7221 -0.3533
   97MOL   O18623418   4.782   5.118   6.838 -0.1923  0.2479  0.2747
   97MOL   O18723419   5.002   5.100   6.881  0.0855  0.4835  0.2495
   97MOL   H18823420   4.939   5.260   6.627  1.0636 -1.2793  0.6745
   97MOL   H18923421   5.078   5.310   6.713 -0.2990  0.5699  0.1793
   97MOL   H19023422   4.777   5.501   6.803 -0.1347  0.5684 -0.0293
   97MOL   H19123423   4.708   5.381   6.917 -1.8804  0.6632 -0.7138
   97MOL   H19223424   4.705   5.354   6.747  0.5159  1.6098 -1.6331
   97MOL   H19323425   4.992   5.007   6.892 -0.9516  0.4655 -0.7046
   97MOL   C19423426   5.003   5.387   6.945 -0.2437  0.2529  0.2493
   97MOL   C19523427   4.956   5.416   7.092 -0.6270  0.0849  0.5468
   97MOL   C19623428   4.889   5.557   7.089  0.2282  0.3023 -0.4601
   97MOL   C19723429   4.859   5.320   7.166  0.0427  0.3054  0.5345
   97MOL   O19823430   4.840   5.202   7.135  0.4988 -0.2048 -0.3279
   97MOL   O19923431   4.822   5.373   7.285 -0.0800  0.1722  0.0717
   97MOL   H20023432   5.094   5.328   6.942  0.6272  1.6124 -0.5866
   97MOL   H20123433   5.042   5.481   6.907  0.8732 -0.7918 -1.2636
   97MOL   H20223434   4.854   5.594   7.185  2.1401  0.2120  0.2864
   97MOL   H20323435   4.799   5.553   7.028  0.2508  2.0738 -0.6322
   97MOL   H20423436   4.945   5.630   7.031 -1.5048  0.4407 -2.0186
   97MOL   H20523437   4.772   5.305   7.327  0.5156  0.7766  1.7859
   97MOL   C20623438   5.080   5.438   7.179 -1.1746 -0.1433 -0.4912
   97MOL   C20723439   5.185   5.337   7.238  0.6325 -0.0736  0.5221
   97MOL   C20823440   5.284   5.414   7.340 -0.0393  0.8456 -0.8445
   97MOL   C20923441   5.108   5.237   7.332  0.2062  0.2689  0.2243
   97MOL   O21023442   5.063   5.128   7.295  0.3948  0.0954  0.1052
   97MOL   O21123443   5.078   5.297   7.456 -0.0912 -0.4154  0.2915
   97MOL   H21223444   5.133   5.515   7.124 -0.0293 -1.1334 -0.8018
   97MOL   H21323445   5.042   5.479   7.272 -0.9215 -0.1901 -0.3651
   97MOL   H21423446   5.354   5.344   7.385  1.1918  1.6359 -1.4928
   97MOL   H21523447   5.229   5.462   7.421  0.4248  0.8052 -0.5061
   97MOL   H21623448   5.337   5.492   7.285  0.2664 -0.0000 -1.7765
   97MOL   H21723449   5.026   5.241   7.512 -1.0258  0.3740  0.2387
   97MOL   C21823450   5.269   5.268   7.114 -0.2747  0.2009 -0.2596
   97MOL   C21923451   5.412   5.197   7.126 -0.0409  0.4300 -0.4625
   97MOL   C22023452   5.522   5.314   7.123  0.3847  0.3684  0.3165
   97MOL   C22123453   5.422   5.105   7.250  0.2464  0.1598 -0.5581
   97MOL   O22223454   5.497   5.136   7.343  0.4992 -0.4139 -0.3267
   97MOL   O22323455   5.339   4.998   7.237  0.5845  0.1029 -0.3337
   97MOL   H22423456   5.201   5.192   7.076 -2.3493  1.1590  1.4140
   97MOL   H22523457   5.277   5.346   7.039  1.4648  0.8690  0.5871
   97MOL   H22623458   5.531   5.377   7.036  1.8813 -1.0544 -0.5854
   97MOL   H22723459   5.620   5.266   7.123 -0.7344 -2.0672 -1.8149
   97MOL   H22823460   5.519   5.369   7.218  1.0529 -1.2139  1.2827
   97MOL   H22923461   5.344   4.951   7.319 -1.4999  0.9822  0.3407
   97MOL   C23023462   5.414   5.107   6.993 -0.0906  0.4091 -0.1519
   97MOL   C23123463   5.556   5.050   6.956  0.4979 -0.2253 -0.1095
   97MOL   C23223464   5.538   4.906   6.900  0.0549  0.0680  0.0075
   97MOL   C23323465   5.613   5.144   6.850  0.3869 -0.3091  0.3850
   97MOL   O23423466   5.557   5.163   6.745  0.9898  0.7756 -0.3208
   97MOL   O23523467   5.730   5.204   6.891 -0.4471  0.5808  0.4664
   97MOL   H23623468   5.339   5.028   6.994  0.3932 -0.0369  1.9639
   97MOL   H23723469   5.365   5.158   6.910  0.0501  0.8952  0.0626
   97MOL   H23823470   5.481   4.836   6.962  0.2924  0.2115  0.3892
   97MOL   H23923471   5.633   4.867   6.866  0.2303 -0.1257  0.7028
   97MOL   H24023472   5.466   4.912   6.818 -0.6774 -1.9304  0.4688
   97MOL   H24123473   5.768   5.242   6.813 -1.4065 -2.1336 -1.3982
   97MOL   H24223474   5.632   5.032   7.032  1.2353  0.6467 -0.6365
   98MOL     C123475   5.322   4.618   7.755 -0.3474  0.8194  0.0311
   98MOL     C223476   5.293   4.756   7.688 -0.6299  0.5010  0.1376
   98MOL     C323477   5.402   4.854   7.741 -0.1856  0.0044  0.2285
   98MOL     C423478   5.317   4.758   7.537 -1.0520 -0.1143 -0.1653
   98MOL     O523479   5.304   4.857   7.466 -0.3393 -0.2254 -0.0225
   98MOL     O623480   5.368   4.638   7.487  0.3823  0.4493  0.1297
   98MOL     H723481   5.291   4.531   7.697  0.7140  0.6809 -0.3386
   98MOL     H823482   5.283   4.613   0.089  2.1736  1.4017  1.0642
   98MOL     H923483   5.401   4.952   7.693 -0.8812  0.3805  1.0061
   98MOL    H1023484   5.504   4.815   7.737  0.3579  1.4548 -0.2966
   98MOL    H1123485   5.386   4.872   0.080 -1.2382  0.9243 -0.0786
   98MOL    H1223486   5.356   4.565   7.546  1.6550 -1.7997 -2.3234
   98MOL    H1323487   5.429   4.600   7.760  0.3747  4.5359 -0.6893
   98MOL    C1423488   5.148   4.819   7.727 -0.3553  0.5966 -0.8311
   98MOL    C1523489   5.017   4.736   7.752  0.2283 -0.0154 -0.6981
   98MOL    C1623490   5.024   4.613   7.661 -0.5074 -0.1656 -0.2509
   98MOL    C1723491   5.001   4.687   0.135  0.2766  1.1063  0.5604
   98MOL    O1823492   5.062   4.734   0.226  0.3152  0.1699 -0.0771
   98MOL    O1923493   4.902   4.593   0.148  0.4458 -0.2931 -0.8612
   98MOL    H2023494   5.159   4.891   0.041  1.3748 -1.2137  0.5946
   98MOL    H2123495   5.110   4.862   7.634 -0.8094 -1.2055 -1.5017
   98MOL    H2223496   5.059   4.639   7.561 -0.9788  2.1459  0.1461
   98MOL    H2323497   4.922   4.582   7.639  0.2785 -2.4823 -0.8053
   98MOL    H2423498   5.090   4.534   7.696 -2.0318 -1.4792 -0.2797
   98MOL    H2523499   4.876   4.575   0.237  0.0068 -4.0669 -1.6519
   98MOL    C2623500   4.880   4.818   7.708 -0.1617 -0.0804  0.2930
   98MOL    C2723501   4.851   4.964   7.743  0.2516  0.6165 -0.3060
   98MOL    C2823502   4.880   4.980   0.129 -0.4919 -0.0407 -0.7031
   98MOL    C2923503   4.944   5.059   7.672 -0.1784 -1.3794 -0.4297
   98MOL    O3023504   5.007   5.142   7.733  0.3231 -0.2687 -0.5252
   98MOL    O3123505   4.931   5.055   7.542 -0.1516  0.1794  0.5368
   98MOL    H3223506   4.879   4.805   7.600 -0.4437 -0.0139  0.2872
   98MOL    H3323507   4.791   4.765   7.741 -1.7951  1.5232 -1.3925
   98MOL    H3423508   4.832   5.071   0.166 -1.2850 -1.3526  1.6186
   98MOL    H3523509   4.986   4.990   0.151 -0.7612 -0.9950  1.1588
   98MOL    H3623510   4.834   4.906   0.194 -1.2968 -0.3758 -1.6461
   98MOL    H3723511   4.877   4.995   7.495  0.5841 -0.4110  0.4296
   98MOL    C3823512   4.695   4.989   7.706  0.0168  0.6257 -0.8092
   98MOL    C3923513   4.602   5.102   7.761  0.1945 -0.0545 -0.9228
   98MOL    C4023514   4.578   5.059   0.142  0.1437  0.2201  0.3350
   98MOL    C4123515   4.682   5.237   7.745  0.9654 -0.6464  0.3908
   98MOL    O4223516   4.711   5.282   7.636 -0.4256  0.2777  0.0041
   98MOL    O4323517   4.703   5.296   0.097 -0.2194 -0.1193 -0.0023
   98MOL    H4423518   4.692   5.003   7.598 -1.1401  0.9159 -0.7413
   98MOL    H4523519   4.629   4.903   7.718 -1.0457  1.6949  1.1079
   98MOL    H4623520   4.590   5.132   0.222  3.0483  0.0677  0.0866
   98MOL    H4723521   4.634   4.969   0.168  0.0525  0.5310  1.6411
   98MOL    H4823522   4.476   5.020   0.138  0.0783  0.4876 -0.8851
   98MOL    H4923523   4.756   5.374   0.091 -1.6421  0.8171 -0.6978
   98MOL    C5023524   4.469   5.083   7.674  0.3761  0.0726  0.3383
   98MOL    C5123525   4.342   5.168   7.680 -0.3442 -0.1934  0.0409
   98MOL    C5223526   4.219   5.087   7.620 -0.6379 -0.5703 -0.3607
   98MOL    C5323527   4.312   5.210   0.060 -0.5439  0.0775  0.2209
   98MOL    O5423528   4.348   5.322   0.102  0.1908  0.1239  0.1182
   98MOL    O5523529   4.246   5.111   0.130 -0.3154 -0.2649  0.1875
   98MOL    H5623530   4.504   5.075   7.571 -0.7441  0.9854 -0.1306
   98MOL    H5723531   4.439   4.980   7.696 -2.2112  0.7213  0.0946
   98MOL    H5823532   4.244   5.057   7.518  0.9531 -1.8248  0.4023
   98MOL    H5923533   4.123   5.137   7.604 -0.6791  0.2463  2.2181
   98MOL    H6023534   4.200   4.995   7.674  1.8552 -0.1051  1.3566
   98MOL    H6123535   4.212   5.034   0.088  0.5375 -1.3145  1.4179
   98MOL    C6223536   4.376   5.290   7.598 -0.2537  0.2972  0.5032
   98MOL    C6323537   4.275   5.405   7.557  0.1527 -0.1044  0.0610
   98MOL    C6423538   4.363   5.533   7.562 -0.0274 -0.2819  1.0261
   98MOL    C6523539   4.236   5.386   7.405 -0.7045 -0.5297 -0.8275
   98MOL    O6623540   4.276   5.469   7.322  0.2238  0.5046 -0.3210
   98MOL    O6723541   4.149   5.287   7.378  0.3117 -0.4617  0.5926
   98MOL    H6823542   4.468   5.329   7.643  0.6586 -1.7856  0.4866
   98MOL    H6923543   4.407   5.255   7.500 -1.7168 -0.2584  0.2316
   98MOL    H7023544   4.464   5.517   7.524 -0.4237  0.6874 -0.4966
   98MOL    H7123545   4.374   5.566   7.665  0.3082  2.6167  0.1012
   98MOL    H7223546   4.336   5.620   7.503  4.3100 -0.8220 -2.0827
   98MOL    H7323547   4.118   5.283   7.289 -1.7191 -0.9984  1.2730
   98MOL    C7423548   4.151   5.438   7.651  0.6023  0.8005  0.2272
   98MOL    C7523549   4.030   5.543   7.610  0.3692  0.2881  0.1318
   98MOL    C7623550   4.092   5.669   7.543  0.1309 -0.1511  0.2447
   98MOL    C7723551   3.930   5.484   7.507 -0.3124  0.0161 -0.4128
   98MOL    O7823552   3.865   5.551   7.427  0.1917 -0.3630 -0.6759
   98MOL    O7923553   3.906   5.350   7.528 -0.0026 -0.3367 -0.1487
   98MOL    H8023554   4.096   5.345   7.671 -1.6337  1.8679 -0.7640
   98MOL    H8123555   4.194   5.468   7.746  0.9377  4.5882 -1.0325
   98MOL    H8223556   4.170   5.715   7.603  0.1930 -0.5273  0.4502
   98MOL    H8323557   4.016   5.742   7.513  1.8761  0.5470 -2.7684
   98MOL    H8423558   4.137   5.651   7.445 -0.1342  2.7199 -0.4750
   98MOL    H8523559   3.841   5.320   7.467 -1.1614  2.2810 -0.2642
   98MOL    C8623560   3.964   5.608   7.736  0.0846 -0.1798  0.2375
   98MOL    C8723561   3.906   5.527   0.101 -0.1119 -0.2241  0.6116
   98MOL    C8823562   3.838   5.640   0.187  0.3731 -0.2085 -0.3546
   98MOL    C8923563   3.795   5.424   0.053 -0.7847 -0.9387 -0.2805
   98MOL    O9023564   3.795   5.304   0.078  0.1073 -0.4973 -0.4852
   98MOL    O9123565   3.688   5.490   0.002  0.0902 -0.3298 -0.1546
   98MOL    H9223566   4.032   5.682   0.010  0.2037  0.2009 -0.6376
   98MOL    H9323567   3.883   5.671   7.698  0.5729  0.6201  0.4940
   98MOL    H9423568   3.776   5.715   0.138  0.3753 -0.0780 -0.1630
   98MOL    H9523569   3.910   5.704   0.239 -2.5262  3.1381 -0.2609
   98MOL    H9623570   3.777   5.605   0.271 -0.0480 -2.2567 -1.4929
   98MOL    H9723571   3.607   5.443   7.759  0.1077 -0.7346  1.4583
   98MOL    C9823572   4.021   5.457   0.181 -0.1828 -0.2852  0.2156
   98MOL    C9923573   4.018   5.421   0.336  0.0010 -0.3412  0.8692
   98MOL   C10023574   4.023   5.544   0.423  0.5269  1.1537 -0.0170
   98MOL   C10123575   3.890   5.335   0.366 -0.2583  0.0111 -0.1321
   98MOL   O10223576   3.798   5.383   0.431  0.0961 -0.3744 -0.3586
   98MOL   O10323577   3.896   5.205   0.316  0.3377  0.0938 -0.2526
   98MOL   H10423578   4.047   5.365   0.129 -0.5107  1.6769 -3.5509
   98MOL   H10523579   4.104   5.523   0.158 -0.8665  1.1478  1.7454
   98MOL   H10623580   3.928   5.597   0.431 -0.6787 -1.0492  1.0655
   98MOL   H10723581   4.089   5.628   0.405 -2.0374  3.2417  0.0180
   98MOL   H10823582   4.034   5.512   0.527  0.2685  0.1526 -0.2868
   98MOL   H10923583   3.816   5.161   0.340  0.4965 -0.0077  0.0819
   98MOL   C11023584   4.148   5.338   0.355 -0.1288 -0.3270 -0.6148
   98MOL   C11123585   4.205   5.287   0.496 -0.2910 -0.7040  0.2486
   98MOL   C11223586   4.299   5.406   0.552  1.0631 -0.6767  0.3659
   98MOL   C11323587   4.092   5.266   0.603  0.0386  1.0176  0.4012
   98MOL   O11423588   4.072   5.337   0.702  0.1054  0.1739  0.1506
   98MOL   O11523589   4.013   5.157   0.577 -0.7932  0.2983  0.1476
   98MOL   H11623590   4.155   5.255   0.284  0.9917 -0.0786 -0.8146
   98MOL   H11723591   4.224   5.409   0.322 -0.2852  1.7186  3.2319
   98MOL   H11823592   4.390   5.421   0.494 -0.8907 -0.3304 -2.7020
   98MOL   H11923593   4.322   5.387   0.657 -1.3516 -1.9660  0.7018
   98MOL   H12023594   4.247   5.501   0.556  0.4715 -1.0506  1.6020
   98MOL   H12123595   3.965   5.136   0.656  0.0686 -0.2592  0.5391
   98MOL   C12223596   4.283   5.148   0.468 -0.1693 -0.1390 -0.3189
   98MOL   C12323597   4.370   5.063   0.557  0.3440 -0.5835 -0.1191
   98MOL   C12423598   4.319   5.046   0.705 -1.1419  0.5167 -0.8669
   98MOL   C12523599   4.379   4.922   0.493 -0.4576  0.1656 -0.5156
   98MOL   O12623600   4.334   4.817   0.549 -0.6097 -0.1811 -0.4736
   98MOL   O12723601   4.428   4.910   0.365 -0.1416  0.2921  0.2891
   98MOL   H12823602   4.205   5.087   0.423 -2.0035 -0.2801  2.8947
   98MOL   H12923603   4.343   5.168   0.380  0.3022  0.5413  0.1507
   98MOL   H13023604   4.223   4.997   0.696 -0.4908 -1.0579  0.3665
   98MOL   H13123605   4.307   5.144   0.753  1.2439  0.5394 -0.2144
   98MOL   H13223606   4.382   4.982   0.766 -1.6971 -1.3578 -2.2419
   98MOL   H13323607   4.412   4.828   0.321  0.3977 -0.3564  1.2742
   98MOL   C13423608   4.514   5.126   0.547 -0.3628 -0.0480 -0.1130
   98MOL   C13523609   4.627   5.083   0.652 -0.1330  0.1813  0.2507
   98MOL   C13623610   4.753   5.164   0.596  0.0128  0.7367  0.2318
   98MOL   C13723611   4.596   5.148   0.788  0.0621  0.2880 -0.5352
   98MOL   O13823612   4.565   5.087   0.889 -0.1742 -0.1726  0.5032
   98MOL   O13923613   4.620   5.282   0.792  0.0404  0.0446  0.2259
   98MOL   H14023614   4.547   5.126   0.443  1.6378  0.0252  0.5078
   98MOL   H14123615   4.505   5.231   0.572 -0.2028 -0.3006  1.0158
   98MOL   H14223616   4.733   5.270   0.578  0.0387  0.7257  0.1339
   98MOL   H14323617   4.787   5.118   0.503  3.3363  0.7167  1.3804
   98MOL   H14423618   4.839   5.164   0.663 -0.0982  1.0474  0.3746
   98MOL   H14523619   4.607   5.321   0.877 -1.1316  1.0834 -0.4074
   98MOL   C14623620   4.660   4.925   0.656 -0.0995  0.1905  0.2567
   98MOL   C14723621   4.793   4.863   0.708  0.1270  0.6676 -0.7854
   98MOL   C14823622   4.909   4.888   0.599  0.2052  0.3522  0.0785
   98MOL   C14923623   4.839   4.919   0.843  0.4432 -0.0482  0.2029
   98MOL   O15023624   4.943   4.977   0.872  0.0356 -0.4659  0.3412
   98MOL   O15123625   4.745   4.891   0.938 -0.2283  0.8586 -0.1583
   98MOL   H15223626   4.575   4.886   0.713  1.0577 -2.7970  0.0236
   98MOL   H15323627   4.648   4.888   0.554  0.3444  2.5969 -0.7018
   98MOL   H15423628   4.996   4.828   0.625  0.0156  0.0538  0.0199
   98MOL   H15523629   4.952   4.987   0.613  2.0125 -0.6713  2.2626
   98MOL   H15623630   4.886   4.865   0.495  3.4974  0.1010 -0.6517
   98MOL   H15723631   4.752   4.954   1.008 -3.2275  0.4885  0.5225
   98MOL   C15823632   4.768   4.713   0.738 -0.2636  0.3236  0.2162
   98MOL   C15923633   4.751   4.601   0.628  0.0352  0.6040 -0.0272
   98MOL   C16023634   4.631   4.624   0.536  0.1588 -0.0100 -0.5906
   98MOL   C16123635   4.882   4.580   0.541  0.9177 -0.0513 -0.0954
   98MOL   O16223636   4.874   4.572   0.420  0.3772 -0.1235  0.2947
   98MOL   O16323637   4.995   4.566   0.615  0.5237 -0.4071  0.2018
   98MOL   H16423638   4.845   4.683   0.809 -0.5037 -0.0131  0.3324
   98MOL   H16523639   4.681   4.708   0.803 -0.6179 -1.4200 -0.3715
   98MOL   H16623640   4.544   4.651   0.596 -1.5138 -1.8864 -2.0835
   98MOL   H16723641   4.603   4.528   0.491 -0.2370 -0.7499  1.2054
   98MOL   H16823642   4.660   4.688   0.452  1.7285 -0.9680 -0.8065
   98MOL   H16923643   5.065   4.541   0.557 -0.9035 -1.9667 -0.8575
   98MOL   C17023644   4.727   4.465   0.714 -0.1168  0.0928  0.5947
   98MOL   C17123645   4.691   4.323   0.661 -0.2083  0.8918 -0.3159
   98MOL   C17223646   4.535   4.324   0.656 -0.3218 -0.0204  0.5835
   98MOL   C17323647   4.753   4.292   0.525 -0.5863 -0.2752  0.0016
   98MOL   O17423648   4.682   4.292   0.425 -0.4769 -0.4561 -0.1351
   98MOL   O17523649   4.888   4.285   0.530 -0.5459  0.5608 -0.1321
   98MOL   H17623650   4.810   4.452   0.784  0.0545  0.2387  0.4204
   98MOL   H17723651   4.654   4.491   0.790 -0.5894  3.2594 -0.8645
   98MOL   H17823652   4.500   4.237   0.600 -0.0945  0.1466  0.1797
   98MOL   H17923653   4.492   4.412   0.608  0.1191 -0.0718  0.1029
   98MOL   H18023654   4.500   4.327   0.759  1.8897  0.5814  1.3431
   98MOL   H18123655   4.924   4.241   0.454 -0.4380 -1.4363  1.0304
   98MOL   C18223656   4.753   4.218   0.769  0.5578 -0.5860 -0.3086
   98MOL   C18323657   4.744   4.060   0.751  0.2534 -0.3560  0.1225
   98MOL   C18423658   4.811   4.008   0.882 -0.1081 -0.1949  0.6378
   98MOL   C18523659   4.591   4.023   0.761  0.4372  0.0463  0.4990
   98MOL   O18623660   4.520   3.999   0.660  0.1140  0.0656  0.2610
   98MOL   O18723661   4.540   4.027   0.886 -0.0370 -0.2744 -0.0056
   98MOL   H18823662   4.856   4.247   0.789 -1.1082  3.4771  3.2236
   98MOL   H18923663   4.708   4.244   0.864 -0.4780  0.1531 -0.9795
   98MOL   H19023664   4.913   4.044   0.874 -1.2033  2.8285 -0.5040
   98MOL   H19123665   4.826   3.900   0.881  0.5497 -0.1037 -1.1139
   98MOL   H19223666   4.761   4.041   0.973 -2.7802 -0.4044 -0.7097
   98MOL   H19323667   4.446   4.021   0.891 -0.0687  0.3329  0.1454
   98MOL   C19423668   4.800   3.998   0.623 -0.4576  0.1393  0.2151
   98MOL   C19523669   4.833   3.844   0.596  0.3098 -0.2895 -0.1150
   98MOL   C19623670   4.946   3.789   0.685 -0.3343  0.7723  0.2321
   98MOL   C19723671   4.706   3.760   0.618 -0.0153 -0.5527  0.6450
   98MOL   O19823672   4.693   3.686   0.717 -0.4354 -0.0976  0.7205
   98MOL   O19923673   4.612   3.766   0.515 -0.5706 -0.1146  0.1949
   98MOL   H20023674   4.747   4.038   0.536  1.8708  1.6046 -0.5625
   98MOL   H20123675   4.898   4.045   0.612 -0.5834  0.6157  1.1600
   98MOL   H20223676   5.023   3.860   0.716  0.7373 -0.3674  0.2333
   98MOL   H20323677   5.007   3.712   0.638  1.5818  2.2396  0.2598
   98MOL   H20423678   4.919   3.742   0.780  0.1898 -0.3198 -0.1423
   98MOL   H20523679   4.545   3.706   0.544 -2.3541  1.3502 -0.7661
   98MOL   C20623680   4.897   3.851   0.454 -0.3434  0.1688 -0.2339
   98MOL   C20723681   4.938   3.732   0.364  0.4643  0.1160  0.0224
   98MOL   C20823682   5.093   3.713   0.370 -0.8017  0.0416 -0.4057
   98MOL   C20923683   4.865   3.600   0.410 -0.6375  0.2643 -0.1657
   98MOL   O21023684   4.901   3.533   0.506  0.4568 -0.4012 -0.3844
   98MOL   O21123685   4.746   3.573   0.348  0.1514 -0.2644  0.4824
   98MOL   H21223686   4.821   3.899   0.392 -0.8348  0.2269  0.4003
   98MOL   H21323687   4.984   3.916   0.452 -0.1091 -0.0125  2.1221
   98MOL   H21423688   5.149   3.804   0.345 -0.7103 -0.7810 -3.4531
   98MOL   H21523689   5.124   3.630   0.307  0.0618 -0.4599  0.6651
   98MOL   H21623690   5.128   3.698   0.472  1.9804  0.9786 -1.1802
   98MOL   H21723691   4.701   3.500   0.386 -1.5476  1.5034  1.9702
   98MOL   C21823692   4.899   3.747   0.208 -0.4824 -0.3898  0.6649
   98MOL   C21923693   4.956   3.872   0.127 -0.1566 -0.2201 -0.0036
   98MOL   C22023694   5.081   3.809   0.048 -0.1000  0.4555 -0.5579
   98MOL   C22123695   4.839   3.905   0.032 -0.4374  0.1761  0.2012
   98MOL   O22223696   4.853   3.903   7.678  0.2662 -0.0706 -0.2045
   98MOL   O22323697   4.716   3.930   0.095 -0.3344  0.0870 -0.7797
   98MOL   H22423698   4.916   3.653   0.155  0.8977  1.2517 -1.9419
   98MOL   H22523699   4.790   3.742   0.208 -0.7265  3.6084 -0.9568
   98MOL   H22623700   5.143   3.744   0.109  0.3514  1.8960  0.5462
   98MOL   H22723701   5.154   3.878   0.006 -0.7239  2.0826  0.9533
   98MOL   H22823702   5.048   3.742   7.736 -0.2101 -0.5682  0.3490
   98MOL   H22923703   4.662   3.951   0.020 -1.7850  0.9181  0.4709
   98MOL   C23023704   4.982   4.014   0.200  0.1772  0.1631  0.0018
   98MOL   C23123705   5.023   4.141   0.114  0.8206  0.3283 -0.0927
   98MOL   C23223706   4.913   4.222   0.054  0.0459  0.4004 -0.5000
   98MOL   C23323707   5.114   4.229   0.207 -0.1726 -0.3595 -0.8179
   98MOL   O23423708   5.221   4.260   0.172 -0.0781  0.6026 -0.1905
   98MOL   O23523709   5.065   4.253   0.333 -0.4536 -0.1652 -0.4408
   98MOL   H23623710   4.911   4.060   0.269  1.3858  0.5648  0.9906
   98MOL   H23723711   5.064   3.993   0.268  1.7726  1.2963 -1.5012
   98MOL   H23823712   4.817   4.206   0.103  1.3280 -1.8527  1.3435
   98MOL   H23923713   4.922   4.215   7.712 -0.0102 -0.5683 -0.4516
   98MOL   H24023714   4.910   4.328   0.079  1.8953 -0.1645  2.3400
   98MOL   H24123715   5.134   4.296   0.381  0.9077 -1.1202 -1.4482
   98MOL   H24223716   5.079   4.095   0.032 -0.0200  0.5000 -0.7734
   99MOL     C123717   4.815   3.556   7.260 -0.0329  0.3701  0.0614
   99MOL     C223718   4.763   3.693   7.290 -0.2153 -0.3727  0.1792
   99MOL     C323719   4.612   3.686   7.330  0.3466  0.5236 -0.0248
   99MOL     C423720   4.833   3.752   7.409  0.7623  0.0474  0.3811
   99MOL     O523721   4.919   3.699   7.476  0.4449  0.0448 -0.0981
   99MOL     O623722   4.779   3.871   7.437  0.1797 -0.1967  0.6459
   99MOL     H723723   4.922   3.546   7.243 -0.2683 -0.2132 -1.1313
   99MOL     H823724   4.769   3.521   7.168  2.4622 -2.1101 -0.3081
   99MOL     H923725   4.580   3.790   7.334 -0.6336  0.1632  1.8721
   99MOL    H1023726   4.588   3.639   7.425 -0.9164  2.2103  0.5029
   99MOL    H1123727   4.556   3.622   7.262  1.2256 -1.5579  1.1657
   99MOL    H1223728   4.818   3.895   7.519 -0.4991  0.1604  0.8667
   99MOL    H1323729   4.794   3.493   7.347 -0.5008 -0.5788 -0.7210
   99MOL    C1423730   4.770   3.778   7.159 -0.2799 -0.8810 -0.0472
   99MOL    C1523731   4.900   3.829   7.080 -0.1759 -0.0739 -0.0065
   99MOL    C1623732   4.970   3.940   7.169 -0.1925  0.0157 -0.1395
   99MOL    C1723733   4.993   3.705   7.058  0.4482  1.2216  0.6135
   99MOL    O1823734   5.106   3.686   7.100  0.3633 -0.2425 -0.0366
   99MOL    O1923735   4.940   3.621   6.960  0.0270  0.2801  0.1048
   99MOL    H2023736   4.699   3.739   7.086 -1.0113  2.0788 -0.9868
   99MOL    H2123737   4.727   3.873   7.190  2.7088  0.1356  1.2235
   99MOL    H2223738   4.984   3.912   7.273 -0.9400  0.0337 -0.0256
   99MOL    H2323739   4.905   4.027   7.180 -0.8611 -0.3755 -0.9023
   99MOL    H2423740   5.070   3.964   7.133 -0.5041  0.7404 -0.5237
   99MOL    H2523741   5.007   3.559   6.936  0.7285 -0.6226  4.0061
   99MOL    C2623742   4.841   3.891   6.936  0.0718  0.4169 -0.0237
   99MOL    C2723743   4.926   3.973   6.832  0.2178 -0.0709 -0.8373
   99MOL    C2823744   4.830   4.022   6.722 -0.8261 -0.0553  0.5562
   99MOL    C2923745   4.999   4.094   6.903 -0.2188 -0.3528 -0.4294
   99MOL    O3023746   5.119   4.095   6.925  0.2442 -0.1023 -0.2211
   99MOL    O3123747   4.913   4.193   6.950  0.3428 -0.1911 -0.0468
   99MOL    H3223748   4.811   3.799   6.885  2.8591 -0.7370  0.3564
   99MOL    H3323749   4.750   3.946   6.961 -0.6220 -0.0856 -1.4085
   99MOL    H3423750   4.751   4.089   6.756 -1.0256 -0.1915  0.3590
   99MOL    H3523751   4.784   3.941   6.666 -1.3215  0.3904  0.3161
   99MOL    H3623752   4.889   4.084   6.654 -2.6836  2.9273  1.5875
   99MOL    H3723753   4.968   4.254   6.996 -1.7056 -0.9142  3.4841
   99MOL    C3823754   5.037   3.871   6.765 -0.1014  0.0627  0.1573
   99MOL    C3923755   5.083   3.882   6.617  0.4617 -0.1442  0.0698
   99MOL    C4023756   4.962   3.859   6.522 -0.1974  0.3681 -0.3570
   99MOL    C4123757   5.148   4.016   6.583  0.3954 -0.3113  0.8590
   99MOL    O4223758   5.177   4.108   6.661  0.0838  0.2866 -0.3096
   99MOL    O4323759   5.170   4.016   6.451  0.5816 -0.2329  0.0349
   99MOL    H4423760   5.122   3.877   6.833 -0.5877 -2.9907  1.0932
   99MOL    H4523761   5.003   3.769   6.780  2.0737 -0.7922 -0.5847
   99MOL    H4623762   4.990   3.803   6.433  2.0280 -0.2024  0.6779
   99MOL    H4723763   4.920   3.950   6.479  1.0866  1.1501  0.0365
   99MOL    H4823764   4.885   3.796   6.567 -1.1264  2.1187  0.5618
   99MOL    H4923765   5.228   4.087   6.429  1.6997 -0.5446  1.8201
   99MOL    C5023766   5.180   3.760   6.574 -0.3023  0.0215 -0.4236
   99MOL    C5123767   5.322   3.728   6.627  0.1722  0.5432 -0.0847
   99MOL    C5223768   5.406   3.858   6.626  0.1114 -0.4953 -0.0483
   99MOL    C5323769   5.320   3.675   6.770  0.1446  0.3838 -0.3117
   99MOL    O5423770   5.219   3.639   6.827  0.5779 -0.3010 -0.8145
   99MOL    O5523771   5.451   3.668   6.815  0.0134 -0.3735 -0.1885
   99MOL    H5623772   5.119   3.670   6.583  1.8158 -1.6512 -2.1739
   99MOL    H5723773   5.190   3.768   6.466  0.2260 -2.9452 -0.6194
   99MOL    H5823774   5.372   3.929   6.701 -0.6284 -1.0402  0.1358
   99MOL    H5923775   5.405   3.913   6.532  0.4549 -0.6187 -0.1261
   99MOL    H6023776   5.513   3.850   6.648  0.1685  0.2947 -0.0278
   99MOL    H6123777   5.453   3.653   6.908 -0.8699  1.6758  0.1859
   99MOL    C6223778   5.399   3.624   6.536  0.3025 -0.1240 -0.0054
   99MOL    C6323779   5.368   3.467   6.535  0.4356  0.5927 -0.1510
   99MOL    C6423780   5.401   3.401   6.671  0.4635  0.4922  1.0635
   99MOL    C6523781   5.222   3.434   6.504  0.8528  0.3704  0.1819
   99MOL    O6623782   5.176   3.416   6.389 -0.1858  0.1468 -0.3987
   99MOL    O6723783   5.140   3.428   6.610  0.4864 -0.1943 -0.0912
   99MOL    H6823784   5.391   3.664   6.435  1.0026 -0.7869 -0.3276
   99MOL    H6923785   5.501   3.629   6.574  1.0144 -1.9051 -1.6146
   99MOL    H7023786   5.385   3.293   6.666 -0.1101  0.6338 -0.2976
   99MOL    H7123787   5.325   3.424   6.746  1.6501  0.5873  2.2552
   99MOL    H7223788   5.497   3.437   6.708  0.1170  1.9815  0.5307
   99MOL    H7323789   5.050   3.421   6.583  0.3900 -0.1797  0.2233
   99MOL    C7423790   5.461   3.416   6.420  0.0387  0.4392 -0.1560
   99MOL    C7523791   5.502   3.268   6.403  0.2541  0.3486  0.2717
   99MOL    C7623792   5.383   3.170   6.412  0.4229 -0.5964  0.5227
   99MOL    C7723793   5.559   3.269   6.256  0.3770  0.0861 -0.1700
   99MOL    O7823794   5.651   3.348   6.220  0.5606  0.1943  0.0208
   99MOL    O7923795   5.479   3.208   6.168 -0.1815  0.2312 -0.1649
   99MOL    H8023796   5.425   3.446   6.321  1.6901  1.9621 -0.3099
   99MOL    H8123797   5.558   3.464   6.429  0.0542  1.0929 -3.1312
   99MOL    H8223798   5.398   3.067   6.381  1.1781  0.1142 -1.5407
   99MOL    H8323799   5.305   3.209   6.347  0.4530  2.2706  2.1158
   99MOL    H8423800   5.346   3.160   6.514 -1.4761 -0.1867 -0.1067
   99MOL    H8523801   5.503   3.223   6.077  0.0494  0.5980 -0.0458
   99MOL    C8623802   5.614   3.233   6.512  0.4079 -0.6520 -0.1052
   99MOL    C8723803   5.729   3.126   6.497 -0.2388 -0.4256 -0.1137
   99MOL    C8823804   5.667   3.009   6.410  0.6165  0.2386 -0.8126
   99MOL    C8923805   5.855   3.188   6.426 -0.1318  0.4176  0.6860
   99MOL    O9023806   5.879   3.310   6.418  0.2381 -0.6615 -0.2471
   99MOL    O9123807   5.938   3.091   6.381  0.1601  0.0970  0.0408
   99MOL    H9223808   5.660   3.328   6.539  0.3943 -0.1843 -1.6402
   99MOL    H9323809   5.566   3.204   6.605  2.5673 -0.0009  1.2671
   99MOL    H9423810   5.695   3.018   6.305 -1.1246  1.4741 -1.1866
   99MOL    H9523811   5.564   2.975   6.422  1.0588 -1.2681 -1.1719
   99MOL    H9623812   5.717   2.913   6.428 -1.0787 -0.2273  1.5952
   99MOL    H9723813   6.000   3.135   6.326 -0.6815  0.3810 -0.7059
   99MOL    C9823814   5.772   3.048   6.628 -0.0341  0.0487  0.4460
   99MOL    C9923815   5.825   3.114   6.759  0.4762 -0.0611  0.7310
   99MOL   C10023816   5.981   3.122   6.750  0.2641 -0.5608  0.0357
   99MOL   C10123817   5.776   3.260   6.784 -0.0984 -0.1328 -0.2455
   99MOL   O10223818   5.685   3.282   6.860 -0.3106 -0.7067  0.1620
   99MOL   O10323819   5.852   3.357   6.728  0.0221  0.0458  0.8726
   99MOL   H10423820   5.680   2.992   6.642 -0.1744  0.0470 -0.4559
   99MOL   H10523821   5.842   2.969   6.600 -0.4323  0.5264 -2.0379
   99MOL   H10623822   6.023   3.160   6.843 -0.1239 -0.1708  0.0519
   99MOL   H10723823   6.024   3.183   6.670  1.3804 -1.8702 -0.3775
   99MOL   H10823824   6.042   3.034   6.730  2.7266  1.3926 -1.3828
   99MOL   H10923825   5.829   3.431   6.783 -1.2169 -0.6703  1.3396
   99MOL   C11023826   5.806   3.031   6.889 -0.0229 -0.0919  0.3345
   99MOL   C11123827   5.687   2.932   6.911 -0.1953  0.1005  0.0154
   99MOL   C11223828   5.549   3.007   6.899 -0.1527 -0.0482 -0.0124
   99MOL   C11323829   5.713   2.811   6.815 -0.0978  0.1815 -0.1068
   99MOL   O11423830   5.634   2.771   6.730  0.1823 -0.1698 -0.3758
   99MOL   O11523831   5.829   2.749   6.842  0.1579 -0.5134  0.0426
   99MOL   H11623832   5.899   2.977   6.907  0.5313  0.4955 -0.7220
   99MOL   H11723833   5.800   3.104   6.969  0.8413  1.1163 -0.6918
   99MOL   H11823834   5.540   3.060   6.804  0.5305 -0.2820 -0.2134
   99MOL   H11923835   5.534   3.080   6.978 -1.0547 -0.6291  0.3704
   99MOL   H12023836   5.461   2.942   6.894 -0.5709  0.5939 -1.2905
   99MOL   H12123837   5.825   2.687   6.771  0.0807  0.6663 -1.0123
   99MOL   C12223838   5.702   2.889   7.063  0.1377  0.2745 -0.2980
   99MOL   C12323839   5.600   2.789   7.143 -0.4043  0.4506  0.2892
   99MOL   C12423840   5.445   2.827   7.137 -0.3792 -0.4512  0.5434
   99MOL   C12523841   5.595   2.642   7.092  0.6341  0.0492 -0.7074
   99MOL   O12623842   5.656   2.590   6.999  0.0266  0.2012 -0.1802
   99MOL   O12723843   5.510   2.563   7.177 -0.4973 -0.2798 -0.1655
   99MOL   H12823844   5.798   2.839   7.076  0.8624  1.2153 -1.7770
   99MOL   H12923845   5.705   2.981   7.122  0.3363  0.3362 -0.4029
   99MOL   H13023846   5.431   2.935   7.134  1.3682 -0.2339 -0.8705
   99MOL   H13123847   5.390   2.799   7.226 -0.0749 -3.1184 -0.0665
   99MOL   H13223848   5.395   2.789   7.048  1.5800  0.8008 -1.1515
   99MOL   H13323849   5.493   2.472   7.159 -0.6188 -0.7488  2.1929
   99MOL   C13423850   5.649   2.778   7.291  0.3841  0.1167 -1.2393
   99MOL   C13523851   5.683   2.903   7.386  0.2927 -1.1014  0.5404
   99MOL   C13623852   5.833   2.941   7.372  0.0633  0.5802  0.0876
   99MOL   C13723853   5.589   3.023   7.353  0.0758 -0.1856 -0.7871
   99MOL   O13823854   5.468   3.011   7.365 -0.1587  0.1649 -0.6196
   99MOL   O13923855   5.659   3.131   7.313 -0.3627 -0.3709  0.3212
   99MOL   H14023856   5.584   2.705   7.340  0.1437  0.2108 -1.4187
   99MOL   H14123857   5.737   2.713   7.295  1.1716  1.1596 -1.3189
   99MOL   H14223858   5.852   3.031   7.430 -1.8757  0.2118  1.3540
   99MOL   H14323859   5.865   2.946   7.269 -1.6633 -0.4021 -0.5311
   99MOL   H14423860   5.889   2.852   7.400  0.1189  1.0211  1.4113
   99MOL   H14523861   5.610   3.209   7.293 -0.0312 -0.0807  0.6236
   99MOL   C14623862   5.636   2.873   7.537  0.3679  0.4447 -0.0812
   99MOL   C14723863   5.714   2.778   7.629 -0.4930 -0.8270  0.5650
   99MOL   C14823864   5.729   2.637   7.565  0.4583  0.2769  0.3842
   99MOL   C14923865   5.852   2.838   7.661 -0.0577  0.1771 -0.0602
   99MOL   O15023866   5.962   2.781   7.658 -0.9174  0.2682  0.3340
   99MOL   O15123867   5.843   2.966   7.691  0.7643  0.1095  0.4387
   99MOL   H15223868   5.618   2.969   7.583 -3.2550  0.1777 -0.7533
   99MOL   H15323869   5.537   2.826   7.538  0.9603 -0.8249  0.0856
   99MOL   H15423870   5.635   2.590   7.537  0.1760  0.3711  1.1406
   99MOL   H15523871   5.773   2.567   7.637 -2.3411 -0.1478  1.7603
   99MOL   H15623872   5.793   2.632   7.477 -0.4173  2.4150 -0.4183
   99MOL   H15723873   5.926   2.995   7.725  0.5263 -1.5786  2.5134
   99MOL   C15823874   5.630   2.761   7.764 -0.5893 -0.0969 -0.8255
   99MOL   C15923875   5.688   2.721   0.140 -0.2802  0.7510  0.4654
   99MOL   C16023876   5.568   2.677   0.229  0.0708 -0.0160  0.1326
   99MOL   C16123877   5.778   2.594   0.117  0.6672 -0.0670 -0.6892
   99MOL   O16223878   5.903   2.593   0.124  0.1696 -0.1296 -0.0145
   99MOL   O16323879   5.707   2.478   0.091  0.3527  0.1794  0.1556
   99MOL   H16423880   5.582   2.856   0.021  2.6672  1.7964 -1.6199
   99MOL   H16523881   5.542   2.700   7.745 -0.6592  0.3613 -2.0130
   99MOL   H16623882   5.595   2.643   0.328  3.4577 -2.7367 -1.6039
   99MOL   H16723883   5.511   2.595   0.185 -3.9647  2.0406  1.3170
   99MOL   H16823884   5.503   2.764   0.237  1.8262  1.3485 -0.0599
   99MOL   H16923885   5.764   2.409   0.060 -1.7937 -0.4071 -2.6507
   99MOL   C17023886   5.776   2.842   0.197  0.7196 -0.3467  0.2789
   99MOL   C17123887   5.795   2.865   0.352  0.3806  0.0485  1.5141
   99MOL   C17223888   5.668   2.934   0.404  0.3193  0.8914  0.3422
   99MOL   C17323889   5.827   2.743   0.439  0.1524  0.3667  0.2271
   99MOL   O17423890   5.846   2.624   0.408 -0.0713  0.1370  0.1790
   99MOL   O17523891   5.827   2.782   0.568 -0.1188  0.0183  0.1633
   99MOL   H17623892   5.879   2.825   0.166  0.4061  0.3363 -1.1593
   99MOL   H17723893   5.741   2.936   0.155  2.0986  0.9260  1.8822
   99MOL   H17823894   5.694   2.984   0.498  2.2139 -1.1275  0.9317
   99MOL   H17923895   5.584   2.868   0.426  1.3678  0.5140  3.4247
   99MOL   H18023896   5.632   3.008   0.332 -1.6415 -0.4716 -0.1045
   99MOL   H18123897   5.807   2.706   0.621  0.4749 -0.0428  0.2987
   99MOL   C18223898   5.915   2.966   0.385 -0.1140 -0.1908  0.8039
   99MOL   C18323899   6.064   2.942   0.338 -0.0310  0.4948 -0.6811
   99MOL   C18423900   6.122   2.806   0.366  0.5276 -0.1064  0.0582
   99MOL   C18523901   6.087   2.972   0.188  0.3791 -0.0196 -1.0647
   99MOL   O18623902   6.009   3.042   0.128  0.9389  0.2921  0.5068
   99MOL   O18723903   6.207   2.931   0.139  0.0600  0.0410  0.0739
   99MOL   H18823904   5.888   3.067   0.353  2.6806  0.1987 -0.4422
   99MOL   H18923905   5.908   2.995   0.490 -2.7552 -0.1974  0.6576
   99MOL   H19023906   6.229   2.802   0.346  0.5891  0.9476  0.1531
   99MOL   H19123907   6.068   2.735   0.303 -1.7373  2.7724 -1.3488
   99MOL   H19223908   6.106   2.773   0.469 -2.7061 -0.0591 -0.3944
   99MOL   H19323909   6.222   2.948   0.048  1.1983  3.0740  0.7634
   99MOL   C19423910   6.165   3.036   0.423 -0.4931  0.1085  0.2822
   99MOL   C19523911   6.148   3.188   0.451 -0.2381  0.5522  0.1166
   99MOL   C19623912   6.096   3.262   0.323 -0.0003  0.3438  0.7296
   99MOL   C19723913   6.046   3.202   0.570  0.3187 -0.5160  0.1931
   99MOL   O19823914   6.026   3.120   0.658 -0.1722 -0.7257  0.3908
   99MOL   O19923915   5.989   3.327   0.577 -0.2168 -0.3530 -0.4355
   99MOL   H20023916   6.174   2.999   0.525 -0.0617 -0.2236  0.1211
   99MOL   H20123917   6.267   3.020   0.388 -1.1758 -1.5940 -1.0182
   99MOL   H20223918   6.145   3.239   0.229  1.3437  0.9411  1.2716
   99MOL   H20323919   6.091   3.371   0.328  4.0466  0.6606 -0.3431
   99MOL   H20423920   5.990   3.238   0.310  0.6857 -2.3925  0.0420
   99MOL   H20523921   6.014   3.393   0.514 -0.8072  1.5120  1.2286
   99MOL   C20623922   6.292   3.248   0.486  0.3718 -0.4000  0.1705
   99MOL   C20723923   6.384   3.245   0.614 -0.2301 -0.0814  0.6477
   99MOL   C20823924   6.293   3.256   0.737  1.0586 -0.0524  0.1242
   99MOL   C20923925   6.466   3.112   0.624 -0.0649  0.3661  0.6928
   99MOL   O21023926   6.446   3.008   0.561 -0.1946  0.0985  0.1026
   99MOL   O21123927   6.564   3.116   0.719  0.0989  0.3592  0.0803
   99MOL   H21223928   6.356   3.224   0.401  0.4928  2.2184 -0.5169
   99MOL   H21323929   6.278   3.355   0.474 -0.1581 -0.5653 -0.7148
   99MOL   H21423930   6.231   3.172   0.768 -1.2840  1.1272 -1.2687
   99MOL   H21523931   6.218   3.335   0.731  0.5732 -0.4972  0.2563
   99MOL   H21623932   6.359   3.270   0.823 -0.9419  2.5520  1.3232
   99MOL   H21723933   6.615   3.039   0.701 -0.8735 -0.4896  0.8655
   99MOL   C21823934   6.482   3.369   0.618 -0.3971 -0.3219  0.2573
   99MOL   C21923935   6.585   3.407   0.505  0.1830  0.3270  0.0262
   99MOL   C22023936   6.674   3.293   0.453 -0.5707 -0.8768 -0.0963
   99MOL   C22123937   6.529   3.494   0.394 -0.3261  0.7538  0.2835
   99MOL   O22223938   6.589   3.504   0.289 -0.0884 -0.3671 -0.2631
   99MOL   O22323939   6.400   3.546   0.410  0.3450  0.0846  0.1538
   99MOL   H22423940   6.420   3.456   0.639  0.5696 -0.0991  2.3329
   99MOL   H22523941   6.542   3.364   0.709  1.3657  0.2058 -0.8383
   99MOL   H22623942   6.724   3.237   0.533 -0.6560 -0.0541  0.5403
   99MOL   H22723943   6.751   3.343   0.393 -2.4273  4.0546  1.3999
   99MOL   H22823944   6.625   3.217   0.393 -0.7569 -0.5848 -0.3115
   99MOL   H22923945   6.365   3.589   0.333  0.7745  1.6937  0.8481
   99MOL   C23023946   6.684   3.504   0.582  0.5225 -0.3848  0.2852
   99MOL   C23123947   6.631   3.635   0.654 -0.3457  0.0129 -0.4418
   99MOL   C23223948   6.595   3.625   0.803  0.1783 -0.3860 -0.4730
   99MOL   C23323949   6.725   3.753   0.623 -0.4830  0.1963 -0.6727
   99MOL   O23423950   6.850   3.739   0.617 -0.2934 -0.4490 -0.2932
   99MOL   O23523951   6.651   3.860   0.609  0.1691 -0.6613 -0.5464
   99MOL   H23623952   6.747   3.457   0.657 -1.7269 -2.2369  1.0744
   99MOL   H23723953   6.746   3.536   0.498 -0.1087 -2.4644 -0.9960
   99MOL   H23823954   6.497   3.579   0.809 -0.5504  1.1748 -0.0145
   99MOL   H23923955   6.583   3.726   0.841  1.0322 -0.0675 -1.0264
   99MOL   H24023956   6.671   3.571   0.860  0.8469 -0.6801 -1.6325
   99MOL   H24123957   6.708   3.935   0.610  1.8970 -1.9598  0.7071
   99MOL   H24223958   6.537   3.663   0.606 -0.1319  0.1939 -0.7613
  100MOL     C123959   6.761   3.351   4.507  0.7293  0.1273 -0.1100
  100MOL     C223960   6.897   3.386   4.577 -0.0561  0.8357  0.9734
  100MOL     C323961   6.908   3.538   4.565  0.4203  0.5429 -0.1253
  100MOL     C423962   6.884   3.332   4.722 -0.1324 -0.1840 -0.0642
  100MOL     O523963   6.868   3.401   4.822 -0.6597 -0.0669 -0.1210
  100MOL     O623964   6.880   3.201   4.726  0.3503  0.6201 -0.4194
  100MOL     H723965   6.775   3.403   4.412 -0.9192  1.8937  0.5696
  100MOL     H823966   6.675   3.405   4.546  2.6426  1.1104  2.9531
  100MOL     H923967   6.932   3.559   4.461 -1.7227  0.1946 -0.6981
  100MOL    H1023968   6.985   3.581   4.629  0.6152  0.0391 -0.0176
  100MOL    H1123969   6.819   3.586   4.603 -0.9748 -2.9031  1.2308
  100MOL    H1223970   6.875   3.178   4.817  0.9240  1.3219 -0.1981
  100MOL    H1323971   6.735   3.247   4.493 -0.9086  0.4683  0.2489
  100MOL    C1423972   7.007   3.314   4.492  0.7376 -0.1782 -0.1447
  100MOL    C1523973   7.166   3.332   4.518  0.8854 -0.5536  0.4331
  100MOL    C1623974   7.196   3.314   4.667  0.0995  0.8068 -0.4254
  100MOL    C1723975   7.231   3.219   4.443  0.5793  0.5472 -0.1659
  100MOL    O1823976   7.313   3.138   4.482  0.1108  0.2774 -0.2942
  100MOL    O1923977   7.214   3.233   4.308 -0.0720 -0.1460  0.1473
  100MOL    H2023978   6.989   3.206   4.491  2.8392 -0.5793  1.1923
  100MOL    H2123979   6.989   3.343   4.389 -1.9746 -0.3366  0.2392
  100MOL    H2223980   7.298   3.291   4.699  0.2284  1.0026 -0.6951
  100MOL    H2323981   7.146   3.220   4.691 -1.1762  1.2602 -1.2745
  100MOL    H2423982   7.162   3.395   4.732  3.6088 -1.0013  3.9697
  100MOL    H2523983   7.283   3.182   4.268 -0.8643  0.4214 -2.0153
  100MOL    C2623984   7.218   3.473   4.463 -0.2501  0.0936 -0.0672
  100MOL    C2723985   7.372   3.513   4.437  0.0207  0.4218 -0.3708
  100MOL    C2823986   7.463   3.473   4.560 -0.5087 -0.2096  0.0429
  100MOL    C2923987   7.424   3.435   4.308  0.2209  0.0338 -0.4274
  100MOL    O3023988   7.515   3.349   4.314  0.1778 -0.2242  0.7680
  100MOL    O3123989   7.369   3.474   4.191  0.3001 -0.3370  0.1303
  100MOL    H3223990   7.175   3.482   4.363  1.1445  1.9478 -0.5296
  100MOL    H3323991   7.171   3.549   4.525 -0.8624 -0.0009 -0.4048
  100MOL    H3423992   7.429   3.512   4.655 -0.0710 -2.4151  1.1387
  100MOL    H3523993   7.560   3.515   4.533 -0.9190 -0.2763 -1.5965
  100MOL    H3623994   7.482   3.366   4.564 -3.0005 -0.7130 -0.6894
  100MOL    H3723995   7.304   3.541   4.205  0.2851 -0.0509 -1.2245
  100MOL    C3823996   7.375   3.673   4.409 -0.7771 -0.2640  0.3430
  100MOL    C3923997   7.389   3.786   4.521  0.1137 -1.1180 -0.8123
  100MOL    C4023998   7.281   3.765   4.635 -0.0683 -0.0232 -0.8059
  100MOL    C4123999   7.527   3.775   4.595  0.0559 -0.7821 -0.3492
  100MOL    O4224000   7.552   3.769   4.720 -0.3236  0.4830 -0.3204
  100MOL    O4324001   7.626   3.772   4.504  0.0252 -0.0219  0.3544
  100MOL    H4424002   7.462   3.680   4.344 -0.7077 -2.5186  0.1400
  100MOL    H4524003   7.298   3.714   4.343 -0.1818  4.2967  2.3334
  100MOL    H4624004   7.179   3.792   4.610 -0.1990 -0.0262 -0.2716
  100MOL    H4724005   7.295   3.818   4.729  0.3703 -0.3603 -0.6786
  100MOL    H4824006   7.271   3.661   4.668 -0.0788  0.0034 -0.7247
  100MOL    H4924007   7.701   3.745   4.556  0.2360  0.1531  0.1398
  100MOL    C5024008   7.360   3.923   4.444 -0.0723 -0.4071  0.2971
  100MOL    C5124009   7.376   4.070   4.504 -0.3204  0.6750  0.9951
  100MOL    C5224010   7.344   4.068   4.661 -0.3707 -0.1456 -0.4328
  100MOL    C5324011   7.517   4.127   4.491  0.2886 -0.3154  0.1313
  100MOL    O5424012   7.610   4.060   4.450 -0.1448 -0.6150 -0.3207
  100MOL    O5524013   7.536   4.253   4.531  0.3340  0.1774 -0.5677
  100MOL    H5624014   7.424   3.922   4.356 -0.5767  3.7355 -0.2174
  100MOL    H5724015   7.259   3.922   4.404  0.6683 -0.3260 -1.6701
  100MOL    H5824016   7.248   4.017   4.669  0.1165 -0.9442  0.4254
  100MOL    H5924017   7.337   4.170   4.699  3.0137 -0.5317  1.3562
  100MOL    H6024018   7.403   4.019   4.738  0.4967  1.9784  0.2946
  100MOL    H6124019   7.630   4.253   4.519  0.3932  0.5873 -0.1521
  100MOL    C6224020   7.275   4.167   4.440  0.7144  0.3776 -0.4016
  100MOL    C6324021   7.234   4.174   4.294 -0.2243 -0.0756 -0.0119
  100MOL    C6424022   7.339   4.119   4.197  0.5494 -0.2414  0.0231
  100MOL    C6524023   7.099   4.091   4.273 -0.2712 -0.8324  0.3362
  100MOL    O6624024   7.092   3.977   4.222  0.1476 -0.5144 -0.3662
  100MOL    O6724025   6.995   4.155   4.326  0.0885  0.2875  0.2173
  100MOL    H6824026   7.182   4.158   4.496  0.0596 -1.9564 -1.7693
  100MOL    H6924027   7.309   4.268   4.464  1.2152  0.1096  0.0147
  100MOL    H7024028   7.318   4.148   4.094  0.2909 -1.4004 -0.2553
  100MOL    H7124029   7.337   4.011   4.195 -1.3089 -0.2040 -1.6883
  100MOL    H7224030   7.444   4.139   4.221  0.6345 -0.8041  0.1216
  100MOL    H7324031   6.913   4.107   4.320  0.7020 -1.0369  2.0204
  100MOL    C7424032   7.200   4.324   4.260 -0.6119  0.0922  0.1617
  100MOL    C7524033   7.306   4.427   4.207  0.1605  0.0534  0.0074
  100MOL    C7624034   7.453   4.416   4.249  0.0863 -0.3573 -0.7026
  100MOL    C7724035   7.308   4.426   4.052 -0.3007 -0.1280 -0.3947
  100MOL    O7824036   7.226   4.359   3.982  0.1813 -0.0045  0.5022
  100MOL    O7924037   7.389   4.528   3.999 -0.3533 -0.3137  0.6331
  100MOL    H8024038   7.119   4.319   4.187  1.6966 -2.6194 -2.3653
  100MOL    H8124039   7.140   4.355   4.346 -0.3032  1.1971 -0.0178
  100MOL    H8224040   7.521   4.370   4.178  0.3693 -2.1673  0.7236
  100MOL    H8324041   7.468   4.356   4.339  0.7547 -0.8558 -1.1444
  100MOL    H8424042   7.496   4.513   4.272  1.5633 -1.1193 -0.2399
  100MOL    H8524043   7.382   4.515   3.905 -4.4259 -0.8649  0.9494
  100MOL    C8624044   7.248   4.570   4.246  0.3272  0.2946 -0.4535
  100MOL    C8724045   7.238   4.631   4.391  0.2224 -0.2562 -0.0175
  100MOL    C8824046   7.086   4.619   4.435 -0.0856 -0.1245  0.4039
  100MOL    C8924047   7.328   4.559   4.501 -0.1125 -0.3636  0.5053
  100MOL    O9024048   7.277   4.484   4.588  0.1939 -0.5671  0.1557
  100MOL    O9124049   7.464   4.573   4.489 -0.4482 -0.1502 -0.1334
  100MOL    H9224050   7.296   4.641   4.179 -0.8551  0.1463 -1.4844
  100MOL    H9324051   7.145   4.562   4.209  0.9567 -1.3438 -1.9035
  100MOL    H9424052   7.094   4.641   4.542 -1.1195  1.2558  0.2150
  100MOL    H9524053   7.063   4.513   4.435 -0.8335  0.0167 -1.9434
  100MOL    H9624054   7.008   4.673   4.382  0.7226  0.0507 -0.6115
  100MOL    H9724055   7.511   4.521   4.552  1.3455 -0.3917 -1.6168
  100MOL    C9824056   7.274   4.782   4.374 -0.3217 -0.1001 -0.0253
  100MOL    C9924057   7.241   4.904   4.480  0.7081  0.1154 -0.4577
  100MOL   C10024058   7.290   4.866   4.624 -0.3725  0.0645 -0.3713
  100MOL   C10124059   7.317   5.025   4.423  0.4859 -0.8102 -0.1791
  100MOL   O10224060   7.334   5.040   4.303  0.6712  0.2474  0.2850
  100MOL   O10324061   7.386   5.110   4.507 -0.4300  0.4491 -0.1483
  100MOL   H10424062   7.382   4.785   4.360 -0.7161 -0.2715 -3.3873
  100MOL   H10524063   7.238   4.825   4.281  1.7482  0.1375 -0.7343
  100MOL   H10624064   7.272   4.944   4.698 -1.4635 -0.7465  0.2390
  100MOL   H10724065   7.395   4.839   4.630 -0.3762 -0.5763 -2.5917
  100MOL   H10824066   7.225   4.790   4.669  0.1141  0.6905  1.4477
  100MOL   H10924067   7.432   5.180   4.464 -0.2930 -0.6594 -1.8323
  100MOL   C11024068   7.086   4.938   4.473  0.2518  0.2571 -0.2835
  100MOL   C11124069   7.006   5.064   4.532 -0.1903  0.1077  0.5508
  100MOL   C11224070   7.047   5.088   4.680  0.1421  0.1848  1.0483
  100MOL   C11324071   7.042   5.197   4.463 -0.4671 -0.8069 -0.2253
  100MOL   O11424072   7.059   5.307   4.519 -0.2848 -0.0417 -0.0956
  100MOL   O11524073   7.046   5.180   4.330  0.6576 -0.4776 -0.3170
  100MOL   H11624074   7.059   4.934   4.368 -2.6009 -0.4555  0.4334
  100MOL   H11724075   7.046   4.854   4.529 -0.2768  1.9376  1.9171
  100MOL   H11824076   7.149   5.127   4.688  0.5730 -0.9470  1.3081
  100MOL   H11924077   7.051   4.993   4.735 -0.3517 -1.0259 -0.9642
  100MOL   H12024078   6.983   5.160   4.731 -0.5336 -1.4062  2.4938
  100MOL   H12124079   7.065   5.265   4.291 -1.1279  1.4886  2.8420
  100MOL   C12224080   6.853   5.034   4.510 -0.3832 -0.4486  0.2559
  100MOL   C12324081   6.755   4.939   4.591 -0.9452 -0.3013  0.3880
  100MOL   C12424082   6.815   4.789   4.606  0.2889 -0.6182  0.0185
  100MOL   C12524083   6.751   4.999   4.730  0.0052  1.2067 -0.3315
  100MOL   O12624084   6.786   4.936   4.828 -0.7617 -0.3935 -0.8358
  100MOL   O12724085   6.709   5.126   4.728  0.0784  0.4097 -0.0030
  100MOL   H12824086   6.814   5.136   4.508  0.4597 -0.1390 -1.1417
  100MOL   H12924087   6.841   5.000   4.407 -1.6335  0.7871 -0.0232
  100MOL   H13024088   6.908   4.773   4.661  2.0519  0.8213 -2.4327
  100MOL   H13124089   6.833   4.742   4.509 -0.6783  1.4720 -1.2119
  100MOL   H13224090   6.748   4.717   4.652 -2.0142  0.9631 -0.7990
  100MOL   H13324091   6.728   5.167   4.811 -1.2406  1.2343 -0.0955
  100MOL   C13424092   6.604   4.949   4.541  0.5868  0.0635  0.2117
  100MOL   C13524093   6.556   4.872   4.415 -0.0304  0.2716  0.4070
  100MOL   C13624094   6.653   4.882   4.298  0.5448 -0.3906 -0.0641
  100MOL   C13724095   6.536   4.722   4.447 -0.4269  0.4332 -0.7727
  100MOL   O13824096   6.530   4.628   4.367  0.1351  0.1030  0.1336
  100MOL   O13924097   6.518   4.701   4.582 -0.1609  0.3473 -0.0479
  100MOL   H14024098   6.528   4.930   4.616  0.8771 -0.5775  0.3457
  100MOL   H14124099   6.575   5.051   4.514 -1.5159 -0.8674 -1.0938
  100MOL   H14224100   6.616   4.824   4.214 -0.4125 -1.2084  0.9108
  100MOL   H14324101   6.741   4.825   4.329  2.0221  1.4002 -0.8988
  100MOL   H14424102   6.690   4.980   4.271  0.7416 -0.9279 -1.7970
  100MOL   H14524103   6.509   4.611   4.608  1.1056 -0.5440 -2.5205
  100MOL   C14624104   6.418   4.938   4.361  0.2056 -0.1272 -0.5663
  100MOL   C14724105   6.263   4.902   4.391 -1.0148  0.3876 -0.2912
  100MOL   C14824106   6.181   5.018   4.334 -0.6636 -0.7674 -0.0424
  100MOL   C14924107   6.234   4.776   4.306  0.3422 -0.0840 -0.0620
  100MOL   O15024108   6.223   4.665   4.357 -0.1139  0.1898 -0.4183
  100MOL   O15124109   6.222   4.803   4.173 -0.7039  0.1203 -0.2703
  100MOL   H15224110   6.421   5.046   4.372  0.6411 -0.2955  1.1202
  100MOL   H15324111   6.433   4.925   4.254  2.3958  0.6183 -0.3556
  100MOL   H15424112   6.218   5.068   4.244 -0.7231 -0.1579  0.2671
  100MOL   H15524113   6.173   5.104   4.400 -0.6465 -0.4591 -0.4393
  100MOL   H15624114   6.079   4.989   4.311 -0.8880  1.1579 -1.6257
  100MOL   H15724115   6.235   4.894   4.149  1.6828  0.0345  0.5237
  100MOL   C15824116   6.233   4.871   4.540  0.3152  0.6687 -0.8481
  100MOL   C15924117   6.209   4.976   4.655 -0.1522  0.4784 -0.0103
  100MOL   C16024118   6.312   5.091   4.656  0.5097 -0.4266  0.0857
  100MOL   C16124119   6.068   5.046   4.643 -0.2160 -0.0607  0.5296
  100MOL   O16224120   5.984   5.019   4.555 -0.3061 -0.2408 -0.2479
  100MOL   O16324121   6.048   5.137   4.737 -0.2362  0.2839 -0.4017
  100MOL   H16424122   6.140   4.814   4.549  1.1658 -0.2365  3.2570
  100MOL   H16524123   6.304   4.799   4.580  0.6148  1.5313  0.1993
  100MOL   H16624124   6.399   5.064   4.715  0.3595  1.1063  1.0481
  100MOL   H16724125   6.270   5.180   4.704  1.0599 -0.4157  0.5488
  100MOL   H16824126   6.359   5.125   4.564  0.1239 -3.1327 -1.1529
  100MOL   H16924127   5.970   5.189   4.721 -0.1183  0.8693  0.9142
  100MOL   C17024128   6.212   4.908   4.797  0.5198  0.8698  0.6360
  100MOL   C17124129   6.143   4.773   4.840 -0.4401 -1.0990  0.0667
  100MOL   C17224130   5.986   4.790   4.845 -0.1383  0.6735 -0.4668
  100MOL   C17324131   6.169   4.659   4.745  0.3643  0.1149 -0.3492
  100MOL   O17424132   6.083   4.610   4.670  0.0544 -0.4303 -0.5291
  100MOL   O17524133   6.294   4.609   4.758  0.1951 -0.1814 -0.0058
  100MOL   H17624134   6.316   4.887   4.820  0.4953 -0.5800 -0.4523
  100MOL   H17724135   6.177   4.981   4.869 -2.8494  0.1855 -0.2069
  100MOL   H17824136   5.939   4.833   4.934 -1.6380 -0.3734 -0.7429
  100MOL   H17924137   5.932   4.696   4.854 -3.1399  2.4827  1.5372
  100MOL   H18024138   5.939   4.838   4.760 -2.2698 -2.9358 -1.4261
  100MOL   H18124139   6.304   4.537   4.697 -1.1402 -1.0968  0.8271
  100MOL   C18224140   6.208   4.747   4.985 -0.4414  0.8625 -0.3851
  100MOL   C18324141   6.153   4.643   5.092 -0.3797  0.2523 -0.3786
  100MOL   C18424142   6.100   4.516   5.021  0.0501 -0.2404  0.0373
  100MOL   C18524143   6.271   4.592   5.180  0.6195  0.2109  0.3955
  100MOL   O18624144   6.275   4.483   5.228 -0.7806  0.0870  0.2356
  100MOL   O18724145   6.358   4.690   5.201  0.8916 -0.7672  0.3656
  100MOL   H18824146   6.309   4.710   4.966  0.2049  2.7951 -0.8225
  100MOL   H18924147   6.228   4.843   5.032 -0.4276  0.4816  0.3850
  100MOL   H19024148   6.081   4.430   5.085  1.3308  0.1189  0.9242
  100MOL   H19124149   6.166   4.483   4.941 -0.3515 -1.6417  0.2589
  100MOL   H19224150   6.008   4.522   4.964  0.2765  1.0248 -0.1948
  100MOL   H19324151   6.441   4.660   5.236 -0.1366 -1.7587  2.0081
  100MOL   C19424152   6.049   4.716   5.178 -0.5286  0.2120  0.0037
  100MOL   C19524153   6.014   4.685   5.323  0.3136 -0.3147  0.4901
  100MOL   C19624154   5.996   4.532   5.354 -0.1644 -0.2854  0.2823
  100MOL   C19724155   6.122   4.756   5.419 -0.0182  0.0468 -0.1079
  100MOL   O19824156   6.171   4.697   5.519 -0.0144 -0.4599  0.2492
  100MOL   O19924157   6.149   4.880   5.387  0.6873  0.4180 -0.0533
  100MOL   H20024158   6.077   4.821   5.172 -1.4894  0.3266 -3.7341
  100MOL   H20124159   5.958   4.718   5.118  1.1782 -1.3942 -2.7328
  100MOL   H20224160   5.904   4.515   5.409 -0.4000 -1.3000 -0.3967
  100MOL   H20324161   6.086   4.496   5.403 -0.1054  0.3272  0.6284
  100MOL   H20424162   5.985   4.470   5.264  1.9227  0.3947 -0.4713
  100MOL   H20524163   6.202   4.923   5.453  2.5037 -0.5631 -0.8367
  100MOL   C20624164   5.874   4.753   5.349  0.5383 -0.0061  0.0149
  100MOL   C20724165   5.820   4.797   5.492 -0.9251  0.3115  0.5575
  100MOL   C20824166   5.893   4.925   5.548 -0.1303 -0.4161 -0.0664
  100MOL   C20924167   5.672   4.831   5.471 -0.2312  0.3304  0.3685
  100MOL   O21024168   5.616   4.942   5.492 -0.2635 -0.3963 -0.4894
  100MOL   O21124169   5.605   4.724   5.430 -0.1606 -0.2492 -0.0936
  100MOL   H21224170   5.870   4.846   5.293  1.3025  1.0275  1.6422
  100MOL   H21324171   5.800   4.690   5.299 -0.7006  1.0219  0.5051
  100MOL   H21424172   5.845   4.989   5.622 -0.0278 -0.3800 -0.0333
  100MOL   H21524173   5.900   4.993   5.464 -0.5804 -1.1869 -0.7434
  100MOL   H21624174   5.991   4.907   5.593 -0.5133 -0.3973  0.7966
  100MOL   H21724175   5.511   4.738   5.432 -0.2493  0.1782 -3.8791
  100MOL   C21824176   5.826   4.687   5.600  0.2590  0.2730 -0.6156
  100MOL   C21924177   5.803   4.713   5.751  0.1265 -0.0984 -0.3431
  100MOL   C22024178   5.813   4.572   5.809 -0.5576 -0.6905 -0.4034
  100MOL   C22124179   5.916   4.796   5.821  0.4045  0.6066 -0.1655
  100MOL   O22224180   5.895   4.911   5.861 -0.4311  0.1879 -0.0153
  100MOL   O22324181   6.043   4.737   5.817  0.2629 -0.4118 -0.3181
  100MOL   H22424182   5.768   4.601   5.566 -3.1552  1.1755  2.6643
  100MOL   H22524183   5.924   4.641   5.585 -1.5680 -4.0978  0.2075
  100MOL   H22624184   5.829   4.572   5.917 -2.0898  2.2386 -0.1493
  100MOL   H22724185   5.896   4.513   5.768 -0.0800 -1.1112  1.1087
  100MOL   H22824186   5.723   4.516   5.785 -1.2803 -0.6711  2.1625
  100MOL   H22924187   6.040   4.654   5.772 -0.3701 -0.1628 -0.7337
  100MOL   C23024188   5.661   4.773   5.780  0.1600  0.7780 -0.6480
  100MOL   C23124189   5.606   4.766   5.930  0.7816  0.5947 -0.4374
  100MOL   C23224190   5.508   4.886   5.958 -0.7289  0.0026 -0.4749
  100MOL   C23324191   5.531   4.628   5.958  0.0470  0.8361  0.4838
  100MOL   O23424192   5.570   4.535   6.039  0.4084  0.0727 -0.0535
  100MOL   O23524193   5.414   4.621   5.885  0.0209 -0.5172 -0.5415
  100MOL   H23624194   5.658   4.880   5.761  1.3666  1.3993  2.3010
  100MOL   H23724195   5.594   4.724   5.710 -0.3765  1.1804 -0.4198
  100MOL   H23824196   5.436   4.884   5.877 -0.3992 -2.3532 -0.7450
  100MOL   H23924197   5.565   4.979   5.964 -0.8985  0.0419  0.8449
  100MOL   H24024198   5.460   4.876   6.056 -0.3163  1.9343 -0.0430
  100MOL   H24124199   5.349   4.555   5.905  0.9739 -0.8352  1.6837
  100MOL   H24224200   5.690   4.780   5.998  0.1153  0.0090  0.5303
  101MOL     C124201   0.060   2.952   0.890 -1.0998  0.1384 -0.0002
  101MOL     C224202   0.012   2.804   0.878 -0.1511  0.1855 -0.1530
  101MOL     C324203   0.100   2.728   0.984 -0.0372  0.5928 -0.2388
  101MOL     C424204   7.627   2.788   0.923 -0.0309 -0.4198 -0.1247
  101MOL     O524205   7.563   2.888   0.964  0.5667 -0.5755 -0.2155
  101MOL     O624206   7.591   2.657   0.929 -0.0003 -0.0888 -0.0046
  101MOL     H724207   0.007   3.020   0.824  2.2259  1.5288 -1.3336
  101MOL     H824208   0.161   2.962   0.851 -1.1187  1.3322  0.2353
  101MOL     H924209   0.148   2.782   1.065 -1.3256  1.0418  0.2423
  101MOL    H1024210   0.168   2.657   0.937 -0.2949  1.0486 -1.3285
  101MOL    H1124211   0.038   2.665   1.049 -0.7987  0.8905 -0.6616
  101MOL    H1224212   7.650   2.593   0.891  0.1603  2.0377 -3.5816
  101MOL    H1324213   0.048   2.974   0.996 -1.1379 -0.5187  0.1365
  101MOL    C1424214   0.035   2.744   0.732  0.1375  0.5197 -0.1834
  101MOL    C1524215   7.754   2.825   0.595 -0.0774  0.6827  0.3559
  101MOL    C1624216   7.747   2.718   0.485 -0.2780 -0.2517  0.0826
  101MOL    C1724217   7.610   2.887   0.610  0.0446  0.5217  0.5267
  101MOL    O1824218   7.599   3.004   0.629 -0.1684 -0.0220 -0.1376
  101MOL    O1924219   7.512   2.790   0.612 -0.4653 -0.4396 -0.4614
  101MOL    H2024220   0.141   2.719   0.717  0.3117 -0.4106  2.3541
  101MOL    H2124221   7.756   2.645   0.727  2.3126 -0.5352 -0.1298
  101MOL    H2224222   0.077   2.676   0.458  0.4493  1.7191 -0.5148
  101MOL    H2324223   7.698   2.749   0.393 -0.1055  0.4615  0.2237
  101MOL    H2424224   7.692   2.632   0.523 -0.2984 -1.1394 -1.9296
  101MOL    H2524225   7.431   2.834   0.597  0.4983  1.0337 -1.4534
  101MOL    C2624226   0.102   2.937   0.554  0.7374  0.1849 -0.1273
  101MOL    C2724227   0.154   2.975   0.409  0.0753 -0.4052 -0.5573
  101MOL    C2824228   0.265   3.087   0.433  0.4218  0.0389  0.2157
  101MOL    C2924229   0.235   2.862   0.339 -0.5287 -1.0436 -1.0102
  101MOL    O3024230   0.211   2.815   0.230  1.0747 -0.0997  0.2174
  101MOL    O3124231   0.341   2.820   0.409  0.5296  0.2237 -0.1265
  101MOL    H3224232   0.079   3.033   0.599  1.8268  1.1393 -1.5526
  101MOL    H3324233   0.193   2.909   0.605 -0.1086 -3.2622 -0.3714
  101MOL    H3424234   0.227   3.181   0.472  1.5455  0.7008 -0.2497
  101MOL    H3524235   0.319   3.115   0.343 -1.2688  2.5836 -0.0421
  101MOL    H3624236   0.351   3.059   0.495 -0.4434 -1.0848  0.9374
  101MOL    H3724237   0.358   2.731   0.383 -1.9671 -0.1954 -0.4927
  101MOL    C3824238   0.034   3.037   0.333  0.0074  0.2860 -0.7025
  101MOL    C3924239   0.039   3.131   0.207  0.1356 -0.2006 -0.2717
  101MOL    C4024240   0.114   3.268   0.237 -0.3787  0.2180 -0.5076
  101MOL    C4124241   0.109   3.065   0.083 -0.6022 -0.1936 -0.3293
  101MOL    O4224242   0.054   3.050   7.742 -0.0331  0.8892  0.2119
  101MOL    O4324243   0.242   3.054   0.096 -0.5054  0.2603  0.6220
  101MOL    H4424244   7.735   2.951   0.324 -1.3180  1.0607  1.2980
  101MOL    H4524245   7.755   3.089   0.416  1.1749  0.3089 -0.0524
  101MOL    H4624246   0.088   3.353   0.174  0.0282 -0.8116 -2.0805
  101MOL    H4724247   0.222   3.260   0.227  0.1060  2.1297  2.5212
  101MOL    H4824248   0.087   3.299   0.338  0.5348 -3.1941  0.8582
  101MOL    H4924249   0.280   3.024   0.014 -1.5796  0.2448  0.1252
  101MOL    C5024250   7.662   3.185   0.179 -0.6168 -0.4339  0.2926
  101MOL    C5124251   7.531   3.100   0.175 -0.4879 -0.1574  0.6289
  101MOL    C5224252   7.574   2.967   0.099 -0.4211 -0.1503  0.8307
  101MOL    C5324253   7.484   3.071   0.320 -0.0609  0.0108 -0.0966
  101MOL    O5424254   7.475   2.958   0.371  0.6091 -0.7806  0.1180
  101MOL    O5524255   7.455   3.189   0.392 -0.3075  0.1987  0.3552
  101MOL    H5624256   7.641   3.257   0.259  1.7038  0.1042  0.4509
  101MOL    H5724257   7.664   3.241   0.086 -0.3472 -1.5035 -0.3619
  101MOL    H5824258   7.574   2.994   7.760 -2.0079  3.2871  1.6339
  101MOL    H5924259   7.490   2.897   0.099 -1.0906  0.6403  0.9932
  101MOL    H6024260   7.664   2.914   0.131 -0.3100  1.2702  2.9461
  101MOL    H6124261   7.409   3.171   0.473  0.3977  0.4478  0.8138
  101MOL    C6224262   7.420   3.185   0.091  0.0110 -0.5087 -0.2468
  101MOL    C6324263   7.275   3.141   0.047  0.3335 -0.3109  0.3615
  101MOL    C6424264   7.280   3.052   7.687  0.4130  0.3198  0.5931
  101MOL    C6524265   7.215   3.068   0.168  0.2477  0.3589  0.4874
  101MOL    O6624266   7.161   3.118   0.262 -0.0754 -0.2216  0.0634
  101MOL    O6724267   7.231   2.933   0.156 -0.2475 -0.0499 -0.3603
  101MOL    H6824268   7.401   3.274   0.152 -1.7113 -1.9165  1.3153
  101MOL    H6924269   7.468   3.212   7.764  0.8403 -0.1436  0.2780
  101MOL    H7024270   7.305   3.104   7.595 -1.0027 -0.3313 -0.1703
  101MOL    H7124271   7.185   3.004   7.665  1.2569 -1.3473  0.4560
  101MOL    H7224272   7.359   2.978   7.705  1.8014  1.8971  1.1044
  101MOL    H7324273   7.194   2.877   0.222 -2.0648  1.7052  0.1882
  101MOL    C7424274   7.187   3.276   0.014  0.1584  0.5860 -0.1810
  101MOL    C7524275   7.040   3.293   7.739 -0.3127  0.0900  0.6460
  101MOL    C7624276   7.025   3.264   7.581  0.6982  0.1499 -0.4457
  101MOL    C7724277   6.930   3.201   0.040  0.2209 -0.3884 -0.4085
  101MOL    O7824278   6.829   3.245   0.097 -0.0014  0.1500  0.0030
  101MOL    O7924279   6.951   3.064   0.027 -0.3470  0.7599 -0.1394
  101MOL    H8024280   7.195   3.340   0.101 -2.0922 -0.4573  0.8160
  101MOL    H8124281   7.244   3.327   7.703  1.2703 -1.2397 -0.6128
  101MOL    H8224282   6.928   3.229   7.546  1.0400 -0.2124 -1.0316
  101MOL    H8324283   7.098   3.191   7.546  1.3891  0.8116 -0.3742
  101MOL    H8424284   7.043   3.358   7.529  0.9885  0.5938  0.4489
  101MOL    H8524285   6.876   3.009   0.043  1.0000 -0.4788  2.1854
  101MOL    C8624286   6.984   3.443   7.748 -0.0110  0.4328 -0.3632
  101MOL    C8724287   7.002   3.535   0.109 -0.4730 -0.1236 -0.0737
  101MOL    C8824288   6.985   3.456   0.244 -0.0659 -0.1678  0.1706
  101MOL    C8924289   7.145   3.598   0.107  0.1848 -0.7434  1.2702
  101MOL    O9024290   7.225   3.580   0.193 -0.6938  0.0294 -0.3392
  101MOL    O9124291   7.169   3.686   0.010  0.0861 -0.2435 -0.0842
  101MOL    H9224292   7.037   3.497   7.669  0.0334 -1.5126 -1.6892
  101MOL    H9324293   6.880   3.427   7.720  0.0821  0.1108 -0.5223
  101MOL    H9424294   7.026   3.355   0.239 -1.3396 -0.9258  3.6767
  101MOL    H9524295   6.879   3.445   0.267 -0.5855  0.5616 -1.7266
  101MOL    H9624296   7.033   3.509   0.326 -0.1278 -0.3326  0.3131
  101MOL    H9724297   7.260   3.712   0.007 -0.0463  0.0726 -2.2220
  101MOL    C9824298   6.887   3.641   0.091  0.1616  0.1958  0.0710
  101MOL    C9924299   6.879   3.777   0.178  0.8325 -0.0774  0.4688
  101MOL   C10024300   6.930   3.763   0.319  0.6821 -0.2176 -0.3283
  101MOL   C10124301   6.958   3.883   0.114 -0.7951 -0.7483  0.5205
  101MOL   O10224302   7.042   3.951   0.175 -0.0422 -0.6103 -0.3653
  101MOL   O10324303   6.936   3.907   7.748 -0.0133  0.1859 -0.6830
  101MOL   H10424304   6.904   3.671   7.755 -0.4232  2.3159  0.5659
  101MOL   H10524305   6.793   3.588   0.102  0.2695 -0.2011 -0.8978
  101MOL   H10624306   7.037   3.741   0.314  1.0916  0.8152  2.6201
  101MOL   H10724307   6.877   3.683   0.371  1.7964  0.1917  1.5122
  101MOL   H10824308   6.922   3.849   0.386 -0.1698 -0.5695  0.0356
  101MOL   H10924309   6.884   3.836   7.713  1.7832 -1.7223  0.4434
  101MOL   C11024310   6.720   3.813   0.176 -0.2145 -0.0650 -0.3252
  101MOL   C11124311   6.669   3.961   0.207 -0.1935  0.2239  0.3031
  101MOL   C11224312   6.741   4.035   0.320  0.3104  0.5717  0.0043
  101MOL   C11324313   6.679   4.050   0.083  0.5499 -0.6156 -0.4061
  101MOL   O11424314   6.678   4.015   7.731  0.0045 -0.1517 -0.1514
  101MOL   O11524315   6.687   4.184   0.102  0.5274 -0.2256  0.0395
  101MOL   H11624316   6.679   3.780   0.081  0.2378 -1.0376 -0.1913
  101MOL   H11724317   6.676   3.739   0.242  0.1972  0.9988  1.1611
  101MOL   H11824318   6.695   4.130   0.346  1.2759  1.1643 -0.4590
  101MOL   H11924319   6.847   4.054   0.310  0.3230  0.8889  0.6811
  101MOL   H12024320   6.752   3.962   0.400  1.8590  1.8248  0.9596
  101MOL   H12124321   6.692   4.232   0.021  1.3498  2.3475  1.5588
  101MOL   C12224322   6.520   3.948   0.263 -0.1402 -0.0979 -0.1174
  101MOL   C12324323   6.389   3.935   0.177 -0.4202  0.8414 -0.6447
  101MOL   C12424324   6.361   4.072   0.115  0.2525 -0.0226  0.5292
  101MOL   C12524325   6.401   3.819   0.070 -0.3042  0.3328  0.1026
  101MOL   O12624326   6.445   3.709   0.097 -0.3657 -0.1924 -0.2904
  101MOL   O12724327   6.367   3.855   7.710  0.4405 -0.6435  1.1994
  101MOL   H12824328   6.518   3.864   0.333 -0.0923  1.1954  1.4625
  101MOL   H12924329   6.513   4.033   0.330  2.5838  0.0938  0.0032
  101MOL   H13024330   6.309   4.134   0.189 -1.4281  0.1514 -0.7897
  101MOL   H13124331   6.291   4.068   0.032 -0.6793  0.7066  1.2560
  101MOL   H13224332   6.448   4.129   0.082  0.2670 -0.4661 -0.2052
  101MOL   H13324333   6.377   3.781   7.652  1.2697 -0.0301  0.5422
  101MOL   C13424334   6.273   3.897   0.280 -0.1577 -0.6016  0.6304
  101MOL   C13524335   6.124   3.853   0.234 -0.5636  0.1979  0.6429
  101MOL   C13624336   6.073   3.932   0.109  0.3923 -0.3046  0.2251
  101MOL   C13724337   6.116   3.710   0.191  0.2102 -0.0726 -0.1026
  101MOL   O13824338   6.208   3.632   0.211  0.5199 -0.9174 -0.2425
  101MOL   O13924339   5.989   3.673   0.148 -0.1750  0.3645 -0.6593
  101MOL   H14024340   6.310   3.815   0.341 -0.5751 -1.4149 -0.1971
  101MOL   H14124341   6.267   3.981   0.350  1.2699  0.9106 -1.0141
  101MOL   H14224342   5.967   3.940   0.086  0.6125 -0.2322 -0.8076
  101MOL   H14324343   6.118   3.895   0.016  0.7761  2.1225 -0.5819
  101MOL   H14424344   6.095   4.038   0.118 -2.4823  0.1949  1.7821
  101MOL   H14524345   5.985   3.580   0.128  0.0327  0.1892  0.1198
  101MOL   C14624346   6.027   3.907   0.344  0.0707 -0.1556  0.5106
  101MOL   C14724347   6.010   3.836   0.489 -0.0702  0.4745  0.0096
  101MOL   C14824348   5.920   3.945   0.549  0.8171 -0.7877 -0.2024
  101MOL   C14924349   5.951   3.693   0.474 -0.6649  0.5009 -0.0545
  101MOL   O15024350   6.014   3.588   0.470  0.5425  0.3461  0.6059
  101MOL   O15124351   5.818   3.702   0.474  0.3139 -0.2263 -0.5882
  101MOL   H15224352   6.054   4.012   0.357  0.9498 -0.6210  2.6545
  101MOL   H15324353   5.924   3.914   0.310  0.3631 -0.5081 -0.4674
  101MOL   H15424354   5.879   3.913   0.645  0.1166  1.2194  0.2124
  101MOL   H15524355   5.836   3.973   0.485 -2.0124 -2.5629  2.5994
  101MOL   H15624356   5.978   4.036   0.563  0.4369 -0.4180 -1.0053
  101MOL   H15724357   5.769   3.622   0.489  0.1754  0.5220  3.4883
  101MOL   C15824358   6.147   3.830   0.568 -0.3566  0.4134 -0.1068
  101MOL   C15924359   6.160   3.811   0.722 -0.2760  0.0338 -0.4118
  101MOL   C16024360   6.309   3.756   0.740  0.2938  0.2552 -0.1116
  101MOL   C16124361   6.151   3.950   0.794  0.7461 -0.6040  0.3407
  101MOL   O16224362   6.045   4.010   0.815 -0.1113 -0.5820  0.6622
  101MOL   O16324363   6.266   4.011   0.820 -0.1905 -0.5249 -0.4089
  101MOL   H16424364   6.213   3.758   0.520 -0.9059  0.2703 -0.6511
  101MOL   H16524365   6.188   3.929   0.547  0.7603 -0.0956 -0.3518
  101MOL   H16624366   6.307   3.649   0.716 -0.0496  0.0975  0.5743
  101MOL   H16724367   6.344   3.765   0.843  0.6329  0.5295 -0.2497
  101MOL   H16824368   6.379   3.804   0.672 -2.2570  0.0935 -2.9636
  101MOL   H16924369   6.250   4.097   0.855  0.9747 -0.4730  0.0329
  101MOL   C17024370   6.059   3.700   0.777 -0.4501 -0.8058 -0.0000
  101MOL   C17124371   6.053   3.638   0.921  0.1622 -0.0551 -0.5036
  101MOL   C17224372   5.920   3.560   0.936 -0.8916  0.1002  0.2920
  101MOL   C17324373   6.162   3.522   0.940  0.0293 -0.1935  0.3578
  101MOL   O17424374   6.132   3.407   0.947 -0.1386 -0.1572 -0.1106
  101MOL   O17524375   6.286   3.568   0.971 -0.1500 -0.2596  0.5332
  101MOL   H17624376   5.955   3.733   0.768 -1.0104 -1.8558  2.1536
  101MOL   H17724377   6.058   3.615   0.710  2.2577 -0.4865 -0.4904
  101MOL   H17824378   5.915   3.503   1.029  0.1150  0.8346  0.7977
  101MOL   H17924379   5.906   3.490   0.853  2.2012 -0.6372  0.3441
  101MOL   H18024380   5.829   3.621   0.942 -1.8039 -1.0145 -1.6549
  101MOL   H18124381   6.341   3.500   1.007  0.1749 -0.3419 -0.1194
  101MOL   C18224382   6.061   3.762   1.023  0.1872 -0.7681  0.8743
  101MOL   C18324383   6.032   3.759   1.180  0.6010 -0.0139  0.1477
  101MOL   C18424384   6.139   3.660   1.239 -0.0625  0.1137  0.2823
  101MOL   C18524385   6.060   3.898   1.227  0.9997  0.0862 -0.2186
  101MOL   O18624386   6.008   3.996   1.178  0.2545  0.1153  0.3441
  101MOL   O18724387   6.161   3.911   1.327 -0.2935  0.0186  0.9112
  101MOL   H18824388   6.153   3.820   1.010 -0.4684  0.2052  0.5357
  101MOL   H18924389   5.973   3.817   0.991 -1.6889 -4.6942 -1.0121
  101MOL   H19024390   6.107   3.557   1.220 -0.8117  0.3425  0.3038
  101MOL   H19124391   6.168   3.675   1.343  2.0179 -0.5793 -0.1663
  101MOL   H19224392   6.240   3.669   1.199 -1.0054 -0.4752 -2.2897
  101MOL   H19324393   6.188   3.999   1.346  1.0067  0.4196 -2.3984
  101MOL   C19424394   5.881   3.717   1.206 -0.1013  0.2645 -0.0447
  101MOL   C19524395   5.805   3.707   1.341  0.8718 -0.7418  0.3913
  101MOL   C19624396   5.817   3.843   1.417  0.4503  1.1120  0.4277
  101MOL   C19724397   5.657   3.681   1.296  0.2278  0.1978  0.0895
  101MOL   O19824398   5.556   3.732   1.351 -0.0552 -0.1837  0.1176
  101MOL   O19924399   5.646   3.586   1.196 -0.2265  0.2989 -0.5279
  101MOL   H20024400   5.816   3.768   1.135  0.5290  0.7973 -0.2437
  101MOL   H20124401   5.879   3.612   1.176 -1.7543  0.7511 -1.7353
  101MOL   H20224402   5.829   3.929   1.351  2.1801  0.7968  0.2962
  101MOL   H20324403   5.899   3.839   1.489  1.4086  1.2035 -0.6377
  101MOL   H20424404   5.730   3.868   1.478  1.0202  1.0737  1.2649
  101MOL   H20524405   5.553   3.575   1.183 -0.7544  0.8663  2.3813
  101MOL   C20624406   5.850   3.588   1.428 -0.2084 -0.2872 -0.6091
  101MOL   C20724407   5.781   3.537   1.565 -0.0801 -0.7043  0.4022
  101MOL   C20824408   5.749   3.659   1.651  0.4723  0.7558  0.0626
  101MOL   C20924409   5.650   3.458   1.550 -0.3162  0.1107 -0.4334
  101MOL   O21024410   5.619   3.402   1.448  0.2677  0.2134  0.5160
  101MOL   O21124411   5.586   3.448   1.667  0.0395  0.0319 -0.1883
  101MOL   H21224412   5.833   3.507   1.357 -1.0330 -0.4408 -0.2318
  101MOL   H21324413   5.956   3.597   1.453 -0.6034  0.2169  0.9173
  101MOL   H21424414   5.833   3.728   1.644  0.6177  0.6820  1.0845
  101MOL   H21524415   5.726   3.640   1.756 -0.6209  2.1094  0.0910
  101MOL   H21624416   5.661   3.711   1.613  0.8133 -0.0529 -1.8847
  101MOL   H21724417   5.505   3.401   1.654 -0.4329  0.8490 -0.1950
  101MOL   C21824418   5.884   3.457   1.655  0.1781 -0.1950  0.6528
  101MOL   C21924419   5.935   3.312   1.622  0.1995  0.4615  0.8951
  101MOL   C22024420   5.969   3.297   1.475  0.0909  0.8908 -0.4011
  101MOL   C22124421   6.066   3.288   1.699  0.8865 -0.1182 -0.4400
  101MOL   O22224422   6.181   3.281   1.662  0.1122 -0.2651 -0.0837
  101MOL   O22324423   6.036   3.270   1.832 -0.0299  0.1022  0.5920
  101MOL   H22424424   5.973   3.519   1.660  0.8238 -1.0753  0.1054
  101MOL   H22524425   5.847   3.459   1.758  1.1328  1.6939  0.9731
  101MOL   H22624426   5.879   3.303   1.413 -0.5500  3.4203  0.6894
  101MOL   H22724427   6.007   3.196   1.464 -0.9926  0.1673  2.2145
  101MOL   H22824428   6.047   3.363   1.437  0.2905 -0.2366 -1.9955
  101MOL   H22924429   5.945   3.284   1.856  0.1771 -1.0877  2.1439
  101MOL   C23024430   5.826   3.204   1.658  0.5323  0.0251  0.5683
  101MOL   C23124431   5.869   3.052   1.632  0.2949 -0.6742  0.0144
  101MOL   C23224432   5.820   2.966   1.749 -0.0593  0.4066 -0.7293
  101MOL   C23324433   5.814   2.993   1.499  0.1027 -1.1525 -0.1323
  101MOL   O23424434   5.760   3.058   1.412 -0.0426  0.0425  0.8259
  101MOL   O23524435   5.834   2.853   1.489  0.0750 -0.0244  0.1026
  101MOL   H23624436   5.787   3.219   1.759  0.3032 -2.3092  0.8740
  101MOL   H23724437   5.733   3.222   1.605  0.7869  2.1726  0.8218
  101MOL   H23824438   5.840   2.860   1.741 -0.4230  0.1976  0.9268
  101MOL   H23924439   5.714   2.975   1.773  0.0817 -1.3082  0.5807
  101MOL   H24024440   5.876   2.998   1.836 -2.4819 -0.2950  1.1481
  101MOL   H24124441   5.789   2.833   1.408  1.6100 -0.6136 -0.6260
  101MOL   H24224442   5.978   3.047   1.641  0.2809 -0.3943  0.3800
  102MOL     C124443   6.094   1.562   7.111 -0.1971 -0.2194 -0.1577
  102MOL     C224444   6.029   1.451   7.026 -0.4652  0.5556 -0.3548
  102MOL     C324445   6.059   1.304   7.081  0.1190  0.1694 -0.2592
  102MOL     C424446   5.874   1.472   7.031  0.1201 -0.5794  0.5480
  102MOL     O524447   5.818   1.527   7.124  0.7419  0.4300  0.3823
  102MOL     O624448   5.811   1.406   6.931  0.2244 -0.5404  0.0840
  102MOL     H724449   6.054   1.661   7.089 -1.8281 -0.5681  1.2141
  102MOL     H824450   6.203   1.561   7.106 -0.0605  2.6323  0.8306
  102MOL     H924451   6.164   1.278   7.074 -0.0523 -0.2267 -1.5806
  102MOL    H1024452   5.999   1.240   7.016 -1.5789  1.7704 -0.3239
  102MOL    H1124453   6.022   1.275   7.179  1.2190  0.9040  0.3720
  102MOL    H1224454   5.854   1.363   6.859  1.3822  0.7295  0.0116
  102MOL    H1324455   6.086   1.547   7.219 -0.1046  0.3636 -0.0641
  102MOL    C1424456   6.087   1.460   6.881 -0.0151 -0.2728  0.2535
  102MOL    C1524457   6.090   1.591   6.787 -0.3012  0.0219  0.1123
  102MOL    C1624458   5.948   1.668   6.792 -0.1470  0.3504  0.2856
  102MOL    C1724459   6.208   1.691   6.819  0.7422 -0.4469 -0.4021
  102MOL    O1824460   6.323   1.656   6.805  0.0716 -0.4850 -0.0184
  102MOL    O1924461   6.168   1.811   6.880  0.0094  0.0456  0.0810
  102MOL    H2024462   6.194   1.438   6.883 -0.2728 -1.9793 -2.0077
  102MOL    H2124463   6.044   1.373   6.832  0.1532 -0.7534  0.9515
  102MOL    H2224464   5.870   1.595   6.770 -0.5640  0.9637 -0.3031
  102MOL    H2324465   5.929   1.759   6.735  0.4411  2.1835  2.9380
  102MOL    H2424466   5.924   1.687   6.896  1.4028 -1.3118  0.9740
  102MOL    H2524467   6.074   1.802   6.881  0.2388 -3.3400  2.8661
  102MOL    C2624468   6.117   1.520   6.642  0.4235 -0.0534 -0.2727
  102MOL    C2724469   6.099   1.580   6.500  0.0740 -0.6313 -0.4582
  102MOL    C2824470   5.945   1.610   6.474 -0.2411  0.3168 -0.0832
  102MOL    C2924471   6.183   1.706   6.487  0.1959  0.1651 -0.3439
  102MOL    O3024472   6.130   1.815   6.493 -0.8610  0.4736  0.2672
  102MOL    O3124473   6.313   1.679   6.486  0.3228  0.2176 -0.7587
  102MOL    H3224474   6.219   1.481   6.642  0.3952 -0.2045  1.5548
  102MOL    H3324475   6.057   1.429   6.632  0.4503 -0.0786 -0.2080
  102MOL    H3424476   5.902   1.702   6.514 -1.2847  0.5777 -1.7247
  102MOL    H3524477   5.892   1.520   6.505 -0.5409  0.2330 -0.8344
  102MOL    H3624478   5.927   1.623   6.367  0.6352  1.2827 -0.1232
  102MOL    H3724479   6.354   1.764   6.486  0.3711  0.2236  1.0916
  102MOL    C3824480   6.146   1.466   6.400 -0.4512  0.5482 -0.2770
  102MOL    C3924481   6.099   1.455   6.244  0.3670  0.4714 -0.6603
  102MOL    C4024482   6.177   1.338   6.177 -0.2769  0.1655 -0.1849
  102MOL    C4124483   5.955   1.398   6.244 -0.3296 -0.3878 -0.2359
  102MOL    O4224484   5.863   1.448   6.175 -0.6620  0.6454  0.2474
  102MOL    O4324485   5.934   1.291   6.322  0.4451  0.4299  0.7727
  102MOL    H4424486   6.254   1.456   6.394 -0.5461  0.3214 -1.8113
  102MOL    H4524487   6.123   1.375   6.456  3.4043 -0.4935 -0.2758
  102MOL    H4624488   6.175   1.241   6.227 -1.5148 -0.4281 -1.3445
  102MOL    H4724489   6.284   1.355   6.163 -0.5915  0.3270 -2.5685
  102MOL    H4824490   6.139   1.320   6.076 -1.1514 -0.6683  0.2861
  102MOL    H4924491   5.841   1.274   6.327  0.4379  0.4979  0.8685
  102MOL    C5024492   6.113   1.585   6.153  0.3012 -0.7324  0.1467
  102MOL    C5124493   6.244   1.637   6.080 -0.5917 -0.1583 -0.2317
  102MOL    C5224494   6.367   1.641   6.168  0.0802 -0.4852 -0.4785
  102MOL    C5324495   6.270   1.544   5.960  0.0505 -0.1164 -0.4474
  102MOL    O5424496   6.365   1.473   5.936 -0.4008 -0.1577 -0.2934
  102MOL    O5524497   6.158   1.529   5.880  0.5509  0.1275 -0.1653
  102MOL    H5624498   6.027   1.593   6.087 -0.6668 -0.2749  1.4604
  102MOL    H5724499   6.082   1.666   6.219  0.5831  1.8030 -2.6664
  102MOL    H5824500   6.369   1.725   6.237  2.8962 -0.9074  0.0359
  102MOL    H5924501   6.459   1.643   6.108  1.5885  0.4653  1.7982
  102MOL    H6024502   6.363   1.562   6.243 -2.9686  0.3623  0.3121
  102MOL    H6124503   6.184   1.474   5.809 -1.5863  0.1836 -1.0217
  102MOL    C6224504   6.217   1.782   6.035  0.2143  0.6285  0.6571
  102MOL    C6324505   6.326   1.874   5.965 -0.0241  0.3218 -0.7130
  102MOL    C6424506   6.413   1.948   6.066 -0.0160 -0.6762 -0.2888
  102MOL    C6524507   6.425   1.801   5.861 -0.0823  0.0114  0.1992
  102MOL    O6624508   6.549   1.794   5.867  0.8736 -0.3431 -0.2917
  102MOL    O6724509   6.356   1.744   5.760  0.2992  0.6710 -0.7791
  102MOL    H6824510   6.125   1.768   5.978  2.7111 -1.3034 -3.1120
  102MOL    H6924511   6.174   1.853   6.106  0.8621  3.3021 -1.5733
  102MOL    H7024512   6.487   2.017   6.026  0.5875 -1.0123  0.2492
  102MOL    H7124513   6.456   1.869   6.128 -2.4202 -2.1741 -0.4598
  102MOL    H7224514   6.337   1.994   6.130 -0.5585 -0.5083 -1.0371
  102MOL    H7324515   6.424   1.706   5.708  1.0124 -1.6536  1.7285
  102MOL    C7424516   6.262   1.994   5.876 -0.6726  0.4034  0.6604
  102MOL    C7524517   6.111   2.002   5.821  0.4462  0.6633  0.1311
  102MOL    C7624518   6.069   1.879   5.736 -0.4141 -0.0034 -0.2234
  102MOL    C7724519   6.025   2.017   5.952  0.1782  0.8565  0.6225
  102MOL    O7824520   6.052   2.095   6.041 -0.5285 -0.0594  0.1861
  102MOL    O7924521   5.927   1.924   5.948  0.4624 -0.5644 -0.3563
  102MOL    H8024522   6.273   2.082   5.939 -1.4697 -0.6255  2.2609
  102MOL    H8124523   6.320   2.022   5.788  0.0046  2.3893  1.7119
  102MOL    H8224524   6.079   1.783   5.786 -2.0306 -0.6150 -1.0438
  102MOL    H8324525   6.138   1.875   5.652 -1.2929 -1.9654 -0.8663
  102MOL    H8424526   5.967   1.888   5.699 -0.7028  2.1357  0.9686
  102MOL    H8524527   5.870   1.921   6.023 -0.8618 -0.4176 -1.3454
  102MOL    C8624528   6.102   2.131   5.742 -0.6917  0.1110 -0.3696
  102MOL    C8724529   5.972   2.190   5.667 -0.1026 -0.0973 -0.6362
  102MOL    C8824530   5.855   2.184   5.763 -0.4379  0.6375 -0.3890
  102MOL    C8924531   5.991   2.346   5.635 -0.3050  0.0275 -0.0766
  102MOL    O9024532   5.910   2.439   5.655 -0.7284 -0.2494  0.2742
  102MOL    O9124533   6.113   2.369   5.568 -0.4536  0.4085 -0.1544
  102MOL    H9224534   6.137   2.214   5.803 -0.7948 -0.4681  0.4808
  102MOL    H9324535   6.177   2.117   5.664 -2.1534  1.2129 -2.0370
  102MOL    H9424536   5.886   2.229   5.857  1.0698  2.1686 -1.6026
  102MOL    H9524537   5.832   2.080   5.790  0.9706  1.2380  3.3513
  102MOL    H9624538   5.764   2.231   5.725 -0.6523 -1.0170 -2.0234
  102MOL    H9724539   6.107   2.459   5.540  0.9385  0.7635  0.6560
  102MOL    C9824540   5.938   2.111   5.535 -0.1726  0.3620 -0.5475
  102MOL    C9924541   5.844   2.162   5.413 -0.0930 -0.0999 -0.8033
  102MOL   C10024542   5.714   2.232   5.458  0.2968 -0.2516 -0.0129
  102MOL   C10124543   5.928   2.260   5.325  0.4431  0.5695  0.6331
  102MOL   O10224544   5.875   2.360   5.276 -0.0202 -0.2600 -0.5933
  102MOL   O10324545   6.058   2.224   5.316  0.5430 -0.0235  0.5233
  102MOL   H10424546   6.032   2.082   5.489  0.0344 -0.3830  0.3160
  102MOL   H10524547   5.883   2.024   5.571 -2.8712  0.8206 -3.3933
  102MOL   H10624548   5.654   2.164   5.519 -0.3698 -1.2591 -1.7452
  102MOL   H10724549   5.648   2.259   5.376  4.2352  3.2687 -2.2202
  102MOL   H10824550   5.740   2.325   5.508 -2.7856  0.4869  0.3186
  102MOL   H10924551   6.115   2.282   5.268 -0.7901  2.7135  2.1298
  102MOL   C11024552   5.795   2.043   5.326  1.0561  0.2120  0.4923
  102MOL   C11124553   5.880   1.944   5.234 -0.0824  0.1553  0.4400
  102MOL   C11224554   5.776   1.859   5.157 -0.0461 -0.3502 -0.5340
  102MOL   C11324555   5.940   2.026   5.119  0.9736  0.4454 -0.1309
  102MOL   O11424556   5.877   2.087   5.029 -0.5019 -0.3045  0.0971
  102MOL   O11524557   6.069   1.999   5.108 -0.0888  0.4959 -0.0403
  102MOL   H11624558   5.731   1.983   5.390 -2.0539 -0.4250 -3.0720
  102MOL   H11724559   5.715   2.078   5.262  1.4246 -1.9188 -1.1781
  102MOL   H11824560   5.734   1.786   5.226  0.8671 -0.3673  0.0162
  102MOL   H11924561   5.818   1.800   5.076 -0.2391 -0.1790 -0.7561
  102MOL   H12024562   5.688   1.913   5.122  0.7493  2.3336  1.4150
  102MOL   H12124563   6.103   2.021   5.023 -0.8864  0.5507 -0.3491
  102MOL   C12224564   5.983   1.854   5.314 -0.0633  0.0068  0.0932
  102MOL   C12324565   6.041   1.713   5.289  0.3868  0.0554  0.0333
  102MOL   C12424566   6.100   1.655   5.417  0.5010  0.4714 -0.3031
  102MOL   C12524567   5.925   1.619   5.256  0.4876  0.5059 -0.3565
  102MOL   O12624568   5.912   1.563   5.153 -0.0980 -0.3177  0.3999
  102MOL   O12724569   5.840   1.601   5.362 -0.1416 -0.2713  0.4915
  102MOL   H12824570   6.066   1.921   5.338  0.4039  0.5529 -2.7999
  102MOL   H12924571   5.943   1.843   5.415  0.8600  0.5180  0.5198
  102MOL   H13024572   6.195   1.701   5.442 -0.3848  2.4419 -0.4340
  102MOL   H13124573   6.113   1.548   5.429 -1.8378  0.3254  1.4016
  102MOL   H13224574   6.044   1.679   5.508  2.0156  0.0891  0.7488
  102MOL   H13324575   5.779   1.538   5.326  0.1718 -0.7274  0.7493
  102MOL   C13424576   6.135   1.724   5.169  0.7274 -0.7670 -0.1385
  102MOL   C13524577   6.242   1.613   5.131 -0.2538 -0.1800 -0.6544
  102MOL   C13624578   6.355   1.624   5.241 -0.8300  0.0434  0.4658
  102MOL   C13724579   6.198   1.462   5.133  0.3263 -0.1562 -0.5456
  102MOL   O13824580   6.131   1.413   5.049 -0.5310  0.0656  0.0156
  102MOL   O13924581   6.240   1.382   5.239 -0.9091 -0.5235  0.3827
  102MOL   H14024582   6.067   1.746   5.087  0.2573  0.6703  0.6273
  102MOL   H14124583   6.198   1.807   5.199 -0.0909  0.0260 -0.5802
  102MOL   H14224584   6.436   1.564   5.200 -1.8711 -0.9865 -0.1206
  102MOL   H14324585   6.342   1.583   5.341 -0.4350 -0.3720  0.3496
  102MOL   H14424586   6.404   1.721   5.253  1.9499 -1.1233 -1.0291
  102MOL   H14524587   6.196   1.307   5.201  0.5583 -0.4383 -1.5328
  102MOL   C14624588   6.309   1.657   4.995  0.0572 -0.0130 -0.3724
  102MOL   C14724589   6.233   1.708   4.862 -0.7752 -0.2864  0.3150
  102MOL   C14824590   6.108   1.616   4.841  0.5882  0.8502 -0.4133
  102MOL   C14924591   6.189   1.856   4.879  0.2459 -0.5171 -0.0570
  102MOL   O15024592   6.251   1.933   4.944  0.0089  0.1640  0.2191
  102MOL   O15124593   6.067   1.888   4.834 -0.4269  0.3559 -0.4581
  102MOL   H15224594   6.387   1.731   5.013 -0.6954  0.6098  0.3876
  102MOL   H15324595   6.361   1.569   4.957 -0.1904 -0.2002 -0.2816
  102MOL   H15424596   6.048   1.634   4.752  0.5424 -2.2075 -1.0477
  102MOL   H15524597   6.036   1.612   4.923 -3.3502 -2.0768 -3.7999
  102MOL   H15624598   6.139   1.512   4.838  0.2397  0.7859 -2.0260
  102MOL   H15724599   6.027   1.818   4.784  2.5150 -1.2882 -0.6168
  102MOL   C15824600   6.317   1.690   4.730  0.0038 -0.0966  0.2726
  102MOL   C15924601   6.463   1.744   4.706 -0.0123 -0.2793  0.0373
  102MOL   C16024602   6.484   1.899   4.751  0.0083  0.4654 -0.8061
  102MOL   C16124603   6.551   1.651   4.787 -0.3337 -0.9202  0.2441
  102MOL   O16224604   6.622   1.691   4.881 -0.2422 -0.2402  0.0319
  102MOL   O16324605   6.541   1.519   4.760  0.4300 -0.2235 -0.2449
  102MOL   H16424606   6.317   1.586   4.697  3.3791  0.6084 -2.1562
  102MOL   H16524607   6.255   1.745   4.659  0.8289 -0.9931 -1.1747
  102MOL   H16624608   6.406   1.955   4.700 -1.6588 -3.7327 -3.1864
  102MOL   H16724609   6.582   1.940   4.728  0.1275  0.4998 -0.2199
  102MOL   H16824610   6.478   1.905   4.859  0.1983  2.2957 -0.8856
  102MOL   H16924611   6.602   1.467   4.811 -0.4944 -1.1997 -0.1283
  102MOL   C17024612   6.489   1.727   4.554  0.6728 -0.4152  0.2997
  102MOL   C17124613   6.605   1.798   4.476  0.5541 -0.0126 -0.4260
  102MOL   C17224614   6.585   1.753   4.332  0.0425  0.1697  0.6917
  102MOL   C17324615   6.588   1.953   4.472 -0.3735 -0.7875 -0.1277
  102MOL   O17424616   6.669   2.027   4.528 -0.4631  0.7834 -0.2077
  102MOL   O17524617   6.476   1.988   4.416 -0.0488 -0.2283  0.2695
  102MOL   H17624618   6.502   1.620   4.535 -0.4336 -0.5943  0.5255
  102MOL   H17724619   6.395   1.753   4.506  0.2972 -1.0828  0.6668
  102MOL   H17824620   6.669   1.790   4.273 -1.0857  2.0786  0.2175
  102MOL   H17924621   6.489   1.784   4.290 -0.0881 -2.0970 -0.7610
  102MOL   H18024622   6.592   1.645   4.331  2.1460  0.3049 -0.0424
  102MOL   H18124623   6.452   2.078   4.433  0.6389 -0.3491  2.0620
  102MOL   C18224624   6.740   1.748   4.530  0.3922 -0.6433 -0.5321
  102MOL   C18324625   6.888   1.756   4.464 -0.0336  0.6459 -0.0102
  102MOL   C18424626   6.897   1.636   4.364 -0.1300 -0.5435 -0.3454
  102MOL   C18524627   6.908   1.882   4.384  0.4736 -0.3224  0.1006
  102MOL   O18624628   6.969   1.976   4.436  0.3554 -0.3732  0.1751
  102MOL   O18724629   6.863   1.889   4.251  0.0150 -0.1233  0.4927
  102MOL   H18824630   6.764   1.797   4.624  1.3602 -0.3574 -0.9184
  102MOL   H18924631   6.721   1.645   4.560 -1.8884  0.0179  0.3330
  102MOL   H19024632   6.866   1.543   4.412  1.6339 -0.3857  1.2009
  102MOL   H19124633   6.987   1.628   4.303  0.0670  0.3717 -0.1948
  102MOL   H19224634   6.829   1.648   4.280 -1.2599  0.9909  0.7400
  102MOL   H19324635   6.877   1.977   4.220 -1.3242  0.1369  0.5957
  102MOL   C19424636   7.002   1.760   4.579 -0.1686  0.4687  0.2083
  102MOL   C19524637   7.039   1.637   4.671  0.3998 -0.5125 -0.2649
  102MOL   C19624638   6.912   1.591   4.754  0.3345  0.4838 -0.0679
  102MOL   C19724639   7.086   1.517   4.590  0.9535 -0.4983 -0.3107
  102MOL   O19824640   7.054   1.401   4.617 -0.3245  0.2586  0.0205
  102MOL   O19924641   7.168   1.546   4.485 -0.0024 -0.5932 -0.8119
  102MOL   H20024642   7.094   1.784   4.526 -0.4902  2.9962  0.7386
  102MOL   H20124643   6.990   1.840   4.652 -2.8052 -0.5941  0.9892
  102MOL   H20224644   6.855   1.680   4.782 -1.1212 -0.5783  0.3910
  102MOL   H20324645   6.941   1.541   4.847 -1.0767  0.2741  0.2696
  102MOL   H20424646   6.850   1.533   4.686  1.8009 -1.1745 -0.0177
  102MOL   H20524647   7.188   1.466   4.438 -0.9788 -1.5762  0.4017
  102MOL   C20624648   7.161   1.690   4.758  0.0523  0.4372 -0.6960
  102MOL   C20724649   7.273   1.613   4.843  0.3274 -0.2044  0.1904
  102MOL   C20824650   7.366   1.524   4.759  0.0329 -0.1086 -0.4958
  102MOL   C20924651   7.362   1.722   4.900  0.0330  0.1223  0.4689
  102MOL   O21024652   7.355   1.748   5.021 -0.1627 -0.4227 -0.0388
  102MOL   O21124653   7.454   1.775   4.816  0.0984  0.1931  0.7523
  102MOL   H21224654   7.223   1.749   4.691  1.9274  0.5029  1.0453
  102MOL   H21324655   7.127   1.769   4.824 -1.2198 -0.0601 -0.7512
  102MOL   H21424656   7.327   1.424   4.740  0.4949 -0.0200 -1.9491
  102MOL   H21524657   7.458   1.500   4.812 -0.8637 -1.3497  0.5416
  102MOL   H21624658   7.402   1.569   4.666  0.7721  0.2308 -0.0517
  102MOL   H21724659   7.493   1.858   4.837  0.4605  1.0341 -2.8242
  102MOL   C21824660   7.204   1.538   4.960 -0.2306  0.1643 -0.2620
  102MOL   C21924661   7.256   1.412   5.049  0.3304  0.4340  0.1668
  102MOL   C22024662   7.216   1.284   4.975 -0.0022  0.4195  0.1052
  102MOL   C22124663   7.408   1.414   5.078 -0.2490  0.0077 -0.2902
  102MOL   O22224664   7.486   1.335   5.019 -0.4079 -0.3159  0.4529
  102MOL   O22324665   7.452   1.520   5.155 -0.0865  0.5247 -0.7454
  102MOL   H22424666   7.162   1.616   5.024 -1.2823 -1.0343  0.5430
  102MOL   H22524667   7.107   1.506   4.921  0.8333 -1.7808 -1.3992
  102MOL   H22624668   7.253   1.267   4.874 -3.0776  0.3609 -1.0714
  102MOL   H22724669   7.107   1.270   4.975  0.1266 -0.6568 -1.0091
  102MOL   H22824670   7.248   1.190   5.021 -2.3743  0.7060  2.4960
  102MOL   H22924671   7.546   1.513   5.148 -0.0967  0.8922 -1.2854
  102MOL   C23024672   7.176   1.424   5.189  0.3941 -0.6996  0.0940
  102MOL   C23124673   7.181   1.294   5.276  0.1632  0.1807 -1.3559
  102MOL   C23224674   7.152   1.324   5.423  0.4334 -0.0627 -0.1916
  102MOL   C23324675   7.073   1.196   5.235 -0.2678  0.2203 -0.4608
  102MOL   O23424676   6.962   1.231   5.208 -0.2900 -0.0220 -0.0706
  102MOL   O23524677   7.116   1.069   5.248  0.3373 -0.3190 -0.2873
  102MOL   H23624678   7.218   1.504   5.251  2.2644  0.4777 -2.5879
  102MOL   H23724679   7.077   1.467   5.175  1.1160  0.6569 -0.9560
  102MOL   H23824680   7.197   1.251   5.491 -2.3845 -1.2344  0.4720
  102MOL   H23924681   7.044   1.335   5.434  0.1722  0.0279 -2.6544
  102MOL   H24024682   7.201   1.419   5.450  0.0271  0.2156 -0.4335
  102MOL   H24124683   7.196   1.058   5.298 -0.0270 -2.4717 -0.1202
  102MOL   H24224684   7.282   1.255   5.267 -0.2119 -1.7871  2.1621
  103MOL     C124685   4.800   5.297   3.421  0.4916 -0.6980  0.3037
  103MOL     C224686   4.840   5.368   3.550 -0.3253  0.3409 -0.9362
  103MOL     C324687   4.806   5.518   3.519  0.0332  0.0470  0.2208
  103MOL     C424688   4.745   5.330   3.668  0.9857  0.0089 -0.1582
  103MOL     O524689   4.642   5.269   3.662 -0.2331  0.1562  0.1226
  103MOL     O624690   4.788   5.370   3.786  0.3096  0.2423  0.2326
  103MOL     H724691   4.839   5.196   3.405 -1.7533 -1.3784 -1.1759
  103MOL     H824692   4.835   5.347   3.330  1.4699 -1.3042  0.3383
  103MOL     H924693   4.831   5.578   3.606  2.3861 -0.2848 -0.1740
  103MOL    H1024694   4.702   5.540   3.495  0.3102  1.9906  0.7525
  103MOL    H1124695   4.868   5.558   3.439 -2.7533  1.4364 -1.2783
  103MOL    H1224696   4.879   5.393   3.789  0.0846  1.2418 -0.2727
  103MOL    H1324697   4.693   5.279   3.412  0.5000 -0.5060 -0.2355
  103MOL    C1424698   4.989   5.361   3.597  1.3826 -0.0943 -0.3851
  103MOL    C1524699   5.069   5.221   3.608 -0.3412 -0.2694 -0.1144
  103MOL    C1624700   4.981   5.115   3.673 -0.1713 -0.5939 -0.9449
  103MOL    C1724701   5.107   5.174   3.461 -0.6082  0.2531 -0.3142
  103MOL    O1824702   5.119   5.241   3.358  0.6178 -0.1370 -0.0514
  103MOL    O1924703   5.149   5.050   3.466  0.2454 -0.5143 -0.4324
  103MOL    H2024704   5.046   5.419   3.525 -0.7093  1.2912 -0.9556
  103MOL    H2124705   4.999   5.428   3.683 -1.9806 -0.4104  0.3508
  103MOL    H2224706   4.950   5.159   3.767  2.7751  0.3986 -0.3860
  103MOL    H2324707   5.043   5.029   3.698  1.7724 -0.0051 -3.5534
  103MOL    H2424708   4.891   5.092   3.616  1.5679  0.8517 -4.3903
  103MOL    H2524709   5.171   4.997   3.391  0.9032  0.8859 -1.2702
  103MOL    C2624710   5.201   5.238   3.687  0.3076 -0.6341  0.3762
  103MOL    C2724711   5.311   5.345   3.650  0.4552 -0.6901  0.4704
  103MOL    C2824712   5.387   5.324   3.510 -0.3595  0.7650 -0.3671
  103MOL    C2924713   5.256   5.490   3.664 -0.2918  0.1726  0.5571
  103MOL    O3024714   5.207   5.535   3.767 -0.5669  0.3175 -0.1652
  103MOL    O3124715   5.273   5.569   3.550 -0.3766 -1.0901  0.1258
  103MOL    H3224716   5.182   5.254   3.793 -0.4971  1.7089 -0.0942
  103MOL    H3324717   5.242   5.137   3.687 -1.1565 -1.2710  2.4835
  103MOL    H3424718   5.328   5.359   3.426 -0.4382  1.3380 -0.0746
  103MOL    H3524719   5.395   5.216   3.505 -0.7046  0.7841 -1.3676
  103MOL    H3624720   5.483   5.374   3.509  0.1302 -0.1804 -1.1910
  103MOL    H3724721   5.328   5.517   3.493 -1.4672 -1.8358 -0.2607
  103MOL    C3824722   5.430   5.348   3.754  0.1462  0.0724 -0.3943
  103MOL    C3924723   5.520   5.227   3.803 -0.0020  0.0826  0.3164
  103MOL    C4024724   5.647   5.303   3.858 -0.9339  0.5615  0.1590
  103MOL    C4124725   5.453   5.150   3.922 -0.1799 -0.5684 -0.3255
  103MOL    O4224726   5.354   5.083   3.916  0.1201 -0.6965 -0.5897
  103MOL    O4324727   5.511   5.167   4.043 -0.4281  0.5130  0.0001
  103MOL    H4424728   5.480   5.444   3.735  0.6536  0.3303  2.1691
  103MOL    H4524729   5.376   5.377   3.844  0.1221  1.1197 -0.7256
  103MOL    H4624730   5.639   5.378   3.936  2.7026  0.6468  0.5417
  103MOL    H4724731   5.695   5.340   3.767 -2.0675  1.3928 -0.1192
  103MOL    H4824732   5.721   5.230   3.891  0.2912  1.0287 -1.4707
  103MOL    H4924733   5.467   5.116   4.110  0.7141  0.1441  0.4811
  103MOL    C5024734   5.571   5.131   3.688  0.6876  0.8401 -0.3084
  103MOL    C5124735   5.692   5.028   3.695 -0.5189  0.1209  0.1977
  103MOL    C5224736   5.839   5.092   3.673  0.6463 -0.0692  0.0542
  103MOL    C5324737   5.699   4.957   3.835  0.0271 -0.6871  0.2606
  103MOL    O5424738   5.614   4.882   3.873  0.1736 -0.3443  0.5311
  103MOL    O5524739   5.805   4.991   3.915  0.1274  0.2764  0.1380
  103MOL    H5624740   5.483   5.076   3.654  1.4407 -0.1170 -0.7293
  103MOL    H5724741   5.602   5.195   3.604 -1.4341 -1.0173 -2.5795
  103MOL    H5824742   5.834   5.140   3.575 -0.2981 -0.0576  0.1058
  103MOL    H5924743   5.914   5.013   3.679 -0.4743 -1.1391  0.1122
  103MOL    H6024744   5.864   5.173   3.741  1.7829 -1.2222  1.0225
  103MOL    H6124745   5.776   4.956   3.997 -1.8775 -0.3379 -0.8004
  103MOL    C6224746   5.673   4.926   3.569  0.0481  0.1274 -0.0125
  103MOL    C6324747   5.785   4.842   3.494  0.2401 -0.5374 -0.3295
  103MOL    C6424748   5.869   4.935   3.394 -0.0467  0.2994  0.3310
  103MOL    C6524749   5.873   4.770   3.597  1.4290  0.0761 -0.7938
  103MOL    O6624750   5.823   4.710   3.692 -0.7199 -0.3723  0.2436
  103MOL    O6724751   6.003   4.753   3.568  0.1919 -0.2655  0.5376
  103MOL    H6824752   5.599   4.854   3.605  0.8411  0.2474  1.9389
  103MOL    H6924753   5.624   4.975   3.485  2.3738 -0.8866 -2.0305
  103MOL    H7024754   5.831   5.038   3.393 -0.1330  0.2588 -1.8496
  103MOL    H7124755   5.893   4.887   3.300  0.5015 -2.2533  1.7220
  103MOL    H7224756   5.969   4.956   3.432  0.5686 -1.2683 -0.4110
  103MOL    H7324757   6.034   4.707   3.645 -1.2313 -1.0811  0.6510
  103MOL    C7424758   5.704   4.744   3.401 -0.5425  0.6323  1.1420
  103MOL    C7524759   5.756   4.609   3.334  0.4872  0.1304  0.2675
  103MOL    C7624760   5.634   4.555   3.244 -0.2360  0.5194  0.5435
  103MOL    C7724761   5.874   4.628   3.238  0.5571  0.3106 -0.3467
  103MOL    O7824762   5.857   4.615   3.116  0.1266 -0.1571  0.5026
  103MOL    O7924763   5.998   4.656   3.289  0.0047  0.2316 -0.2131
  103MOL    H8024764   5.616   4.719   3.461  0.4055 -0.9989  1.8773
  103MOL    H8124765   5.669   4.802   3.315  0.0351 -0.9006 -0.1518
  103MOL    H8224766   5.543   4.549   3.305 -1.0891  0.1533 -0.7333
  103MOL    H8324767   5.650   4.465   3.185  0.3175  1.8716 -1.4282
  103MOL    H8424768   5.602   4.625   3.167 -1.4619 -0.7853 -0.1591
  103MOL    H8524769   6.072   4.659   3.230  1.4577 -1.8140  1.4294
  103MOL    C8624770   5.800   4.506   3.449  0.9105 -0.6772  0.3160
  103MOL    C8724771   5.808   4.353   3.440  0.2274 -0.0572  0.0511
  103MOL    C8824772   5.665   4.298   3.433  0.1364 -0.0013 -0.1961
  103MOL    C8924773   5.879   4.301   3.314 -0.6101 -0.8303 -0.4448
  103MOL    O9024774   6.004   4.292   3.302  0.2914 -0.6352 -0.0577
  103MOL    O9124775   5.797   4.282   3.207  0.0048 -0.4296  0.8343
  103MOL    H9224776   5.898   4.543   3.479  1.1743 -1.7699  0.8633
  103MOL    H9324777   5.733   4.526   3.533 -1.6786 -1.1334 -1.6006
  103MOL    H9424778   5.595   4.324   3.513  2.0435  0.1774  1.4508
  103MOL    H9524779   5.671   4.190   3.426 -3.6815 -0.1833 -1.5440
  103MOL    H9624780   5.608   4.319   3.342  1.5292 -1.9673 -1.5485
  103MOL    H9724781   5.836   4.240   3.133  0.4977  0.1185  0.7733
  103MOL    C9824782   5.887   4.309   3.569  0.2097  0.4462  0.2187
  103MOL    C9924783   5.871   4.170   3.646 -0.6788 -0.7982 -0.0943
  103MOL   C10024784   5.741   4.175   3.742 -0.7905 -0.3887  0.0050
  103MOL   C10124785   5.849   4.054   3.548  0.2950  0.4426 -0.1401
  103MOL   O10224786   5.749   3.977   3.557  0.6902  0.0781 -0.1491
  103MOL   O10324787   5.943   4.043   3.451  0.5073 -0.3729  0.5051
  103MOL   H10424788   5.991   4.323   3.538  0.0564  1.7909  0.2890
  103MOL   H10524789   5.874   4.390   3.640  0.5817  0.1328  0.6492
  103MOL   H10624790   5.766   4.237   3.828 -1.0953 -3.7764  2.6375
  103MOL   H10724791   5.720   4.076   3.784  0.8856 -0.8412 -0.1935
  103MOL   H10824792   5.650   4.205   3.691  0.3597 -2.2680 -3.2987
  103MOL   H10924793   5.914   3.993   3.376 -1.0052  1.0495  0.1076
  103MOL   C11024794   6.000   4.134   3.730  0.7100  0.0646  0.2071
  103MOL   C11124795   6.125   4.214   3.773 -0.0306  0.1922 -0.5869
  103MOL   C11224796   6.217   4.121   3.848  0.7111 -0.4420 -0.0308
  103MOL   C11324797   6.206   4.264   3.650  0.4566 -0.5706 -0.3257
  103MOL   O11424798   6.257   4.373   3.639 -0.0058 -0.0730 -0.2765
  103MOL   O11524799   6.212   4.162   3.559  0.1739 -0.3053 -0.4499
  103MOL   H11624800   5.962   4.093   3.823 -1.4025 -1.0154 -1.0934
  103MOL   H11724801   6.044   4.046   3.682  1.9967  1.8942 -2.0673
  103MOL   H11824802   6.187   4.093   3.949 -0.4047 -0.6829 -0.4274
  103MOL   H11924803   6.310   4.178   3.854  0.3763  0.2058 -0.8785
  103MOL   H12024804   6.240   4.037   3.782  0.9684  0.5222 -1.1814
  103MOL   H12124805   6.248   4.186   3.475  3.0021 -1.1371  0.4504
  103MOL   C12224806   6.070   4.319   3.873  0.8347 -0.4729 -0.1772
  103MOL   C12324807   6.134   4.441   3.950 -0.2867 -0.5005  0.0013
  103MOL   C12424808   6.279   4.401   3.991  0.1295 -0.3992  0.4069
  103MOL   C12524809   6.140   4.556   3.856 -0.6839 -0.1601 -0.2695
  103MOL   O12624810   6.079   4.562   3.752 -0.3661  0.5765 -0.5695
  103MOL   O12724811   6.208   4.667   3.907  0.2837  0.2768 -0.0809
  103MOL   H12824812   5.988   4.369   3.821  2.2758  1.5689 -0.5803
  103MOL   H12924813   6.015   4.270   3.952  1.3896  0.0978  0.5684
  103MOL   H13024814   6.277   4.324   4.068  0.1983 -1.4841 -0.6721
  103MOL   H13124815   6.334   4.476   4.048 -1.0489  1.1487 -0.4609
  103MOL   H13224816   6.342   4.372   3.906 -0.4634 -0.6094  0.0387
  103MOL   H13324817   6.242   4.644   3.993  1.0578  0.8605 -0.2170
  103MOL   C13424818   6.055   4.487   4.081  0.2779  0.3085 -0.0883
  103MOL   C13524819   5.925   4.569   4.084  0.3352  0.1336  0.5906
  103MOL   C13624820   5.935   4.719   4.025  0.0605  0.2088  0.7048
  103MOL   C13724821   5.824   4.473   4.013 -0.3247  0.0286 -0.2226
  103MOL   O13824822   5.794   4.367   4.059 -0.2873 -0.2476 -0.4574
  103MOL   O13924823   5.776   4.522   3.896 -0.1743  0.0571 -0.0185
  103MOL   H14024824   6.047   4.401   4.148  0.4116  0.3319 -0.0427
  103MOL   H14124825   6.119   4.552   4.142 -1.2427  0.3592  1.5055
  103MOL   H14224826   5.961   4.712   3.919 -0.5860  2.0652  0.4202
  103MOL   H14324827   6.004   4.794   4.063  0.0087  1.2339 -1.1499
  103MOL   H14424828   5.830   4.749   4.028 -0.3411 -0.8620 -1.6118
  103MOL   H14524829   5.808   4.602   3.857 -1.7101  0.8207  0.2331
  103MOL   C14624830   5.880   4.585   4.240 -0.4709  0.0990  0.1929
  103MOL   C14724831   5.753   4.664   4.292 -0.9361  0.3232  0.4751
  103MOL   C14824832   5.730   4.624   4.440  0.2141  0.0651  0.2575
  103MOL   C14924833   5.794   4.819   4.295 -0.7696  0.1963  0.2841
  103MOL   O15024834   5.751   4.904   4.219  0.2781  0.2420  0.2806
  103MOL   O15124835   5.901   4.838   4.378  0.6407  0.2966 -0.2721
  103MOL   H15224836   5.860   4.485   4.279 -0.7140  0.2669  0.5071
  103MOL   H15324837   5.975   4.608   4.287 -0.7634  2.4383 -0.2984
  103MOL   H15424838   5.702   4.712   4.499 -1.5556 -0.2580 -0.0537
  103MOL   H15524839   5.818   4.583   4.489  0.2892 -0.1213 -0.0358
  103MOL   H15624840   5.664   4.538   4.454  0.3373 -0.2999 -1.3291
  103MOL   H15724841   5.932   4.927   4.384 -1.6303  1.0514  0.8860
  103MOL   C15824842   5.616   4.633   4.214 -0.0817  0.1832  0.5968
  103MOL   C15924843   5.478   4.683   4.261 -0.9348 -0.0361 -0.0674
  103MOL   C16024844   5.429   4.594   4.377  0.3184  0.1958  0.6724
  103MOL   C16124845   5.477   4.836   4.307  0.5656 -0.2650  0.5279
  103MOL   O16224846   5.432   4.926   4.239  0.5361 -0.4573  0.0478
  103MOL   O16324847   5.524   4.860   4.436  0.2695  0.1188 -0.2330
  103MOL   H16424848   5.638   4.666   4.112 -0.1537 -0.7024  0.2934
  103MOL   H16524849   5.613   4.528   4.188  0.8232  0.9268 -2.8077
  103MOL   H16624850   5.468   4.617   4.476  2.1398 -0.9602  0.2635
  103MOL   H16724851   5.444   4.487   4.360  1.1682  0.8748 -3.4209
  103MOL   H16824852   5.321   4.600   4.386  0.4462 -0.2723  2.6825
  103MOL   H16924853   5.521   4.954   4.439 -0.3844  0.0873  0.1943
  103MOL   C17024854   5.374   4.673   4.150  0.3920  0.2212 -0.0823
  103MOL   C17124855   5.309   4.536   4.086  0.0004  0.8494 -0.0245
  103MOL   C17224856   5.400   4.413   4.084 -0.5174  0.0383 -0.1796
  103MOL   C17324857   5.186   4.504   4.181  0.1405 -0.5402  0.8606
  103MOL   O17424858   5.097   4.582   4.199 -0.7762 -0.1987 -0.2201
  103MOL   O17524859   5.177   4.377   4.227  0.2459 -0.0832 -0.1690
  103MOL   H17624860   5.290   4.736   4.180  0.5850  0.5501 -0.2336
  103MOL   H17724861   5.416   4.727   4.065  1.5685 -2.3051 -1.1559
  103MOL   H17824862   5.335   4.331   4.054 -1.2014  0.2696  0.6403
  103MOL   H17924863   5.447   4.384   4.178  1.4180  0.1011 -1.0931
  103MOL   H18024864   5.483   4.439   4.017 -0.8308  0.1406 -0.5315
  103MOL   H18124865   5.100   4.352   4.277  0.7874 -0.2466  0.5917
  103MOL   C18224866   5.234   4.568   3.950  0.0105 -0.6540 -0.5480
  103MOL   C18324867   5.296   4.558   3.811  0.3702 -0.1115  0.2416
  103MOL   C18424868   5.426   4.641   3.803  0.6076 -0.3666 -0.0621
  103MOL   C18524869   5.334   4.413   3.775  0.5283 -0.2799  0.3696
  103MOL   O18624870   5.438   4.380   3.716  0.6140 -0.2908  0.6716
  103MOL   O18724871   5.240   4.327   3.809 -0.3254  0.1037  0.0026
  103MOL   H18824872   5.141   4.511   3.942 -0.0980 -0.8019  1.5091
  103MOL   H18924873   5.211   4.673   3.965 -1.7744 -1.0776 -0.1536
  103MOL   H19024874   5.404   4.745   3.827 -1.8459 -1.1044  1.1440
  103MOL   H19124875   5.480   4.642   3.708 -1.5380 -0.1615 -1.3262
  103MOL   H19224876   5.492   4.598   3.878  0.1261  0.5684  0.9055
  103MOL   H19324877   5.289   4.247   3.798 -0.2673  0.0612  0.5222
  103MOL   C19424878   5.181   4.605   3.709  0.5136 -0.5240  0.1281
  103MOL   C19524879   5.201   4.633   3.556 -0.1842 -0.1649  0.4851
  103MOL   C19624880   5.325   4.727   3.531  0.1088 -0.5525  1.4621
  103MOL   C19724881   5.216   4.511   3.459  0.4145  0.0687  0.2630
  103MOL   O19824882   5.248   4.535   3.342 -0.0887 -0.2722  0.2416
  103MOL   O19924883   5.202   4.383   3.512  0.4866 -0.6866 -0.3707
  103MOL   H20024884   5.091   4.550   3.739  0.3667  0.4643  1.5402
  103MOL   H20124885   5.155   4.705   3.745  1.3386  0.0927 -0.9690
  103MOL   H20224886   5.340   4.796   3.614  1.7524 -1.7313  2.1692
  103MOL   H20324887   5.319   4.785   3.439 -1.2153 -2.7449  0.0992
  103MOL   H20424888   5.409   4.657   3.527 -0.5318 -1.2738  0.4747
  103MOL   H20524889   5.219   4.318   3.446  0.4861  1.0005 -2.0481
  103MOL   C20624890   5.075   4.718   3.498  0.5716  0.2209 -0.0776
  103MOL   C20724891   4.916   4.680   3.511 -0.3394  0.3299 -0.1835
  103MOL   C20824892   4.905   4.533   3.478  0.0178 -0.5032 -0.1344
  103MOL   C20924893   4.853   4.702   3.652  0.2489  0.4842 -0.5196
  103MOL   O21024894   4.762   4.633   3.702  0.0403 -0.1472  0.3665
  103MOL   O21124895   4.905   4.815   3.717  0.0915  0.3935  0.0745
  103MOL   H21224896   5.076   4.815   3.550  0.9707  0.9904 -1.4976
  103MOL   H21324897   5.091   4.748   3.395  0.3010 -0.7636 -0.4125
  103MOL   H21424898   4.806   4.493   3.499 -1.0709  1.4812 -1.3778
  103MOL   H21524899   4.965   4.465   3.539  1.1756 -0.2212 -0.9297
  103MOL   H21624900   4.932   4.525   3.373 -5.3187  2.3532 -1.8796
  103MOL   H21724901   4.851   4.828   3.794 -0.1783 -1.5563  0.2341
  103MOL   C21824902   4.840   4.777   3.407 -0.7315  0.0696  0.7972
  103MOL   C21924903   4.685   4.771   3.375 -0.6079  0.0809 -0.2173
  103MOL   C22024904   4.625   4.631   3.347  0.4008 -0.6622  0.2018
  103MOL   C22124905   4.600   4.835   3.486  0.1176 -0.0703 -0.4154
  103MOL   O22224906   4.492   4.800   3.527 -0.8817 -0.3496 -0.0107
  103MOL   O22324907   4.663   4.938   3.536  0.2112  0.0400 -0.1819
  103MOL   H22424908   4.865   4.879   3.436  2.4852 -0.7580  1.1052
  103MOL   H22524909   4.897   4.779   3.314  0.3198  0.2606  1.4452
  103MOL   H22624910   4.525   4.630   3.303 -0.7830  1.8336  2.6875
  103MOL   H22724911   4.616   4.575   3.439  0.0307 -0.8830  0.0338
  103MOL   H22824912   4.688   4.570   3.281  0.3622 -1.0302  0.5072
  103MOL   H22924913   4.620   4.959   3.618 -1.0468 -3.1999  0.0394
  103MOL   C23024914   4.665   4.864   3.250  0.4512 -0.4294 -0.1551
  103MOL   C23124915   4.714   4.821   3.106  0.5731 -0.2696 -0.4836
  103MOL   C23224916   4.602   4.739   3.030  0.0420  0.0438 -0.0647
  103MOL   C23324917   4.761   4.944   3.028 -0.2436 -0.4356  0.3487
  103MOL   O23424918   4.729   4.966   2.909 -0.6261 -0.4447  0.0138
  103MOL   O23524919   4.850   5.020   3.093  0.1938 -0.1037 -0.7685
  103MOL   H23624920   4.559   4.887   3.239  0.8605  1.3441 -0.5979
  103MOL   H23724921   4.706   4.964   3.268 -1.3410  0.2319  0.3612
  103MOL   H23824922   4.621   4.738   2.922  2.6086 -0.7236  0.3621
  103MOL   H23924923   4.502   4.782   3.043 -0.8433 -1.0713 -2.7969
  103MOL   H24024924   4.590   4.640   3.072 -1.7416  0.8828  1.4871
  103MOL   H24124925   4.878   5.092   3.038  2.1165 -1.0713 -1.1009
  103MOL   H24224926   4.799   4.754   3.120 -1.6462 -2.6751  2.0260
  104MOL     C124927   3.357   7.042   3.034  0.0714 -0.1831 -0.2381
  104MOL     C224928   3.261   7.128   3.124  0.5368 -0.0555  0.2675
  104MOL     C324929   3.345   7.230   3.194  0.2344 -0.2911  0.0155
  104MOL     C424930   3.168   7.196   3.025  0.0124  0.6120 -0.4300
  104MOL     O524931   3.135   7.313   3.044 -0.4464  0.2144  0.3210
  104MOL     O624932   3.122   7.116   2.918 -0.4917  0.7687 -0.0801
  104MOL     H724933   3.406   7.100   2.956 -0.2153 -1.6247 -1.5126
  104MOL     H824934   3.295   6.970   2.981 -1.6108  0.4480  0.8126
  104MOL     H924935   3.282   7.299   3.251 -0.7312 -2.1384  1.2535
  104MOL    H1024936   3.414   7.282   3.129 -1.1736  0.1539 -1.1595
  104MOL    H1124937   3.402   7.171   3.266  2.6992  1.6868 -0.2614
  104MOL    H1224938   3.056   7.163   2.869 -2.0063  0.6249  1.7474
  104MOL    H1324939   3.440   6.992   3.085  0.4895 -1.4521 -2.0973
  104MOL    C1424940   3.186   7.032   3.225 -0.5131 -0.9469  0.4629
  104MOL    C1524941   3.052   7.059   3.302  0.6779  0.0428  0.3100
  104MOL    C1624942   2.941   7.049   3.196 -0.2295  0.5658 -0.5288
  104MOL    C1724943   3.035   6.926   3.384  0.7989 -0.3369 -0.3526
  104MOL    O1824944   3.055   6.926   3.506  0.3278  0.1790  0.4103
  104MOL    O1924945   3.005   6.819   3.302  0.0512  0.4920 -0.1698
  104MOL    H2024946   3.173   6.938   3.172  1.4664 -0.2171 -1.3932
  104MOL    H2124947   3.259   7.001   3.300 -0.6994  1.9165  1.8868
  104MOL    H2224948   2.940   7.145   3.145 -1.2349  0.1755 -1.2635
  104MOL    H2324949   2.841   7.038   3.239  0.9518 -2.9222  1.6000
  104MOL    H2424950   2.958   6.963   3.131 -1.7707  0.7786 -1.2319
  104MOL    H2524951   2.981   6.740   3.349  0.6035 -0.4122 -1.3662
  104MOL    C2624952   3.037   7.193   3.394 -0.3929 -0.4189 -0.8074
  104MOL    C2724953   2.902   7.252   3.459 -0.1119  0.9309 -0.3629
  104MOL    C2824954   2.813   7.320   3.345 -0.3640 -0.2419  0.2234
  104MOL    C2924955   2.817   7.132   3.522 -0.5796 -0.4668  1.0980
  104MOL    O3024956   2.726   7.079   3.459  0.3392  0.0910 -0.3794
  104MOL    O3124957   2.867   7.088   3.641  0.4074  0.9631 -0.2462
  104MOL    H3224958   3.117   7.184   3.467  0.0977  0.9740 -1.1595
  104MOL    H3324959   3.079   7.281   3.345 -0.5162  0.0691 -0.0397
  104MOL    H3424960   2.714   7.348   3.380 -0.1580 -0.2657  0.8281
  104MOL    H3524961   2.803   7.246   3.265  1.6339 -0.2503 -0.0359
  104MOL    H3624962   2.866   7.407   3.307  0.3155 -0.2270  1.2003
  104MOL    H3724963   2.816   7.011   3.662  1.0610  0.5494 -0.1605
  104MOL    C3824964   2.952   7.364   3.554 -0.1356 -0.0491 -0.5603
  104MOL    C3924965   2.859   7.463   3.639 -0.3054 -0.2805  0.5868
  104MOL    C4024966   2.745   7.386   3.715 -0.1043  0.2220  0.2482
  104MOL    C4124967   2.956   7.530   3.743 -0.0759 -0.2055 -0.2261
  104MOL    O4224968   2.933   7.522   3.862 -0.4600  0.1080  0.2865
  104MOL    O4324969   3.076   7.577   3.693 -0.2663  0.5259  0.4333
  104MOL    H4424970   3.013   7.307   3.624 -0.4495  0.2019 -0.0776
  104MOL    H4524971   3.020   7.433   3.504  0.0739 -0.4459 -0.8181
  104MOL    H4624972   2.692   7.441   3.793  1.1016  0.2210  1.0849
  104MOL    H4724973   2.797   7.313   3.778  0.3623 -0.2126 -0.6401
  104MOL    H4824974   2.670   7.342   3.650 -0.7034  1.4324  0.0975
  104MOL    H4924975   3.127   7.630   3.753  3.8757 -2.5847 -0.0673
  104MOL    C5024976   2.787   7.566   3.548 -1.0430  0.0645 -0.1666
  104MOL    C5124977   2.729   7.709   3.593  0.7800 -0.4245  0.7073
  104MOL    C5224978   2.854   0.040   3.594  0.6390  0.0732  0.3480
  104MOL    C5324979   2.633   7.741   3.481 -0.1800 -0.5829  0.3881
  104MOL    O5424980   2.649   0.058   3.393  0.4433  0.3308 -0.2619
  104MOL    O5524981   2.526   7.659   3.490 -0.1663 -0.3646 -0.0001
  104MOL    H5624982   2.857   7.582   3.466  1.5188 -2.1278  1.5204
  104MOL    H5724983   2.716   7.500   3.497 -0.7028 -1.6747  1.5742
  104MOL    H5824984   2.941   0.007   3.536  0.8748  0.4434  0.4867
  104MOL    H5924985   2.889   0.053   3.696  1.2397  3.0619 -0.1879
  104MOL    H6024986   2.839   0.132   3.537 -2.1384 -0.6029 -0.0733
  104MOL    H6124987   2.467   7.680   3.419  0.2557  0.5176 -0.0971
  104MOL    C6224988   2.660   7.704   3.728  0.1742  0.3089  0.0160
  104MOL    C6324989   2.572   0.057   3.795 -0.1764  0.3265  0.7092
  104MOL    C6424990   2.553   0.007   3.939  0.6452 -0.2919 -0.7561
  104MOL    C6524991   2.658   0.182   3.793  0.4994  0.2088 -0.0725
  104MOL    O6624992   2.729   0.210   3.891 -0.1168  0.4976 -0.2190
  104MOL    O6724993   2.642   0.259   3.678 -0.5461  0.1611 -0.0468
  104MOL    H6824994   2.605   7.610   3.722  1.2389 -0.2170 -1.8045
  104MOL    H6924995   2.740   7.682   3.799 -1.1949 -1.8416  0.9506
  104MOL    H7024996   2.645   7.755   3.993  0.2301  1.2918  0.5828
  104MOL    H7124997   2.514   7.673   3.940  0.7815 -0.3383 -0.2930
  104MOL    H7224998   2.511   0.077   4.012 -0.5080 -0.4209 -1.2873
  104MOL    H7324999   2.689   0.340   3.678  0.0001 -0.1493 -0.8011
  104MOL    C7425000   2.444   0.063   3.717 -0.7268  0.0474 -0.6353
  104MOL    C7525001   2.310   0.133   3.766 -0.2987 -0.2590  0.3236
  104MOL    C7625002   2.268   0.098   3.914 -0.1155  0.6865 -0.1696
  104MOL    C7725003   2.334   0.291   3.752 -0.5053 -0.3204 -0.3831
  104MOL    O7825004   2.360   0.370   3.840 -0.1410 -0.2266 -0.2435
  104MOL    O7925005   2.326   0.321   3.619  0.6351 -0.2042  0.5617
  104MOL    H8025006   2.462   0.095   3.615  0.6602 -0.5532 -0.5931
  104MOL    H8125007   2.410   7.727   3.720  1.4952 -0.7046 -0.0008
  104MOL    H8225008   2.159   0.107   3.923 -0.0451  0.2209  1.1702
  104MOL    H8325009   2.319   0.154   3.993 -2.4290  0.5585  1.4564
  104MOL    H8425010   2.294   7.760   3.921  1.2914  0.9159 -1.7353
  104MOL    H8525011   2.362   0.407   3.599  0.8999 -0.3144  0.5642
  104MOL    C8625012   2.209   0.080   3.650  0.3898  0.1932 -0.5016
  104MOL    C8725013   2.050   0.111   3.644  0.4081  0.6920  0.3830
  104MOL    C8825014   2.032   0.092   3.491 -0.4166 -0.0269  0.0135
  104MOL    C8925015   1.966   0.001   3.712  0.1838 -0.1703 -0.5962
  104MOL    O9025016   1.862   7.733   3.660 -0.3262 -0.0498 -0.3850
  104MOL    O9125017   2.020   7.715   3.821  0.1448  0.2841 -0.6380
  104MOL    H9225018   2.263   0.099   3.557  0.4482  0.0156 -0.5052
  104MOL    H9325019   2.211   7.738   3.642  0.6857  0.2851 -1.7020
  104MOL    H9425020   2.078   0.001   3.451  2.0156  0.7776  0.8753
  104MOL    H9525021   2.065   0.182   3.439 -0.9338  0.5937  0.7466
  104MOL    H9625022   1.929   0.078   3.457  0.0658 -0.9117 -1.0958
  104MOL    H9725023   2.093   0.001   3.845  0.9223 -1.4093  0.9178
  104MOL    C9825024   2.022   0.260   3.686 -0.1635  0.1336 -0.0772
  104MOL    C9925025   1.871   0.312   3.706 -0.4049  0.0927 -0.5741
  104MOL   C10025026   1.800   0.269   3.574  0.4573  0.3854 -0.1648
  104MOL   C10125027   1.804   0.239   3.830  0.0303  0.0041  0.2266
  104MOL   O10225028   1.857   0.224   3.938 -0.4017 -0.3367 -0.0115
  104MOL   O10325029   1.676   0.191   3.799 -0.0472  0.0065 -0.1660
  104MOL   H10425030   2.071   0.275   3.783 -2.6484 -1.1819  1.4312
  104MOL   H10525031   2.076   0.323   3.616  2.6194 -2.2110 -0.1544
  104MOL   H10625032   1.849   0.294   3.480 -0.6094  1.3618 -0.4697
  104MOL   H10725033   1.714   0.334   3.558  0.1909 -0.2845 -1.5084
  104MOL   H10825034   1.770   0.165   3.564  1.7888  0.0879 -1.2881
  104MOL   H10925035   1.655   0.142   3.877 -0.5744 -1.0798 -0.9647
  104MOL   C11025036   1.865   0.464   3.715 -0.4349 -0.2521  0.2700
  104MOL   C11125037   1.903   0.547   3.842  0.4706  0.1224  0.2306
  104MOL   C11225038   2.031   0.505   3.916 -0.0233  0.4338 -0.2757
  104MOL   C11325039   1.934   0.688   3.786  0.2908  0.4651  0.7902
  104MOL   O11425040   2.042   0.742   3.797  0.3345 -0.5678  0.3670
  104MOL   O11525041   1.836   0.749   3.716  0.9296  0.2707  0.2755
  104MOL   H11625042   1.929   0.500   3.635 -0.9989  2.0810  0.8194
  104MOL   H11725043   1.773   0.496   3.666 -0.2647 -1.5767 -0.9426
  104MOL   H11825044   2.114   0.498   3.846 -1.9205 -0.1046 -2.5347
  104MOL   H11925045   2.025   0.418   3.982  2.5253  0.6406  0.3122
  104MOL   H12025046   2.067   0.587   3.978  1.9047 -0.1683 -0.5542
  104MOL   H12125047   1.748   0.716   3.725  1.0538 -1.9832 -4.6912
  104MOL   C12225048   1.780   0.540   3.943 -0.5426  0.0858  0.0415
  104MOL   C12325049   1.736   0.650   4.041  1.0357  0.0108 -0.1131
  104MOL   C12425050   1.855   0.700   4.119 -0.3913  0.2638  0.0779
  104MOL   C12525051   1.653   0.770   3.976  0.5200  0.4207 -0.2055
  104MOL   O12625052   1.609   0.777   3.867  0.2621  1.1611 -0.3994
  104MOL   O12725053   1.642   0.873   4.065  0.1425 -0.3341  0.0515
  104MOL   H12825054   1.693   0.520   3.880  0.2834  0.6551 -1.3195
  104MOL   H12925055   1.773   0.449   4.003  0.0024  1.2115  1.8483
  104MOL   H13025056   1.906   0.623   4.176  3.7008  0.8151 -2.6174
  104MOL   H13125057   1.841   0.784   4.187  3.8304  1.3142 -0.2253
  104MOL   H13225058   1.932   0.732   4.049 -0.2285  2.9213  1.3981
  104MOL   H13325059   1.607   0.948   4.020 -0.5292 -1.3377 -1.1567
  104MOL   C13425060   1.647   0.593   4.163 -0.2823 -0.0323 -0.0410
  104MOL   C13525061   1.503   0.531   4.153  0.0508  0.5654  0.1576
  104MOL   C13625062   1.406   0.625   4.086  0.0076  0.1510 -0.0583
  104MOL   C13725063   1.514   0.403   4.070  0.8472 -0.1898  0.1869
  104MOL   O13825064   1.441   0.380   3.975 -0.1689  0.6510  0.4718
  104MOL   O13925065   1.606   0.313   4.106  0.0943  0.2090  0.0117
  104MOL   H14025066   1.714   0.524   4.215  0.6375  2.7089  2.6081
  104MOL   H14125067   1.646   0.673   4.238 -0.9486 -0.0947  0.0117
  104MOL   H14225068   1.303   0.603   4.115  0.6256  1.5075  3.3897
  104MOL   H14325069   1.406   0.627   3.977  0.9851 -1.1630 -0.0943
  104MOL   H14425070   1.416   0.725   4.127  0.1468 -0.0234  0.3284
  104MOL   H14525071   1.586   0.231   4.063  0.2479  0.4400 -0.5013
  104MOL   C14625072   1.444   0.487   4.303  0.2140  0.4098 -0.0029
  104MOL   C14725073   1.451   0.580   4.430 -0.2653  0.2262  0.4806
  104MOL   C14825074   1.586   0.549   4.492 -0.2019  0.2660 -0.0137
  104MOL   C14925075   1.418   0.723   4.407  0.5789 -0.0713  0.5834
  104MOL   O15025076   1.493   0.815   4.430 -0.0087  0.5097  0.3672
  104MOL   O15125077   1.292   0.742   4.356  0.4391 -0.7819  0.3304
  104MOL   H15225078   1.340   0.466   4.278 -0.0586  2.0161 -0.2523
  104MOL   H15325079   1.494   0.400   4.345 -0.2636  0.8338  1.4861
  104MOL   H15425080   1.657   0.555   4.409  0.2877  1.6509  0.4867
  104MOL   H15525081   1.581   0.443   4.518 -2.2279  0.9239  2.4351
  104MOL   H15625082   1.629   0.619   4.564  0.9736  1.7404 -2.0986
  104MOL   H15725083   1.266   0.831   4.343 -0.4621 -0.9562  0.8865
  104MOL   C15825084   1.336   0.526   4.523 -0.4189  0.2140  0.1887
  104MOL   C15925085   1.305   0.555   4.674  0.5452  0.3097  0.0666
  104MOL   C16025086   1.280   0.708   4.696 -0.1784  0.7383 -0.7640
  104MOL   C16125087   1.178   0.469   4.712  0.3109  0.2600  0.3206
  104MOL   O16225088   1.184   0.345   4.718 -0.3010 -0.1794  0.1391
  104MOL   O16325089   1.081   0.548   4.755  0.1449 -0.2529 -0.1214
  104MOL   H16425090   1.245   0.533   4.464 -0.5155 -0.8859  0.2019
  104MOL   H16525091   1.348   0.417   4.520 -1.2897  0.1433 -1.0160
  104MOL   H16625092   1.223   0.743   4.782  1.1227  1.1347 -0.0560
  104MOL   H16725093   1.214   0.737   4.614  2.0857 -0.4995 -3.1088
  104MOL   H16825094   1.367   0.772   4.681  0.5332 -0.4422 -1.7641
  104MOL   H16925095   1.001   0.503   4.776 -1.0458  0.8725 -2.0860
  104MOL   C17025096   1.434   0.508   4.760  0.4730 -0.5428  0.8675
  104MOL   C17125097   1.432   0.484   4.910 -0.3175 -0.2291  0.2478
  104MOL   C17225098   1.359   0.599   4.985 -0.0964 -0.2380  0.9628
  104MOL   C17325099   1.378   0.341   4.953 -0.8216 -0.5695  0.0946
  104MOL   O17425100   1.268   0.327   5.009 -0.0402  0.0129  0.0067
  104MOL   O17525101   1.456   0.241   4.919 -0.6057  0.4353 -0.1372
  104MOL   H17625102   1.472   0.422   4.705  1.2478  0.4062 -0.1042
  104MOL   H17725103   1.503   0.590   4.740  0.8600 -1.3126 -1.0486
  104MOL   H17825104   1.397   0.603   5.087  0.0134 -0.1056  0.9166
  104MOL   H17925105   1.250   0.601   4.978 -0.0320  0.3939  0.0420
  104MOL   H18025106   1.391   0.693   4.939 -0.7942  1.4057  3.7313
  104MOL   H18125107   1.420   0.167   4.965  1.2612  1.3270  2.9297
  104MOL   C18225108   1.587   0.490   4.956 -0.0087  0.8621 -0.1057
  104MOL   C18325109   1.648   0.476   5.104  0.9026 -0.3596  0.6352
  104MOL   C18425110   1.671   0.617   5.156 -0.5789 -0.1422  0.1106
  104MOL   C18525111   1.548   0.406   5.204  0.1378 -0.3570  0.3697
  104MOL   O18625112   1.488   0.464   5.293  0.7097  0.4789 -0.4507
  104MOL   O18725113   1.548   0.272   5.193  0.0073 -0.1595  0.1985
  104MOL   H18825114   1.648   0.427   4.891 -0.7100 -2.2914  2.2049
  104MOL   H18925115   1.623   0.584   4.915 -1.2553 -0.0162 -3.3685
  104MOL   H19025116   1.726   0.674   5.081  2.2942 -0.6157  1.7546
  104MOL   H19125117   1.733   0.605   5.246 -0.6704  1.1367  0.3535
  104MOL   H19225118   1.574   0.663   5.174 -1.2749 -1.3249 -0.5881
  104MOL   H19325119   1.498   0.238   5.266 -1.0712  0.1246 -0.3842
  104MOL   C19425120   1.781   0.388   5.095  0.7986 -0.3967 -0.2414
  104MOL   C19525121   1.917   0.423   5.027  0.0066 -0.2257 -0.5748
  104MOL   C19625122   1.900   0.509   4.902  1.0527 -0.5266  0.2335
  104MOL   C19725123   2.012   0.506   5.126 -0.6444  0.6353  0.6668
  104MOL   O19825124   2.094   0.581   5.086 -0.1244  0.1355 -0.7972
  104MOL   O19925125   2.004   0.466   5.256 -0.2520  0.1059 -0.3632
  104MOL   H20025126   1.805   0.337   5.188 -1.3966 -0.9447  0.0442
  104MOL   H20125127   1.747   0.307   5.030 -1.8217  1.4515 -1.2769
  104MOL   H20225128   1.849   0.604   4.914  1.0576 -0.3347 -1.1492
  104MOL   H20325129   1.839   0.451   4.833  1.8931  0.3033 -1.2551
  104MOL   H20425130   2.000   0.522   4.860  0.8600 -1.2803 -0.4913
  104MOL   H20525131   2.055   0.511   5.321  0.2337  2.4970 -2.2975
  104MOL   C20625132   1.989   0.290   4.985 -0.4503 -0.0116  0.2503
  104MOL   C20725133   2.020   0.162   5.067  1.1492 -0.3452  0.3470
  104MOL   C20825134   2.139   0.182   5.174  0.1227 -0.5005 -0.5034
  104MOL   C20925135   1.897   0.112   5.144 -0.1223 -0.1047 -0.6918
  104MOL   O21025136   1.898   0.109   5.269  0.3837 -0.2728  0.0249
  104MOL   O21125137   1.789   0.081   5.067  0.2762  0.1847  0.2893
  104MOL   H21225138   1.928   0.265   4.899 -0.3404 -0.8484  0.4121
  104MOL   H21325139   2.089   0.315   4.949 -0.3632 -0.9704 -0.2008
  104MOL   H21425140   2.218   0.247   5.136  1.3637 -1.8764 -0.3544
  104MOL   H21525141   2.187   0.094   5.216  0.8494 -0.2354 -0.7628
  104MOL   H21625142   2.104   0.243   5.258  2.3803  0.7982 -0.4567
  104MOL   H21725143   1.714   0.044   5.112  1.7190 -1.9563  1.0146
  104MOL   C21825144   2.066   0.056   4.960  0.9440  0.3977  0.1686
  104MOL   C21925145   2.133   7.677   4.973 -0.0197  0.4243 -0.1977
  104MOL   C22025146   2.053   7.577   5.066 -0.1012  0.0189 -0.3275
  104MOL   C22125147   2.127   7.609   4.832  0.3144 -0.4086 -0.0140
  104MOL   O22225148   2.135   7.485   4.816 -0.6916 -0.0580 -0.1553
  104MOL   O22325149   2.143   7.696   4.730 -0.1861  0.3533  0.4479
  104MOL   H22425150   1.981   0.033   4.895  1.2302 -0.2906  0.0294
  104MOL   H22525151   2.123   0.108   4.883  3.1742 -0.8238  0.9671
  104MOL   H22625152   2.108   7.489   5.100  2.1060  0.8604 -1.6085
  104MOL   H22725153   1.954   7.552   5.028  1.1246 -3.8797 -1.1645
  104MOL   H22825154   2.044   7.631   5.160 -0.9376 -2.4234  1.0572
  104MOL   H22925155   2.169   7.656   4.648 -0.6320  0.3920  0.2847
  104MOL   C23025156   2.275   7.683   5.029 -0.1873  0.5283  0.4281
  104MOL   C23125157   2.380   0.009   4.964  0.0470  0.5568 -0.0362
  104MOL   C23225158   2.491   0.058   5.062  0.7618  0.3694  0.7631
  104MOL   C23325159   2.443   7.725   4.840 -0.2471  0.3470 -0.2702
  104MOL   O23425160   2.478   7.609   4.829 -0.5378  0.2634  0.0655
  104MOL   O23525161   2.454   0.056   4.744  0.0547  0.1820  0.5139
  104MOL   H23625162   2.275   7.693   5.137 -0.6079  0.8664  0.3985
  104MOL   H23725163   2.300   7.578   5.014 -0.9011  0.3386  0.5686
  104MOL   H23825164   2.569   7.749   5.061  0.0113 -0.3985 -0.2106
  104MOL   H23925165   2.453   0.083   5.161  0.0929  2.5776 -0.0318
  104MOL   H24025166   2.519   0.155   5.021  0.0070  1.1105  1.9815
  104MOL   H24125167   2.484   0.016   4.664 -1.9607  1.1370 -0.7507
  104MOL   H24225168   2.324   0.102   4.955 -0.1428  0.8506  3.4621
  105MOL     C125169   1.286   2.855   4.218  0.1547  0.0696  0.1889
  105MOL     C225170   1.208   2.724   4.188  0.1395 -0.6774 -0.6986
  105MOL     C325171   1.248   2.696   4.035  0.2819 -0.7243 -0.1837
  105MOL     C425172   1.254   2.606   4.265 -0.4172  0.1188 -0.2198
  105MOL     O525173   1.337   2.611   4.356  0.1982 -0.0117  0.2557
  105MOL     O625174   1.195   2.494   4.215  0.2340  0.7606 -0.3969
  105MOL     H725175   1.238   2.939   4.167  0.3411 -0.8299 -1.5169
  105MOL     H825176   1.382   2.848   4.167 -0.0145 -2.9265  0.2006
  105MOL     H925177   1.347   2.652   4.018  0.0922 -0.7510 -1.2389
  105MOL    H1025178   1.236   2.777   3.963  0.4433 -1.6160 -1.2078
  105MOL    H1125179   1.175   2.622   4.003 -0.2471  0.6553 -2.2867
  105MOL    H1225180   1.235   2.416   4.249  0.9585  1.0279 -0.6417
  105MOL    H1325181   1.296   2.877   4.324 -0.6856  0.1053  0.2661
  105MOL    C1425182   1.056   2.760   4.184 -0.8372  0.2591 -0.0870
  105MOL    C1525183   0.991   2.817   4.313 -0.4520 -0.2700 -0.3921
  105MOL    C1625184   1.045   2.743   4.444  0.2369 -0.3901  0.0292
  105MOL    C1725185   1.027   2.967   4.337 -0.4495  0.5099  0.6808
  105MOL    O1825186   1.055   3.016   4.444  0.2151  0.1249 -0.1966
  105MOL    O1925187   1.023   3.044   4.220  0.3399 -0.0229 -0.2111
  105MOL    H2025188   1.048   2.828   4.100  2.9660  0.0457 -0.7383
  105MOL    H2125189   0.999   2.672   4.155 -1.2309  0.1903  0.8637
  105MOL    H2225190   1.151   2.761   4.459  0.3724  0.5175 -1.7866
  105MOL    H2325191   1.021   2.637   4.440  2.7913 -1.0045 -0.1389
  105MOL    H2425192   0.991   2.777   4.533  0.0143  1.1564 -0.6654
  105MOL    H2525193   1.039   3.135   4.239  0.0149 -0.1552  0.6881
  105MOL    C2625194   0.838   2.796   4.314 -0.7896 -0.4854 -0.5399
  105MOL    C2725195   0.735   2.873   4.222 -0.2912 -0.4031 -0.7030
  105MOL    C2825196   0.606   2.800   4.229  0.4213  0.1925  0.4164
  105MOL    C2925197   0.712   3.013   4.289  0.6203 -0.0125 -0.5221
  105MOL    O3025198   0.749   3.118   4.237 -0.3912 -0.2603 -0.7426
  105MOL    O3125199   0.642   3.006   4.407 -0.0826  0.1221  0.1235
  105MOL    H3225200   0.825   2.688   4.302  1.9098 -0.7557 -1.5181
  105MOL    H3325201   0.802   2.811   4.416 -1.1426  0.5049 -0.8079
  105MOL    H3425202   0.602   2.712   4.165  0.4557  0.0483  0.6138
  105MOL    H3525203   0.519   2.859   4.199  0.8473 -0.6695 -2.7161
  105MOL    H3625204   0.588   2.763   4.330 -0.3446  0.5533  0.4148
  105MOL    H3725205   0.630   3.095   4.439 -1.0940  0.0646 -0.0967
  105MOL    C3825206   0.782   2.876   4.063  0.1251  0.2248 -0.5491
  105MOL    C3925207   0.697   2.928   3.942 -0.0620  0.0724 -0.7042
  105MOL    C4025208   0.791   2.936   3.819 -0.0649  0.4421  0.1312
  105MOL    C4125209   0.588   2.821   3.916 -0.9488  0.2846 -0.2869
  105MOL    O4225210   0.469   2.841   3.948  0.3687 -0.1992  0.0625
  105MOL    O4325211   0.638   2.709   3.862 -0.1916  0.6199 -0.1501
  105MOL    H4425212   0.863   2.948   4.073 -0.3718  0.9036 -1.3223
  105MOL    H4525213   0.824   2.778   4.039 -1.0835 -0.0509 -1.6461
  105MOL    H4625214   0.756   2.909   3.719 -1.6699  2.8700 -0.0021
  105MOL    H4725215   0.873   2.867   3.839 -1.4091 -1.0068  0.6609
  105MOL    H4825216   0.831   3.037   3.811  0.9083 -0.1257 -3.2164
  105MOL    H4925217   0.561   2.655   3.853  0.3938 -0.2195 -0.1102
  105MOL    C5025218   0.624   3.073   3.971  0.5273  1.1901 -0.3413
  105MOL    C5125219   0.527   3.157   3.878 -0.1971  0.2218  0.0006
  105MOL    C5225220   0.385   3.153   3.932  0.0058  0.6944 -0.0170
  105MOL    C5325221   0.580   3.302   3.871  0.0534  0.4743 -0.6278
  105MOL    O5425222   0.533   3.399   3.927  0.7337 -0.2129  0.2730
  105MOL    O5525223   0.700   3.307   3.801  0.1063 -0.8510  0.1461
  105MOL    H5625224   0.565   3.054   4.061  0.3741  3.5193  0.0775
  105MOL    H5725225   0.699   3.141   4.011  1.1896 -1.0752  2.3866
  105MOL    H5825226   0.325   3.235   3.893 -0.2010  0.5673  0.0282
  105MOL    H5925227   0.376   3.154   4.041 -1.2877 -0.7631 -0.0935
  105MOL    H6025228   0.342   3.057   3.904  0.8220  0.2420  0.2822
  105MOL    H6125229   0.730   3.397   3.801  0.9562 -1.1158  1.9754
  105MOL    C6225230   0.513   3.099   3.733  0.0167 -0.2134  0.2029
  105MOL    C6325231   0.419   3.153   3.610 -0.5213  0.4030  0.0063
  105MOL    C6425232   0.273   3.149   3.637 -0.8873 -0.3856  0.1241
  105MOL    C6525233   0.464   3.300   3.578  0.0242  0.1408  0.1311
  105MOL    O6625234   0.572   3.328   3.529  0.1716 -0.4523  0.1594
  105MOL    O6725235   0.375   3.401   3.610  0.7130 -0.0053 -0.1682
  105MOL    H6825236   0.611   3.088   3.687 -0.4029 -1.5586 -0.4227
  105MOL    H6925237   0.493   2.993   3.750  1.5805 -0.4473  0.6344
  105MOL    H7025238   0.224   3.233   3.685 -1.2103 -0.5086  0.0154
  105MOL    H7125239   0.244   3.069   3.705  0.4878 -1.5047 -0.5733
  105MOL    H7225240   0.210   3.140   3.548 -0.1475 -1.4396 -0.3075
  105MOL    H7325241   0.290   3.366   3.631  1.2411 -0.0963  1.9227
  105MOL    C7425242   0.463   3.075   3.487 -0.2561  0.3690 -0.0109
  105MOL    C7525243   0.442   2.914   3.464  0.5148  0.0450  0.2145
  105MOL    C7625244   0.323   2.859   3.550  0.0586  0.4438  0.8949
  105MOL    C7725245   0.413   2.908   3.312  0.6739  0.0287  0.5126
  105MOL    O7825246   0.302   2.872   3.260 -0.2491 -0.6078 -0.0820
  105MOL    O7925247   0.511   2.937   3.230 -0.4193 -0.0306 -0.4318
  105MOL    H8025248   0.421   3.131   3.403 -0.8564 -0.6277 -0.3810
  105MOL    H8125249   0.568   3.097   3.468 -0.4408 -0.2107 -1.7939
  105MOL    H8225250   0.337   2.868   3.658  1.7430  0.6183  0.6711
  105MOL    H8325251   0.304   2.755   3.523 -0.8745  1.7393 -3.8006
  105MOL    H8425252   0.237   2.917   3.517  3.3855  2.6249 -4.6151
  105MOL    H8525253   0.475   2.925   3.144  1.4759  0.5164 -1.3248
  105MOL    C8625254   0.573   2.839   3.500 -0.3281 -0.3884 -0.6669
  105MOL    C8725255   0.639   2.708   3.441 -0.0406 -0.3129 -0.5841
  105MOL    C8825256   0.527   2.613   3.386  0.0135 -0.3229 -0.3180
  105MOL    C8925257   0.729   2.750   3.322  0.1790  0.5198 -0.0824
  105MOL    O9025258   0.785   2.859   3.315  0.1701  0.3586  0.4691
  105MOL    O9125259   0.737   2.650   3.232  0.3197  0.4878  0.3282
  105MOL    H9225260   0.659   2.906   3.507  1.1866 -2.1869 -1.3254
  105MOL    H9325261   0.565   2.821   3.607  2.1547  0.5880 -0.2737
  105MOL    H9425262   0.469   2.650   3.301 -0.8550 -1.5149 -0.2532
  105MOL    H9525263   0.451   2.604   3.462  1.2119  1.0829  1.0753
  105MOL    H9625264   0.567   2.518   3.349  0.1542 -0.3494 -0.1021
  105MOL    H9725265   0.804   2.675   3.169  2.1326 -0.3608  1.8608
  105MOL    C9825266   0.724   2.636   3.553 -0.4634  0.7948  0.3567
  105MOL    C9925267   0.837   2.528   3.539 -0.5502 -0.5232  0.3607
  105MOL   C10025268   0.799   2.406   3.467 -0.0655 -0.2432  0.3880
  105MOL   C10125269   0.963   2.596   3.470 -0.4182  0.0899 -0.3538
  105MOL   O10225270   0.999   2.575   3.355  0.7887  0.2368  0.5458
  105MOL   O10325271   1.018   2.689   3.555  0.1697 -0.7828 -0.0993
  105MOL   H10425272   0.777   2.709   3.614  1.2247  0.1385 -0.3008
  105MOL   H10525273   0.650   2.587   3.616 -1.1762 -0.2453 -1.2652
  105MOL   H10625274   0.875   2.331   3.445 -1.1234 -1.5326  1.0305
  105MOL   H10725275   0.758   2.428   3.368 -1.4958  1.1810  1.2893
  105MOL   H10825276   0.720   2.347   3.514 -1.4436  0.2029 -1.3024
  105MOL   H10925277   1.092   2.740   3.522 -3.1746  1.7632 -4.2896
  105MOL   C11025278   0.875   2.482   3.687  0.1654 -0.1654  0.4886
  105MOL   C11125279   0.993   2.390   3.739  0.3363  0.2176  0.9453
  105MOL   C11225280   0.983   2.248   3.671 -0.7588 -0.0958  0.1855
  105MOL   C11325281   1.137   2.446   3.710 -0.0268  0.0989  0.3596
  105MOL   O11425282   1.222   2.393   3.635 -0.2001 -0.1203 -0.1543
  105MOL   O11525283   1.152   2.566   3.766  0.3571 -0.0716 -0.1337
  105MOL   H11625284   0.881   2.573   3.746  1.1620  0.6679 -0.8715
  105MOL   H11725285   0.785   2.432   3.723  0.4048 -0.7235  0.3243
  105MOL   H11825286   0.878   2.218   3.672 -0.6855 -0.3182  1.0267
  105MOL   H11925287   1.044   2.172   3.719 -0.2807 -0.8517 -1.5540
  105MOL   H12025288   1.023   2.254   3.569 -0.3999  2.3872  0.4339
  105MOL   H12125289   1.230   2.606   3.731  0.9892 -1.2148 -0.0543
  105MOL   C12225290   0.983   2.375   3.893  0.6989  0.0084 -0.8333
  105MOL   C12325291   0.858   2.328   3.980  0.5024 -1.2919 -0.2901
  105MOL   C12425292   0.770   2.453   4.004  0.5601  0.4794  0.4620
  105MOL   C12525293   0.781   2.214   3.915  0.7928  0.7132  0.1789
  105MOL   O12625294   0.660   2.201   3.893 -0.0109  0.0045 -0.7219
  105MOL   O12725295   0.873   2.115   3.889  0.5435  0.0584  0.0907
  105MOL   H12825296   1.062   2.306   3.920 -1.0569 -1.3791  0.8958
  105MOL   H12925297   1.013   2.471   3.935 -0.5045  0.9590 -2.0766
  105MOL   H13025298   0.785   2.535   3.933 -0.7913  2.5811  2.5117
  105MOL   H13125299   0.774   2.498   4.103 -1.6751  1.0236  0.3442
  105MOL   H13225300   0.665   2.433   3.984  0.4698  0.8534  0.5543
  105MOL   H13325301   0.843   2.029   3.862 -2.3346  1.0167  0.1198
  105MOL   C13425302   0.914   2.283   4.123 -0.0508  0.0883  0.0389
  105MOL   C13525303   0.831   2.210   4.243 -0.8424 -0.4221  1.1484
  105MOL   C13625304   0.705   2.294   4.251 -0.2955 -0.1184 -0.0073
  105MOL   C13725305   0.796   2.064   4.216 -0.1440 -0.4417  0.1100
  105MOL   O13825306   0.689   2.012   4.230 -0.2501 -0.0801 -0.4479
  105MOL   O13925307   0.904   2.004   4.149  0.0561 -0.7224  0.0960
  105MOL   H14025308   1.004   2.222   4.113 -0.5028 -0.8189  1.3571
  105MOL   H14125309   0.956   2.377   4.159 -0.8869  0.6951 -0.5328
  105MOL   H14225310   0.728   2.398   4.273 -1.3570  0.1005  0.0547
  105MOL   H14325311   0.644   2.264   4.335 -0.8112 -0.1416 -0.3914
  105MOL   H14425312   0.637   2.287   4.166 -1.7736  1.7377  0.9946
  105MOL   H14525313   0.872   1.922   4.114  1.2772 -2.4301  2.8089
  105MOL   C14625314   0.921   2.224   4.365 -0.4789  0.1296  0.0718
  105MOL   C14725315   0.891   2.204   4.522 -0.0883  0.9322 -0.1778
  105MOL   C14825316   0.837   2.063   4.531 -1.5712 -0.4808  0.5509
  105MOL   C14925317   1.033   2.214   4.586 -0.4614 -0.3993 -0.5815
  105MOL   O15025318   1.081   2.128   4.661  0.5307 -0.1797  0.5934
  105MOL   O15125319   1.107   2.320   4.552  0.1965 -0.2310  0.2177
  105MOL   H15225320   1.008   2.161   4.345  0.5590  0.6771  2.7037
  105MOL   H15325321   0.975   2.318   4.355  1.1187 -0.8824 -1.0117
  105MOL   H15425322   0.896   1.993   4.473 -1.1161  1.8946 -1.9354
  105MOL   H15525323   0.738   2.055   4.486 -1.7537 -3.2260  1.3589
  105MOL   H15625324   0.839   2.023   4.633 -1.7066 -1.0353  0.3401
  105MOL   H15725325   1.049   2.375   4.500  0.6709 -0.5732 -0.6947
  105MOL   C15825326   0.786   2.313   4.573  0.0606  0.2342  0.6603
  105MOL   C15925327   0.772   2.362   4.719  0.5374  0.2612 -0.7846
  105MOL   C16025328   0.783   2.247   4.822 -0.0418 -0.1462 -0.0225
  105MOL   C16125329   0.881   2.467   4.750 -0.4965 -0.2963 -0.4820
  105MOL   O16225330   0.932   2.529   4.661 -0.1626  0.1796 -0.3633
  105MOL   O16325331   0.918   2.483   4.884 -0.1985 -0.0323 -0.4228
  105MOL   H16425332   0.780   2.406   4.516  0.6352  0.9789  1.8029
  105MOL   H16525333   0.687   2.270   4.556 -0.4339  0.4222  2.9433
  105MOL   H16625334   0.747   2.267   4.923 -0.3091  2.0745 -0.5231
  105MOL   H16725335   0.880   2.198   4.832 -0.6329 -0.8835  2.4923
  105MOL   H16825336   0.718   2.166   4.788  0.5971 -1.0346  0.8429
  105MOL   H16925337   0.986   2.548   4.888 -0.4769  0.1871  0.6788
  105MOL   C17025338   0.629   2.426   4.754 -0.4755  0.3912  0.2684
  105MOL   C17125339   0.553   2.526   4.664 -0.3433  0.3609  0.3184
  105MOL   C17225340   0.644   2.646   4.627  0.1379 -0.1494  0.3748
  105MOL   C17325341   0.497   2.468   4.530 -0.7360 -0.0244  0.6683
  105MOL   O17425342   0.524   2.518   4.424  0.2490  0.5395  0.2864
  105MOL   O17525343   0.418   2.358   4.546 -0.4714  0.3943 -0.3445
  105MOL   H17625344   0.560   2.343   4.768 -1.8088  1.5239  0.4522
  105MOL   H17725345   0.645   2.466   4.854  1.7619 -1.9392  0.9143
  105MOL   H17825346   0.729   2.610   4.569 -1.3130  0.3614 -2.1395
  105MOL   H17925347   0.668   2.693   4.722 -1.5215  0.8953  0.3012
  105MOL   H18025348   0.596   2.727   4.572  0.8806 -0.4724 -0.7698
  105MOL   H18125349   0.385   2.328   4.463  1.0141  0.8444 -1.1013
  105MOL   C18225350   0.432   2.576   4.761 -0.2306 -0.3996  0.0946
  105MOL   C18325351   0.343   2.708   4.734 -0.2403  0.2075  0.0966
  105MOL   C18425352   0.304   2.713   4.574 -0.3442  0.0902 -0.8521
  105MOL   C18525353   0.214   2.692   4.813 -0.3396 -0.3749  0.4820
  105MOL   O18625354   0.202   2.730   4.927  0.1727  0.9251  0.3504
  105MOL   O18725355   0.117   2.615   4.753  0.1863  0.0979 -0.0170
  105MOL   H18825356   0.371   2.489   4.786 -0.7230  0.2554  1.2102
  105MOL   H18925357   0.483   2.598   4.855  1.5248  1.7610 -1.3053
  105MOL   H19025358   0.267   2.621   4.529  0.9028  0.5311 -2.8349
  105MOL   H19125359   0.383   2.748   4.507  3.1199 -0.6767  2.5904
  105MOL   H19225360   0.228   2.789   4.557 -1.6299 -0.8959  0.3463
  105MOL   H19325361   0.054   2.600   4.822 -0.0510  0.5906 -0.1244
  105MOL   C19425362   0.418   2.842   4.772  0.6392  0.5977  0.3856
  105MOL   C19525363   0.372   2.991   4.757  0.0432 -0.5956 -0.4413
  105MOL   C19625364   0.375   3.033   4.610  0.1744  0.4132  0.5112
  105MOL   C19725365   0.226   3.015   4.801  0.2906 -0.4807  0.2295
  105MOL   O19825366   0.189   3.096   4.885  0.1659 -0.2827 -0.0220
  105MOL   O19925367   0.134   2.964   4.709  0.0786 -0.6490  0.7719
  105MOL   H20025368   0.445   2.834   4.878 -1.0783 -1.9635  0.6749
  105MOL   H20125369   0.510   2.835   4.715  1.5991 -0.7282  2.0413
  105MOL   H20225370   0.304   2.987   4.541 -1.4256 -1.8804  3.5971
  105MOL   H20325371   0.475   3.016   4.570  0.9685 -0.8876  3.0066
  105MOL   H20425372   0.355   3.140   4.606 -0.1508  0.3380  0.1191
  105MOL   H20525373   0.044   2.980   4.733 -0.3320 -3.2015  1.0408
  105MOL   C20625374   0.471   3.084   4.834  0.0470 -0.2738 -0.0720
  105MOL   C20725375   0.542   3.053   4.969  0.9670 -0.2430 -0.2280
  105MOL   C20825376   0.442   3.004   5.071 -0.4703  0.0638  0.1829
  105MOL   C20925377   0.655   2.943   4.964 -0.6719 -0.3571 -0.3527
  105MOL   O21025378   0.715   2.903   4.860 -0.6676 -0.1284  0.6947
  105MOL   O21125379   0.685   2.890   5.085 -0.4840 -0.2389 -0.0103
  105MOL   H21225380   0.556   3.110   4.771  0.3869 -3.2400 -0.8950
  105MOL   H21325381   0.413   3.176   4.840  0.5309  0.1305 -1.4845
  105MOL   H21425382   0.402   2.903   5.067 -0.6491 -0.0184  2.9096
  105MOL   H21525383   0.364   3.080   5.076 -0.7678 -0.3796  2.6255
  105MOL   H21625384   0.481   3.005   5.173  1.1372  1.9417 -0.4147
  105MOL   H21725385   0.744   2.818   5.071 -1.3077 -1.0191  0.4581
  105MOL   C21825386   0.604   3.189   5.029  0.4761 -0.0249  0.5031
  105MOL   C21925387   0.686   3.294   4.952  0.2303  0.0779  0.0113
  105MOL   C22025388   0.610   3.370   4.840 -0.3157  0.3496  0.4549
  105MOL   C22125389   0.726   3.393   5.071 -0.7886 -0.0857  0.3218
  105MOL   O22225390   0.844   3.407   5.116  0.1725 -0.0756  0.1082
  105MOL   O22325391   0.615   3.469   5.109 -0.0504 -0.6225 -0.1661
  105MOL   H22425392   0.521   3.226   5.090 -0.9798  2.1182 -2.6554
  105MOL   H22525393   0.663   3.152   5.113 -2.9232 -2.3088  1.9914
  105MOL   H22625394   0.627   3.338   4.737  1.1331  1.0284  0.4721
  105MOL   H22725395   0.637   3.475   4.850  2.4207 -0.1261 -1.4673
  105MOL   H22825396   0.501   3.360   4.841 -0.0659 -2.8107 -0.6954
  105MOL   H22925397   0.534   3.436   5.074  0.2246  0.0917 -1.4831
  105MOL   C23025398   0.824   3.238   4.889 -0.2368  0.6685  0.2065
  105MOL   C23125399   0.892   3.320   4.780  0.2049  0.0453 -0.2295
  105MOL   C23225400   1.028   3.364   4.830  0.5243  0.1271 -0.4775
  105MOL   C23325401   0.910   3.250   4.641  0.0656  0.0988  0.5922
  105MOL   O23425402   0.889   3.308   4.535  0.3711 -0.3551  0.1047
  105MOL   O23525403   0.955   3.125   4.648  0.0478  0.0180  0.3773
  105MOL   H23625404   0.891   3.196   4.964  0.4479  0.4526 -0.5239
  105MOL   H23725405   0.791   3.145   4.843  3.0369 -0.1971 -0.4996
  105MOL   H23825406   1.082   3.269   4.836  0.7541  0.2155 -1.0936
  105MOL   H23925407   1.034   3.416   4.925  2.3302  1.7621 -1.4436
  105MOL   H24025408   1.080   3.428   4.758  2.1343 -1.8153 -1.0938
  105MOL   H24125409   0.982   3.083   4.569 -1.9952 -1.7073  0.5424
  105MOL   H24225410   0.846   3.415   4.757  0.5554  0.4209  0.6017
  106MOL     C125411   1.083   3.089   6.340 -0.1720 -0.8259  0.0203
  106MOL     C225412   1.084   3.103   6.497  0.0019 -0.3586  0.0616
  106MOL     C325413   0.949   3.179   6.529  0.3558  0.2919  1.3525
  106MOL     C425414   1.101   2.971   6.563  0.6338  0.2658  0.2132
  106MOL     O525415   1.180   2.882   6.524 -0.1582 -0.0359 -0.0151
  106MOL     O625416   1.028   2.958   6.679  0.1946  0.0453  0.2445
  106MOL     H725417   1.185   3.061   6.313  0.2996  1.3585 -0.5242
  106MOL     H825418   1.056   3.184   6.296 -2.0470 -0.7555  1.2703
  106MOL     H925419   0.872   3.146   6.460 -0.0380  3.3846  0.2704
  106MOL    H1025420   0.946   3.287   6.517  2.2253  0.2047 -0.2762
  106MOL    H1125421   0.899   3.158   6.623 -0.3241 -0.7815  0.7713
  106MOL    H1225422   1.026   2.873   6.720 -2.0697 -0.2427 -0.3982
  106MOL    H1325423   1.014   3.016   6.299 -2.0244  0.9277 -0.0797
  106MOL    C1425424   1.211   3.197   6.527 -0.4817  0.8566  0.4618
  106MOL    C1525425   1.250   3.230   6.671  0.9544 -0.0891 -0.1566
  106MOL    C1625426   1.125   3.250   6.767  0.2451 -0.4099 -0.5112
  106MOL    C1725427   1.339   3.116   6.730  0.2761 -0.1425 -0.1696
  106MOL    O1825428   1.419   3.055   6.660  0.0569  0.3650 -0.7515
  106MOL    O1925429   1.346   3.118   6.872 -0.3939  0.1317 -0.3499
  106MOL    H2025430   1.299   3.163   6.473 -0.2092  3.1210 -0.5991
  106MOL    H2125431   1.190   3.294   6.480 -2.9570  0.0787 -0.1485
  106MOL    H2225432   1.047   3.324   6.745  0.5086 -0.0294 -0.1776
  106MOL    H2325433   1.162   3.274   6.867  2.2938 -0.3568 -1.2710
  106MOL    H2425434   1.062   3.161   6.776 -0.6930  0.0900 -1.9719
  106MOL    H2525435   1.412   3.053   6.886 -0.7711 -0.3496 -0.7811
  106MOL    C2625436   1.322   3.374   6.681 -0.5239 -0.2442  0.1328
  106MOL    C2725437   1.463   3.408   6.624 -0.4714 -0.0313 -0.5308
  106MOL    C2825438   1.577   3.367   6.714 -0.4067  0.1247  0.0674
  106MOL    C2925439   1.480   3.360   6.482 -0.5731  0.0109 -0.3282
  106MOL    O3025440   1.555   3.265   6.451 -0.1557 -0.7002 -0.4788
  106MOL    O3125441   1.388   3.409   6.394  0.1153 -0.5629  0.1209
  106MOL    H3225442   1.254   3.444   6.630  0.0212  1.1909  1.3545
  106MOL    H3325443   1.324   3.403   6.786 -2.6568 -0.9809  0.4032
  106MOL    H3425444   1.667   3.365   6.652  0.0329 -0.8184  0.7159
  106MOL    H3525445   1.564   3.263   6.746 -1.2214  0.3212  0.3838
  106MOL    H3625446   1.588   3.425   6.806  0.2415  0.5804 -0.2919
  106MOL    H3725447   1.399   3.363   6.313 -0.2000 -0.9392  0.2926
  106MOL    C3825448   1.472   3.568   6.619 -0.7495  0.2716 -0.1783
  106MOL    C3925449   1.605   3.654   6.606  0.1807 -0.1034  0.0056
  106MOL    C4025450   1.666   3.668   6.747  0.1885 -0.7378  0.5265
  106MOL    C4125451   1.705   3.587   6.515  0.7626  0.5251 -0.1107
  106MOL    O4225452   1.819   3.564   6.549 -0.1555 -0.7674 -0.3375
  106MOL    O4325453   1.662   3.566   6.391 -0.1693  0.2320 -0.1870
  106MOL    H4425454   1.409   3.604   6.538 -2.3662 -0.7209  0.6267
  106MOL    H4525455   1.421   3.610   6.707 -0.4140  0.2520  0.0267
  106MOL    H4625456   1.596   3.702   6.824 -2.9374 -1.4561 -1.9016
  106MOL    H4725457   1.743   3.746   6.745  1.5951 -2.1096 -2.4693
  106MOL    H4825458   1.717   3.585   6.797  2.4764  0.2914 -0.0091
  106MOL    H4925459   1.727   3.531   6.333 -0.9616  1.3337 -1.7985
  106MOL    C5025460   1.578   3.795   6.537 -0.1985 -0.1493 -0.2545
  106MOL    C5125461   1.484   3.910   6.586 -0.4838  0.3765 -0.5924
  106MOL    C5225462   1.342   3.872   6.542  0.3559  0.0346  0.5244
  106MOL    C5325463   1.512   3.925   6.733  0.4094 -0.4690 -0.5280
  106MOL    O5425464   1.620   3.957   6.784  0.0872  0.0278 -0.0161
  106MOL    O5525465   1.402   3.895   6.806  0.3592  0.2385  0.0623
  106MOL    H5625466   1.677   3.838   6.523 -1.4412  2.7060 -0.4937
  106MOL    H5725467   1.543   3.759   6.440 -2.5724  1.7021 -0.1055
  106MOL    H5825468   1.321   3.888   6.437 -2.2923  0.5774  1.0996
  106MOL    H5925469   1.274   3.939   6.596  0.6456  0.0120  0.9201
  106MOL    H6025470   1.302   3.778   6.578 -2.5803  0.9377 -0.2183
  106MOL    H6125471   1.430   3.892   6.897  0.6466 -2.1783 -0.0796
  106MOL    C6225472   1.533   4.037   6.505  0.3780 -0.6212 -0.6848
  106MOL    C6325473   1.481   4.189   6.527  0.7897  0.0666  0.5435
  106MOL    C6425474   1.326   4.193   6.577  0.4359 -0.5820 -0.1654
  106MOL    C6525475   1.574   4.253   6.635  0.1278  0.4919 -0.2009
  106MOL    O6625476   1.530   4.284   6.742  0.1021  0.0243  0.6438
  106MOL    O6725477   1.710   4.276   6.606  0.0326 -0.3744  0.2480
  106MOL    H6825478   1.640   4.050   6.515  0.2812  0.5189 -1.0447
  106MOL    H6925479   1.551   4.012   6.400  0.0228  1.7455 -1.3320
  106MOL    H7025480   1.260   4.134   6.514 -0.3414  0.3249 -0.2169
  106MOL    H7125481   1.280   4.291   6.589  0.0381 -0.7428 -0.3864
  106MOL    H7225482   1.315   4.156   6.679 -0.4408 -0.4016 -0.1891
  106MOL    H7325483   1.763   4.285   6.683  0.4337 -0.2205 -0.0448
  106MOL    C7425484   1.496   4.283   6.399  0.2940  0.1390  0.4102
  106MOL    C7525485   1.412   4.280   6.265 -0.1922  0.4144 -0.2984
  106MOL    C7625486   1.411   4.131   6.218  0.0208 -0.4654 -0.0355
  106MOL    C7725487   1.266   4.314   6.289  0.6512 -0.1661  0.0519
  106MOL    O7825488   1.177   4.231   6.283  0.0154 -0.4740  0.6510
  106MOL    O7925489   1.248   4.440   6.320 -0.9741 -0.1791  0.6062
  106MOL    H8025490   1.483   4.387   6.430  0.7457 -0.1320  1.5692
  106MOL    H8125491   1.603   4.285   6.379  0.0989  1.4706 -0.5397
  106MOL    H8225492   1.356   4.117   6.125  0.1797 -2.6419  0.1679
  106MOL    H8325493   1.358   4.063   6.284  0.8219 -2.0794 -1.0214
  106MOL    H8425494   1.512   4.093   6.204  0.6874  0.7977  1.2617
  106MOL    H8525495   1.158   4.449   6.347 -1.4463  0.3906 -1.1070
  106MOL    C8625496   1.475   4.389   6.168  0.3444 -0.1562 -0.5202
  106MOL    C8725497   1.432   4.430   6.022 -0.4561  0.4947  0.6660
  106MOL    C8825498   1.294   4.500   6.020 -0.7337 -0.2233 -0.0131
  106MOL    C8925499   1.550   4.530   5.971  0.4020 -0.1766  0.1815
  106MOL    O9025500   1.527   4.634   5.915  0.2204 -0.5385 -0.2983
  106MOL    O9125501   1.676   4.484   5.987  0.4278  0.2150  0.1024
  106MOL    H9225502   1.471   4.476   6.233  0.5205  0.2814 -1.0953
  106MOL    H9325503   1.573   4.340   6.172  0.5041  0.2877  1.7881
  106MOL    H9425504   1.296   4.575   6.098 -2.0379  0.6025 -0.7703
  106MOL    H9525505   1.212   4.430   6.035 -1.3097  0.9742  2.6040
  106MOL    H9625506   1.279   4.564   5.933 -0.7990 -1.1743 -0.7155
  106MOL    H9725507   1.731   4.539   5.933 -1.2049  2.1559  0.3760
  106MOL    C9825508   1.421   4.297   5.938 -0.1531 -0.2124 -0.2037
  106MOL    C9925509   1.441   4.282   5.778  0.4634 -0.1036  0.4033
  106MOL   C10025510   1.316   4.347   5.718  0.2937  0.3295 -0.2382
  106MOL   C10125511   1.566   4.348   5.715 -0.5723  0.3261 -0.0234
  106MOL   O10225512   1.555   4.432   5.626 -0.9161 -0.5164 -0.1617
  106MOL   O10325513   1.680   4.305   5.778 -0.0109  0.5340 -0.5154
  106MOL   H10425514   1.493   4.229   5.985  0.1228  1.0288  1.1848
  106MOL   H10525515   1.319   4.263   5.955 -0.0597  0.2887  1.4595
  106MOL   H10625516   1.322   4.331   5.611 -0.9627 -0.9069 -0.1390
  106MOL   H10725517   1.309   4.454   5.739 -0.2163  0.4680 -1.1016
  106MOL   H10825518   1.220   4.300   5.740  0.5779 -1.1060 -1.9453
  106MOL   H10925519   1.759   4.341   5.741 -0.7426  0.0548 -2.6676
  106MOL   C11025520   1.452   4.124   5.754 -0.3819  0.6166  0.0824
  106MOL   C11125521   1.493   4.041   5.620  0.9111 -0.8774  0.3963
  106MOL   C11225522   1.398   4.096   5.516 -0.6490 -0.5130  0.0233
  106MOL   C11325523   1.642   4.060   5.582 -0.6373  0.2274 -0.8141
  106MOL   O11425524   1.684   4.135   5.493  0.1249  0.0157 -0.4830
  106MOL   O11525525   1.735   4.011   5.673 -0.0439  0.2537  0.4900
  106MOL   H11625526   1.527   4.087   5.823 -0.0913  0.0666 -0.5202
  106MOL   H11725527   1.354   4.085   5.782 -0.0461 -0.3058 -0.0266
  106MOL   H11825528   1.294   4.098   5.549  0.0916  3.1284  2.3804
  106MOL   H11925529   1.404   4.039   5.423  1.4414  0.3506 -0.4018
  106MOL   H12025530   1.420   4.198   5.486 -1.6494  0.2080  1.6924
  106MOL   H12125531   1.825   4.036   5.661  0.4400 -1.8697 -0.5981
  106MOL   C12225532   1.461   3.893   5.660 -0.0978 -0.2700  0.4385
  106MOL   C12325533   1.404   3.780   5.561  0.1676  0.6424  0.4016
  106MOL   C12425534   1.246   3.803   5.536 -0.6709 -0.7513  0.0007
  106MOL   C12525535   1.483   3.782   5.422 -0.3321 -0.7237  0.3750
  106MOL   O12625536   1.443   3.816   5.312 -0.7071  0.5185  1.0836
  106MOL   O12725537   1.620   3.769   5.447 -0.0155  0.3227 -0.1091
  106MOL   H12825538   1.557   3.859   5.700  1.4055  1.6820 -1.3864
  106MOL   H12925539   1.400   3.888   5.750 -0.8957 -1.2239 -0.1510
  106MOL   H13025540   1.193   3.812   5.631  0.6726 -0.5987  0.7529
  106MOL   H13125541   1.193   3.724   5.483 -1.9271  0.0463  0.0293
  106MOL   H13225542   1.243   3.897   5.481  0.2438  0.1478  1.4491
  106MOL   H13325543   1.665   3.792   5.368 -0.5985 -0.6650 -0.7532
  106MOL   C13425544   1.428   3.631   5.611 -0.5292 -0.0799  0.2691
  106MOL   C13525545   1.440   3.586   5.761  0.3914  0.3294  0.7345
  106MOL   C13625546   1.451   3.429   5.758  0.1042 -0.4345 -0.0876
  106MOL   C13725547   1.582   3.622   5.815  0.0059  0.3465  0.1912
  106MOL   O13825548   1.602   3.681   5.923 -1.0840  0.2129  0.0420
  106MOL   O13925549   1.687   3.576   5.744  0.1884  0.2871  0.2923
  106MOL   H14025550   1.373   3.559   5.550  0.0388  1.4967 -2.1591
  106MOL   H14125551   1.522   3.595   5.570 -0.3998 -0.4690  0.8917
  106MOL   H14225552   1.359   3.394   5.712  0.0280  1.9458 -1.8719
  106MOL   H14325553   1.453   3.384   5.857 -1.8226 -1.0721 -0.3166
  106MOL   H14425554   1.537   3.394   5.701  0.9389  0.4629  0.6003
  106MOL   H14525555   1.682   3.531   5.661 -0.5087  0.6160  0.1549
  106MOL   C14625556   1.317   3.636   5.852 -0.6502  0.0706 -0.0498
  106MOL   C14725557   1.303   3.648   6.007 -0.6959 -0.1946  0.6759
  106MOL   C14825558   1.380   3.528   6.074 -0.4204  0.2668  0.5826
  106MOL   C14925559   1.339   3.793   6.060 -0.1588 -0.0691  0.8587
  106MOL   O15025560   1.314   3.892   5.987 -0.1364 -0.5395 -0.0953
  106MOL   O15125561   1.414   3.776   6.175 -0.7635 -0.4794  0.5038
  106MOL   H15225562   1.278   3.730   5.811 -1.8420 -0.2253  0.3824
  106MOL   H15325563   1.234   3.580   5.809 -0.7205  0.4525 -0.4190
  106MOL   H15425564   1.393   3.546   6.181  1.8660  0.3892  0.2933
  106MOL   H15525565   1.479   3.498   6.041 -0.4240  1.7641 -0.7865
  106MOL   H15625566   1.323   3.436   6.058  2.1720 -1.4098  0.6864
  106MOL   H15725567   1.448   3.860   6.199 -1.2363 -0.1299 -0.0500
  106MOL   C15825568   1.150   3.631   6.038 -0.6041  0.1573  0.1879
  106MOL   C15925569   1.082   3.657   6.178 -0.7384 -0.4047 -0.1566
  106MOL   C16025570   1.150   3.591   6.298 -0.3448 -0.4951  0.0840
  106MOL   C16125571   1.063   3.807   6.199 -0.1487  0.1696 -0.0620
  106MOL   O16225572   1.107   3.872   6.295  0.1474 -0.0444  0.3734
  106MOL   O16325573   1.001   3.862   6.097  0.2707  0.2504  0.1530
  106MOL   H16425574   1.088   3.679   5.962  0.2996 -0.8125 -1.2061
  106MOL   H16525575   1.137   3.526   6.009  0.6169 -0.1156  0.5924
  106MOL   H16625576   1.146   3.482   6.287 -0.3277 -0.5042  0.1679
  106MOL   H16725577   1.113   3.621   6.396  0.8965  1.1798  0.0675
  106MOL   H16825578   1.248   3.638   6.307 -1.1523  1.0360  1.1474
  106MOL   H16925579   0.990   3.955   6.103  1.5583  0.3534  1.1006
  106MOL   C17025580   0.942   3.584   6.160 -0.0489 -0.2999  0.4811
  106MOL   C17125581   0.815   3.570   6.260  0.7857 -0.2337  0.6212
  106MOL   C17225582   0.858   3.515   6.395 -0.7914 -0.6646 -0.1639
  106MOL   C17325583   0.759   3.716   6.272  0.0710  0.2584 -0.9431
  106MOL   O17425584   0.750   3.772   6.384 -0.1131 -0.5987  0.5913
  106MOL   O17525585   0.719   3.769   6.153 -0.0199 -0.1117 -0.4098
  106MOL   H17625586   0.896   3.620   6.068  0.4931 -0.9830 -0.0642
  106MOL   H17725587   0.968   3.480   6.142 -2.0749 -0.9541  1.1796
  106MOL   H17825588   0.911   3.422   6.371 -0.5556 -0.5849  0.0497
  106MOL   H17925589   0.778   3.498   6.466 -0.8502 -0.1142 -0.0981
  106MOL   H18025590   0.927   3.579   6.450 -1.9774 -1.2745  2.0802
  106MOL   H18125591   0.675   3.852   6.158 -1.8965 -1.0628 -0.7384
  106MOL   C18225592   0.713   3.469   6.180  0.3587  0.0150  0.2352
  106MOL   C18325593   0.584   3.402   6.249  0.2655 -0.3756 -0.2238
  106MOL   C18425594   0.621   3.303   6.358 -0.3616 -0.5716  0.3845
  106MOL   C18525595   0.502   3.518   6.319 -0.3244 -0.1757  0.5736
  106MOL   O18625596   0.504   3.546   6.438 -0.3038 -0.2359  0.4072
  106MOL   O18725597   0.440   3.598   6.225 -0.7195 -0.7747  0.1741
  106MOL   H18825598   0.680   3.509   6.084  0.6455  0.7081  0.4207
  106MOL   H18925599   0.779   3.388   6.149 -0.1126 -0.7652  1.2603
  106MOL   H19025600   0.534   3.247   6.391 -1.9510  0.9159 -1.1865
  106MOL   H19125601   0.651   3.341   6.456  0.2768  1.0561 -0.4279
  106MOL   H19225602   0.708   3.245   6.330  0.4893  0.3869  1.0047
  106MOL   H19325603   0.403   3.677   6.263  0.7369  1.4283 -2.8207
  106MOL   C19425604   0.484   3.330   6.146  0.0120 -0.5981 -0.8020
  106MOL   C19525605   0.525   3.210   6.051  1.1658  0.0645 -0.1044
  106MOL   C19625606   0.608   3.258   5.934  0.4300  1.0412 -0.7817
  106MOL   C19725607   0.597   3.100   6.126  0.8166 -0.2316  0.0991
  106MOL   O19825608   0.704   3.050   6.090 -0.7736 -0.4078  0.2939
  106MOL   O19925609   0.515   3.037   6.219 -0.2758  0.3919 -0.1049
  106MOL   H20025610   0.397   3.307   6.208  1.1249  0.5050  1.1969
  106MOL   H20125611   0.439   3.398   6.073 -2.8242  0.5164  1.8775
  106MOL   H20225612   0.638   3.170   5.878 -0.9941  1.1557 -1.7488
  106MOL   H20325613   0.704   3.302   5.962  0.9059  0.4754 -1.5262
  106MOL   H20425614   0.547   3.329   5.877  1.1279  2.5056  0.2508
  106MOL   H20525615   0.554   2.951   6.222  0.0488  0.5061 -0.8640
  106MOL   C20625616   0.383   3.161   5.994 -0.5274 -0.3417 -0.5218
  106MOL   C20725617   0.357   3.046   5.888  0.0292  0.7775 -0.2619
  106MOL   C20825618   0.448   2.931   5.909  0.2182 -0.1358  0.1310
  106MOL   C20925619   0.217   2.999   5.915  0.0444 -0.3758  0.0466
  106MOL   O21025620   0.185   2.884   5.939 -0.3781 -0.2338  0.6164
  106MOL   O21125621   0.125   3.102   5.911 -0.2537 -0.4171  0.5143
  106MOL   H21225622   0.326   3.141   6.085 -1.4315  2.7644 -0.3480
  106MOL   H21325623   0.323   3.250   5.974 -0.1230  0.0544  0.0381
  106MOL   H21425624   0.451   2.900   6.013 -1.0458 -1.0935 -0.1089
  106MOL   H21525625   0.548   2.969   5.890  0.0585 -0.7187 -1.9456
  106MOL   H21625626   0.425   2.841   5.852 -2.1331 -0.4129  1.4738
  106MOL   H21725627   0.037   3.073   5.931 -1.4655  2.4047 -0.3888
  106MOL   C21825628   0.373   3.096   5.738  0.7047  0.3394  0.6795
  106MOL   C21925629   0.373   3.002   5.614 -0.0290  0.0191  0.5287
  106MOL   C22025630   0.363   3.105   5.496  0.6343 -0.1973  0.0104
  106MOL   C22125631   0.514   2.932   5.615  0.2594  0.1750 -0.5549
  106MOL   O22225632   0.537   2.809   5.621  0.3160 -0.1294  0.0165
  106MOL   O22325633   0.612   3.025   5.601  0.3401 -0.3039 -0.0043
  106MOL   H22425634   0.294   3.171   5.728 -0.0046 -0.5111 -0.0880
  106MOL   H22525635   0.462   3.159   5.735  0.6457  0.3556 -1.3559
  106MOL   H22625636   0.257   3.129   5.496  1.2160  2.4313 -0.1735
  106MOL   H22725637   0.390   3.062   5.399  0.1301 -1.2138  0.3083
  106MOL   H22825638   0.407   3.203   5.510 -0.5866  0.8090 -2.8179
  106MOL   H22925639   0.697   2.983   5.600  0.0381 -0.9493 -2.4389
  106MOL   C23025640   0.252   2.900   5.604  1.5609 -0.8530 -0.1855
  106MOL   C23125641   0.242   2.821   5.474 -0.6892  0.1201 -0.3205
  106MOL   C23225642   0.189   2.674   5.501 -0.3627  0.1276 -0.3518
  106MOL   C23325643   0.167   2.886   5.351  0.1296 -0.5543  0.0766
  106MOL   O23425644   0.096   2.986   5.364  0.3869  0.0389 -0.6624
  106MOL   O23525645   0.195   2.832   5.226 -0.1735  0.2760  0.3650
  106MOL   H23625646   0.252   2.833   5.690 -0.1635  1.7242  1.9097
  106MOL   H23725647   0.155   2.949   5.608  0.5707 -2.7897  0.4241
  106MOL   H23825648   0.187   2.618   5.407  1.2808  0.5620 -0.6638
  106MOL   H23925649   0.087   2.676   5.541 -0.1670  3.0219  0.0860
  106MOL   H24025650   0.250   2.613   5.568 -1.6734 -0.7049  0.1093
  106MOL   H24125651   0.141   2.874   5.162  0.7015  0.1264 -0.4766
  106MOL   H24225652   0.346   2.810   5.442 -0.5353  0.1536  0.1672
  107MOL     C125653   6.263   2.627   6.889  0.6540 -0.1285 -0.2066
  107MOL     C225654   6.357   2.744   6.868  0.4392  0.9494  0.4271
  107MOL     C325655   6.495   2.692   6.832 -0.3891  0.1344  0.4238
  107MOL     C425656   6.317   2.817   6.740 -0.6699 -0.2122  0.1760
  107MOL     O525657   6.306   2.938   6.731 -0.5427 -0.3458 -0.6438
  107MOL     O625658   6.287   2.740   6.633  0.5435 -0.2372 -0.2472
  107MOL     H725659   6.293   2.569   6.976 -3.2395 -0.7788  0.7983
  107MOL     H825660   6.272   2.556   6.807  0.8349  1.5924 -1.7114
  107MOL     H925661   6.488   2.610   6.760 -0.2911  0.3889  0.1246
  107MOL    H1025662   6.535   2.645   6.922 -0.3241 -0.4770  0.0774
  107MOL    H1125663   6.559   2.774   6.800 -1.4120  0.6789 -0.2260
  107MOL    H1225664   6.252   2.799   6.568 -1.7538  0.8818  1.8744
  107MOL    H1325665   6.165   2.672   6.903  0.8800  0.4148 -0.3454
  107MOL    C1425666   6.382   2.834   6.992  0.1126 -0.2393  0.4948
  107MOL    C1525667   6.274   2.861   7.095 -0.5176 -0.1826 -0.5794
  107MOL    C1625668   6.154   2.945   7.035 -0.0736  0.3283 -0.3797
  107MOL    C1725669   6.231   2.730   7.166 -0.2409 -0.3982  0.5118
  107MOL    O1825670   6.118   2.706   7.178  0.1525 -0.4255 -0.4766
  107MOL    O1925671   6.337   2.648   7.214  0.3347 -0.4050 -0.0574
  107MOL    H2025672   6.460   2.784   7.049 -1.5287 -2.3628  0.9504
  107MOL    H2125673   6.428   2.928   6.961 -2.2022  0.8884  0.3955
  107MOL    H2225674   6.169   3.047   7.001 -0.3622  0.4523 -0.1451
  107MOL    H2325675   6.063   2.947   7.096  0.5683  0.7728  0.5803
  107MOL    H2425676   6.128   2.890   6.944 -1.9882  0.9533 -0.2369
  107MOL    H2525677   6.292   2.566   7.230 -2.1123  0.1254 -3.5670
  107MOL    C2625678   6.344   2.955   7.201 -0.2963  0.5891 -0.1691
  107MOL    C2725679   6.288   3.013   7.340  0.6071  0.0593 -0.4071
  107MOL    C2825680   6.166   3.113   7.314  0.1284  0.3740 -0.3516
  107MOL    C2925681   6.249   2.901   7.441 -0.3532 -0.8074  0.0778
  107MOL    O3025682   6.318   2.802   7.461  0.4058  0.0021  0.0216
  107MOL    O3125683   6.130   2.923   7.506 -0.1577 -0.0009 -0.2791
  107MOL    H3225684   6.442   2.915   7.230 -0.8685  1.1056  2.5973
  107MOL    H3325685   6.371   3.039   7.138  3.0018 -0.0789  0.2656
  107MOL    H3425686   6.172   3.176   7.226  1.5960 -1.2851 -1.4865
  107MOL    H3525687   6.157   3.183   7.397  1.0609 -0.3921  0.4106
  107MOL    H3625688   6.070   3.062   7.316  0.4404 -0.2384 -0.8650
  107MOL    H3725689   6.091   2.856   7.560 -0.6706  0.7381  0.2770
  107MOL    C3825690   6.406   3.103   7.393 -1.2882 -0.7225  0.3533
  107MOL    C3925691   6.431   3.168   7.536  0.6143 -0.2659 -0.6045
  107MOL    C4025692   6.303   3.226   7.606 -1.2944 -0.3862  0.9647
  107MOL    C4125693   6.481   3.054   7.630 -0.2427  0.3642  0.8169
  107MOL    O4225694   6.411   3.001   7.716 -0.5220 -0.2571  0.2274
  107MOL    O4325695   6.616   3.034   7.623  0.0676 -0.5429 -0.0935
  107MOL    H4425696   6.497   3.046   7.370 -0.4687  0.6425  0.1812
  107MOL    H4525697   6.415   3.182   7.318  1.4159  0.2736  1.6614
  107MOL    H4625698   6.334   3.252   7.707  2.2068  0.7852 -0.3539
  107MOL    H4725699   6.226   3.149   7.619 -2.3028  0.6329  1.0589
  107MOL    H4825700   6.257   3.307   7.550 -0.6882 -1.0099 -0.4483
  107MOL    H4925701   6.649   2.970   7.685 -0.0664  0.8167  1.4048
  107MOL    C5025702   6.543   3.285   7.521  0.7045 -0.0584 -0.5291
  107MOL    C5125703   6.503   3.430   7.479 -0.0319  0.1768  0.0751
  107MOL    C5225704   6.412   3.429   7.355 -1.1151 -0.2792 -0.7829
  107MOL    C5325705   6.444   3.512   7.597  0.0501 -0.0783 -0.3784
  107MOL    O5425706   6.361   3.599   7.582  0.3058  0.3470 -0.1868
  107MOL    O5525707   6.515   3.496   7.704  0.2706 -0.2244  0.5241
  107MOL    H5625708   6.608   3.282   7.609 -0.0128 -0.1522  0.0085
  107MOL    H5725709   6.613   3.247   7.447 -0.5295 -1.7289 -0.8785
  107MOL    H5825710   6.453   3.417   7.255  0.0395  1.0340 -0.4808
  107MOL    H5925711   6.361   3.525   7.356  0.3467  0.5177 -1.0085
  107MOL    H6025712   6.313   3.384   7.357 -0.6297 -1.4188 -2.0442
  107MOL    H6125713   6.484   3.562   7.764 -0.2400  0.2348 -0.2189
  107MOL    C6225714   6.638   3.492   7.431 -1.0171 -0.3613  0.2450
  107MOL    C6325715   6.669   3.646   7.389  0.3955 -0.1009 -0.0512
  107MOL    C6425716   6.566   3.690   7.276  0.1160 -0.0756 -0.0952
  107MOL    C6525717   6.657   3.746   7.513  0.2044 -0.2522 -0.0042
  107MOL    O6625718   6.743   3.764   7.599  0.0812  0.2655 -0.1288
  107MOL    O6725719   6.549   3.825   7.513  0.4416 -0.1620 -0.2041
  107MOL    H6825720   6.712   3.482   7.511 -0.9087 -0.9310  0.0776
  107MOL    H6925721   6.674   3.434   7.346 -1.7305 -0.9716  0.3485
  107MOL    H7025722   6.568   3.620   7.192 -1.8449  0.4380 -0.6027
  107MOL    H7125723   6.587   3.793   7.249 -0.5587 -0.1672 -1.0179
  107MOL    H7225724   6.466   3.714   7.314  0.5173 -0.2134  1.0638
  107MOL    H7325725   6.574   3.883   7.583 -0.9472  1.4104 -0.9863
  107MOL    C7425726   6.822   3.649   7.351 -0.1672 -1.1098  0.8373
  107MOL    C7525727   6.887   3.768   7.262  0.2353  0.1121 -0.3673
  107MOL    C7625728   6.854   3.896   7.331 -0.4229 -0.5445  1.1962
  107MOL    C7725729   7.043   3.751   7.272  0.1380  0.1554  0.4190
  107MOL    O7825730   7.097   3.650   7.301  0.0147 -0.1338 -0.1567
  107MOL    O7925731   7.107   3.867   7.241  0.5864  0.4149 -0.7669
  107MOL    H8025732   6.883   3.641   7.441  1.3763  0.2267 -0.0380
  107MOL    H8125733   6.848   3.561   7.292  1.3834 -0.4332  0.4868
  107MOL    H8225734   6.905   3.981   7.286  0.4057 -0.1772  2.7879
  107MOL    H8325735   6.888   3.890   7.434 -0.4887 -1.5298  1.1695
  107MOL    H8425736   6.747   3.919   7.326 -0.8581 -2.6424 -0.1181
  107MOL    H8525737   7.200   3.850   7.243  0.4520 -0.2907  1.2823
  107MOL    C8625738   6.835   3.760   7.111  0.6023  0.3052 -0.1879
  107MOL    C8725739   6.802   3.867   6.997  0.0114  0.6306 -0.1608
  107MOL    C8825740   6.770   3.778   6.877 -0.1299  0.3922 -0.5382
  107MOL    C8925741   6.680   3.949   7.046 -0.8073  0.8388 -0.0449
  107MOL    O9025742   6.565   3.932   7.011  0.3284 -0.0926  0.2555
  107MOL    O9125743   6.725   4.052   7.122 -0.0766 -0.7566 -0.1751
  107MOL    H9225744   6.906   3.689   7.068  1.8636  0.6357  1.3159
  107MOL    H9325745   6.753   3.690   7.124  1.4023 -0.3326  1.5099
  107MOL    H9425746   6.720   3.684   6.898 -0.4304  0.5721 -0.4491
  107MOL    H9525747   6.863   3.746   6.830  0.0102 -1.2040  0.7780
  107MOL    H9625748   6.717   3.825   6.795 -0.6361  1.1403  0.2051
  107MOL    H9725749   6.816   4.040   7.143  0.1960  0.8650 -0.3693
  107MOL    C9825750   6.922   3.958   6.960  0.2284  0.4943  0.0123
  107MOL    C9925751   6.930   4.063   6.845  0.4548  0.5115  0.1216
  107MOL   C10025752   6.970   3.986   6.714 -0.9952 -1.0369 -0.9082
  107MOL   C10125753   6.791   4.135   6.822 -0.4915  0.9870 -0.1637
  107MOL   O10225754   6.765   4.239   6.870  0.7745  0.7966 -0.5967
  107MOL   O10325755   6.708   4.070   6.734 -0.2397  0.4214  0.0766
  107MOL   H10425756   6.951   4.010   7.052  0.1157 -0.6100  0.6787
  107MOL   H10525757   7.007   3.892   6.945  0.1053 -0.5724  3.5975
  107MOL   H10625758   7.074   3.953   6.711 -0.7773 -0.8372  2.4112
  107MOL   H10725759   6.953   4.035   6.618 -3.5461 -0.1556 -0.0450
  107MOL   H10825760   6.903   3.901   6.708 -1.9761 -0.2596 -0.9445
  107MOL   H10925761   6.632   4.122   6.714  1.0320  3.3718  2.4331
  107MOL   C11025762   7.031   4.179   6.880 -0.6448 -0.2178 -0.5256
  107MOL   C11125763   7.107   4.280   6.782  0.3882 -0.6535  0.0475
  107MOL   C11225764   7.232   4.206   6.732 -0.4583 -0.1016 -0.2398
  107MOL   C11325765   7.024   4.309   6.650  1.0978 -0.7380 -0.2958
  107MOL   O11425766   7.060   4.280   6.536  0.5875  0.1771 -0.1555
  107MOL   O11525767   6.904   4.384   6.671  0.0870  0.3974  0.7323
  107MOL   H11625768   6.981   4.241   6.955  0.5200 -0.6886  0.6721
  107MOL   H11725769   7.118   4.143   6.935  0.9593  1.3015 -2.0062
  107MOL   H11825770   7.202   4.125   6.666  3.0946  0.0469 -2.2027
  107MOL   H11925771   7.295   4.171   6.813 -1.2813  0.2680  0.5691
  107MOL   H12025772   7.299   4.265   6.670 -0.2457  0.3989  0.4544
  107MOL   H12125773   6.882   4.424   6.753  0.1566  0.8615  0.5292
  107MOL   C12225774   7.141   4.411   6.863  0.0658 -0.1368 -0.4515
  107MOL   C12325775   7.262   4.513   6.853 -0.0214 -0.5863  0.5760
  107MOL   C12425776   7.379   4.422   6.897  0.1526  0.9928 -0.3856
  107MOL   C12525777   7.287   4.564   6.706  0.4693 -0.2449 -0.1994
  107MOL   O12625778   7.388   4.624   6.670 -0.6946  0.3890  0.7318
  107MOL   O12725779   7.181   4.550   6.623 -0.0011 -0.2274  0.6171
  107MOL   H12825780   7.050   4.469   6.849 -0.6847 -1.0934  0.3260
  107MOL   H12925781   7.142   4.389   6.970 -0.7202 -1.3036 -0.6705
  107MOL   H13025782   7.348   4.355   6.977 -1.9842  2.0375 -0.2902
  107MOL   H13125783   7.462   4.478   6.938  1.0195 -1.8090  1.8107
  107MOL   H13225784   7.425   4.368   6.815 -0.8067  0.7662 -0.7888
  107MOL   H13325785   7.203   4.591   6.540 -1.3738 -0.2059  0.2568
  107MOL   C13425786   7.262   4.628   6.954  0.0458  0.1929  0.3944
  107MOL   C13525787   7.157   4.745   6.958 -0.0276 -0.8126 -0.2494
  107MOL   C13625788   7.100   4.782   6.822 -0.0220  0.1080 -0.0759
  107MOL   C13725789   7.036   4.694   7.038 -0.3753 -0.0910  0.1931
  107MOL   O13825790   6.929   4.668   6.991  0.0556  0.4153  0.0619
  107MOL   O13925791   7.076   4.671   7.164  0.3337  0.3443 -0.0688
  107MOL   H14025792   7.276   4.602   7.058 -0.8992 -0.0565  0.4629
  107MOL   H14125793   7.356   4.680   6.933 -0.2956  1.1157  1.1214
  107MOL   H14225794   7.174   4.824   6.754  0.1569 -0.8531 -0.4862
  107MOL   H14325795   7.023   4.859   6.829  2.8585  2.9772  1.1269
  107MOL   H14425796   7.071   4.697   6.758 -0.8916  1.0455 -0.9562
  107MOL   H14525797   7.002   4.626   7.203 -0.6895  0.0815 -2.2176
  107MOL   C14625798   7.193   4.885   7.026 -0.0168  0.3173  0.4062
  107MOL   C14725799   7.337   4.912   7.061 -0.6479  0.0650  0.0237
  107MOL   C14825800   7.394   4.819   7.176  0.6448  0.0252  0.1682
  107MOL   C14925801   7.433   4.906   6.935  0.1626  0.8686  0.2105
  107MOL   O15025802   7.399   4.894   6.820  0.0291  0.1573  0.2462
  107MOL   O15125803   7.564   4.920   6.976  0.2491 -0.7566  0.1544
  107MOL   H15225804   7.157   4.966   6.963  4.1782  1.5926 -0.4691
  107MOL   H15325805   7.124   4.902   7.109 -1.2144  0.0663 -0.5305
  107MOL   H15425806   7.459   4.743   7.133  3.3219  1.2102  2.0036
  107MOL   H15525807   7.314   4.759   7.219 -0.0351  1.4720  0.9615
  107MOL   H15625808   7.430   4.884   7.255  1.7100 -1.3363  0.8034
  107MOL   H15725809   7.629   4.904   6.910  0.6020 -0.8684  0.5268
  107MOL   C15825810   7.335   5.063   7.111 -0.1534 -0.4996 -0.0539
  107MOL   C15925811   7.451   5.161   7.151 -1.1009  0.0615  0.4015
  107MOL   C16025812   7.540   5.093   7.262  0.9577  0.0083  0.4443
  107MOL   C16125813   7.535   5.200   7.023  0.1428  0.6848 -0.8622
  107MOL   O16225814   7.657   5.186   7.020 -0.1416  0.4152  0.1869
  107MOL   O16325815   7.461   5.230   6.910  0.6506  0.4767 -0.1650
  107MOL   H16425816   7.285   5.122   7.035 -0.1042 -1.9243 -1.2119
  107MOL   H16525817   7.270   5.058   7.198  0.1017  0.3742  0.1906
  107MOL   H16625818   7.622   5.155   7.296  0.9240 -1.5325  3.5380
  107MOL   H16725819   7.584   5.000   7.226  1.6310  1.4959 -2.7238
  107MOL   H16825820   7.483   5.071   7.353 -0.0141  2.1869  0.3910
  107MOL   H16925821   7.514   5.246   6.833 -0.7391 -1.1267 -1.5122
  107MOL   C17025822   7.372   5.283   7.201  0.0628  0.2294  0.3868
  107MOL   C17125823   7.437   5.426   7.231  0.3657 -0.2247  0.1387
  107MOL   C17225824   7.319   5.495   7.307 -0.4245  0.3557  0.1578
  107MOL   C17325825   7.562   5.425   7.324  0.8746 -0.7473 -0.4092
  107MOL   O17425826   7.671   5.472   7.285  0.1285 -0.3606 -0.3023
  107MOL   O17525827   7.537   5.374   7.445  0.1391  0.0385  1.0666
  107MOL   H17625828   7.286   5.308   7.139 -1.2492 -1.1718  1.5830
  107MOL   H17725829   7.324   5.246   7.292 -1.2986  1.3378  0.1485
  107MOL   H17825830   7.237   5.525   7.243  0.6500  2.5961 -0.1979
  107MOL   H17925831   7.357   5.582   7.359  1.3520  1.3930 -2.7500
  107MOL   H18025832   7.276   5.431   7.384  0.2487  2.2703  2.1763
  107MOL   H18125833   7.613   5.365   7.500  0.2317 -2.1377  0.6160
  107MOL   C18225834   7.458   5.498   7.097  0.1070 -1.1672  0.7186
  107MOL   C18325835   7.469   5.655   7.069 -0.0208  0.4676  0.5350
  107MOL   C18425836   7.569   5.724   7.162  0.6086  0.7945 -0.2374
  107MOL   C18525837   7.520   5.664   6.923 -0.5384 -0.0604 -0.5365
  107MOL   O18625838   7.632   5.705   6.895  0.0547  0.4439 -0.0073
  107MOL   O18725839   7.440   5.615   6.830  0.8027 -0.1379  0.0283
  107MOL   H18825840   7.544   5.449   7.051 -0.1177 -0.3372 -0.6143
  107MOL   H18925841   7.380   5.464   7.030  1.7817 -2.6174 -0.5401
  107MOL   H19025842   7.518   5.722   7.258 -2.5696  2.0571 -1.8495
  107MOL   H19125843   7.598   5.824   7.130  0.7285 -0.0694 -2.9828
  107MOL   H19225844   7.667   5.675   7.170  0.5581  0.6853 -0.2735
  107MOL   H19325845   7.487   5.619   6.748  0.0246  4.0303 -0.3040
  107MOL   C19425846   7.335   5.732   7.094  0.1177 -0.0082 -0.0826
  107MOL   C19525847   7.304   5.881   7.037 -0.0096 -0.0554  0.9818
  107MOL   C19625848   7.415   5.976   7.059 -0.2952  0.0015 -0.2117
  107MOL   C19725849   7.285   5.880   6.884 -0.9192  0.4070 -0.4792
  107MOL   O19825850   7.348   5.949   6.804 -0.0888 -0.2498 -0.1666
  107MOL   O19925851   7.178   5.799   6.852  0.4896  0.0029  0.6849
  107MOL   H20025852   7.266   5.663   7.045  0.1649  0.6242 -1.0642
  107MOL   H20125853   7.313   5.745   7.200 -1.7487 -0.2407 -0.4180
  107MOL   H20225854   7.397   6.079   7.031  0.6897 -0.1029 -1.3170
  107MOL   H20325855   7.504   5.950   7.001  0.1267 -1.9377  1.2173
  107MOL   H20425856   7.452   5.968   7.161 -0.4308 -0.9022 -0.2244
  107MOL   H20525857   7.165   5.829   6.763 -1.6446 -0.6945  0.7288
  107MOL   C20625858   7.175   5.927   7.118 -0.0602 -0.1638  0.5934
  107MOL   C20725859   7.080   6.050   7.084 -0.0188  0.3417 -0.3118
  107MOL   C20825860   7.004   6.020   6.954  0.2472  0.5487  1.1132
  107MOL   C20925861   6.974   6.061   7.200 -0.4762  0.0316  0.0799
  107MOL   O21025862   6.850   6.065   7.187 -0.5947  0.1211 -0.2218
  107MOL   O21125863   7.038   6.062   7.321 -0.2914  0.1001 -0.2136
  107MOL   H21225864   7.106   5.844   7.111 -2.5428  1.8759 -0.1211
  107MOL   H21325865   7.205   5.927   7.223  0.6972 -1.1455  0.3809
  107MOL   H21425866   6.984   5.914   6.949  0.2790  0.5876 -0.0651
  107MOL   H21525867   7.060   6.053   6.866  1.0068  0.4686  1.5575
  107MOL   H21625868   6.903   6.056   6.935  1.1834  1.6887 -2.1354
  107MOL   H21725869   6.974   6.042   7.388 -0.9819 -0.2841 -0.9685
  107MOL   C21825870   7.162   6.183   7.074  0.1338  0.2731  0.7369
  107MOL   C21925871   7.106   6.326   7.074 -0.8367 -0.2352  0.2939
  107MOL   C22025872   6.964   6.325   7.008 -0.4646 -0.6458  0.1497
  107MOL   C22125873   7.100   6.380   7.220 -0.3395 -0.2285 -0.0499
  107MOL   O22225874   6.993   6.416   7.269 -0.1712 -0.2974  0.0335
  107MOL   O22325875   7.218   6.384   7.294 -0.6605 -0.0080 -0.5942
  107MOL   H22425876   7.237   6.173   7.153  0.9636  1.5008  0.1143
  107MOL   H22525877   7.227   6.158   6.991  0.4595 -1.8282  1.5958
  107MOL   H22625878   6.936   6.428   6.985  1.3335  0.0288  0.8833
  107MOL   H22725879   6.883   6.289   7.072 -0.0761 -1.0604  0.4117
  107MOL   H22825880   6.961   6.268   6.916  1.0506 -0.7703  0.1699
  107MOL   H22925881   7.188   6.420   7.376  1.4408  0.7544 -0.1077
  107MOL   C23025882   7.197   6.413   6.986  0.3583  0.8977 -0.2628
  107MOL   C23125883   7.351   6.416   7.009 -0.2410 -1.5358 -0.0879
  107MOL   C23225884   7.430   6.375   6.884 -0.4323  0.2783 -0.1073
  107MOL   C23325885   7.404   6.554   7.050  0.5092 -0.8378 -0.0040
  107MOL   O23425886   7.460   6.583   7.153  0.4341  0.2205 -0.0461
  107MOL   O23525887   7.375   6.649   6.959 -0.2506 -0.2832  0.4683
  107MOL   H23625888   7.177   6.389   6.882  1.0689  0.7891 -0.3806
  107MOL   H23725889   7.164   6.516   7.002  0.4975  1.1064 -1.2884
  107MOL   H23825890   7.533   6.372   6.917  0.0521  0.3614 -1.5952
  107MOL   H23925891   7.430   6.441   6.798  0.3926 -1.6184 -1.5973
  107MOL   H24025892   7.405   6.274   6.852 -0.7363 -0.0573  1.1507
  107MOL   H24125893   7.409   6.733   6.988  2.1414 -0.8862 -0.4247
  107MOL   H24225894   7.372   6.348   7.091 -0.8233 -2.5498 -0.7588
  108MOL     C125895   5.647   1.633   7.655 -0.4162  0.0348 -0.3561
  108MOL     C225896   5.524   1.725   7.620  0.1297  0.3891 -0.2335
  108MOL     C325897   5.573   1.859   7.576 -0.8728 -0.1273  0.6698
  108MOL     C425898   5.456   1.651   7.500 -0.9092  0.0547 -0.9544
  108MOL     O525899   5.470   1.530   7.482 -0.3569 -0.5757 -0.2882
  108MOL     O625900   5.376   1.728   7.427  0.2806  0.3603 -0.4000
  108MOL     H725901   5.723   1.684   7.713  0.1653 -1.3618  0.1124
  108MOL     H825902   5.695   1.595   7.565  0.3949 -0.0116  0.0989
  108MOL     H925903   5.644   1.910   7.642  0.9729 -0.9956 -0.6142
  108MOL    H1025904   5.492   1.932   7.567 -1.6231 -0.7149  2.4602
  108MOL    H1125905   5.621   1.851   7.479  1.3624  2.7406  1.4489
  108MOL    H1225906   5.338   1.666   7.366  0.2233 -0.2989  0.2939
  108MOL    H1325907   5.622   1.545   7.714  0.0102  0.6929  0.8155
  108MOL    C1425908   5.408   1.737   7.723  0.6201  0.1028  0.4228
  108MOL    C1525909   5.425   1.809   0.108  0.0222  0.1068  0.2242
  108MOL    C1625910   5.292   1.772   0.177  0.1499 -0.4185 -0.1674
  108MOL    C1725911   5.549   1.744   0.180 -0.0700 -0.0931 -0.4813
  108MOL    O1825912   5.669   1.786   0.175 -0.0900 -0.4870  0.0254
  108MOL    O1925913   5.508   1.624   0.231 -0.1208  0.2956 -0.2997
  108MOL    H2025914   5.328   1.794   7.677  0.8463 -0.5157 -0.7693
  108MOL    H2125915   5.371   1.635   7.735 -0.6962  0.6931  1.5772
  108MOL    H2225916   5.246   1.685   0.131  0.4359 -1.1058  0.8480
  108MOL    H2325917   5.223   1.857   0.174  2.0147  1.0926 -1.2825
  108MOL    H2425918   5.294   1.749   0.284 -0.4806 -2.0490 -0.4979
  108MOL    H2525919   5.583   1.579   0.267 -1.4815 -1.4352  0.4469
  108MOL    C2625920   5.431   1.968   0.096 -0.3882 -0.7858 -0.0645
  108MOL    C2725921   5.458   2.069   0.218 -0.0333  0.7410 -0.9236
  108MOL    C2825922   5.476   2.214   0.160 -0.1341 -0.2703  0.2076
  108MOL    C2925923   5.334   2.059   0.313 -0.3265 -0.1906  0.1566
  108MOL    O3025924   5.329   1.993   0.417 -0.3704 -0.8802  0.6885
  108MOL    O3125925   5.229   2.136   0.266  0.2580  0.3911  0.4347
  108MOL    H3225926   5.517   1.993   0.034 -0.3917  2.0349  0.9754
  108MOL    H3325927   5.347   2.003   0.036  0.2336 -2.8053 -2.1641
  108MOL    H3425928   5.387   2.240   0.103  0.9692 -2.4311 -2.6210
  108MOL    H3525929   5.557   2.225   0.088  0.0328 -1.1172  0.2647
  108MOL    H3625930   5.485   2.294   0.234 -0.1362  0.3277 -0.4270
  108MOL    H3725931   5.154   2.124   0.322  1.3728 -3.0226  1.3136
  108MOL    C3825932   5.586   2.037   0.303 -0.6626  0.1795  1.0636
  108MOL    C3925933   5.678   2.129   0.389 -0.1269 -0.5917  0.5387
  108MOL    C4025934   5.585   2.224   0.473  0.1913 -0.3069  0.2758
  108MOL    C4125935   5.747   2.044   0.498 -0.9203  0.5360 -0.3375
  108MOL    O4225936   5.763   2.077   0.611 -1.0491 -0.3429  0.2830
  108MOL    O4325937   5.782   1.918   0.459  0.3152 -0.6353  0.4357
  108MOL    H4425938   5.561   1.943   0.352 -2.4710 -0.4827 -1.0429
  108MOL    H4525939   5.658   2.018   0.224  0.9736 -2.5050  3.1040
  108MOL    H4625940   5.550   2.308   0.414 -0.5078  0.5774  1.9167
  108MOL    H4725941   5.641   2.272   0.554 -0.4570  0.2684  0.3751
  108MOL    H4825942   5.494   2.175   0.509 -1.2264  1.5923 -0.6705
  108MOL    H4925943   5.770   1.891   0.369  0.2168  0.7866  0.0095
  108MOL    C5025944   5.788   2.202   0.295  0.5320  0.0991  0.0134
  108MOL    C5125945   5.943   2.184   0.293 -0.6639 -0.2237  0.2810
  108MOL    C5225946   5.995   2.238   0.434  0.7159 -0.6860  0.6851
  108MOL    C5325947   5.989   2.032   0.276  0.1231  0.3489  0.1112
  108MOL    O5425948   5.923   1.941   0.225  0.4511 -0.0050 -0.1141
  108MOL    O5525949   6.118   2.017   0.305 -0.3056 -0.2056  0.7052
  108MOL    H5625950   5.763   2.187   0.190  0.9601 -0.6111  0.0112
  108MOL    H5725951   5.763   2.308   0.307 -0.6514 -0.1021 -0.5589
  108MOL    H5825952   6.098   2.273   0.420  0.0253  0.5978 -1.5086
  108MOL    H5925953   5.988   2.174   0.521 -1.1939 -1.3718  0.0540
  108MOL    H6025954   5.937   2.327   0.459  0.8358 -0.7564  1.2123
  108MOL    H6125955   6.160   1.932   0.305 -0.2120 -0.1595  0.4172
  108MOL    C6225956   6.020   2.254   0.178 -0.3201 -0.3561 -0.1028
  108MOL    C6325957   6.024   2.224   0.023 -0.2834  0.3775 -0.4110
  108MOL    C6425958   6.117   2.104   7.757 -0.3963  0.4802 -0.1203
  108MOL    C6525959   5.883   2.201   7.741 -0.0164 -0.4525 -0.0549
  108MOL    O6625960   5.818   2.297   7.713  0.1137 -0.2214  0.4855
  108MOL    O6725961   5.844   2.072   7.719 -0.8922  0.5390  0.0875
  108MOL    H6825962   5.980   2.353   0.200  1.2115  0.0341  1.0145
  108MOL    H6925963   6.124   2.263   0.210 -0.1597  0.6084 -0.8610
  108MOL    H7025964   6.079   2.011   0.033  1.7082 -1.2921 -1.9762
  108MOL    H7125965   6.220   2.122   0.023  0.4004  1.5824 -3.0525
  108MOL    H7225966   6.120   2.077   7.652 -1.9803 -0.0011 -0.0575
  108MOL    H7325967   5.890   2.001   7.761 -1.7536  0.4055  0.8054
  108MOL    C7425968   6.087   2.349   7.718  0.2006 -0.4707  0.4359
  108MOL    C7525969   6.132   2.369   7.562  0.3002  0.1549 -0.4037
  108MOL    C7625970   6.147   2.525   7.537 -0.0954  0.4248  0.1148
  108MOL    C7725971   6.274   2.310   7.548 -0.1761 -0.1706  0.2946
  108MOL    O7825972   6.291   2.197   7.496 -0.1327 -0.1142 -0.8349
  108MOL    O7925973   6.363   2.378   7.613 -0.2969 -0.1994 -0.0055
  108MOL    H8025974   6.015   2.430   7.731 -0.0788 -0.5425 -0.5917
  108MOL    H8125975   6.175   2.376   0.009  1.5530  2.1224 -2.6151
  108MOL    H8225976   6.177   2.576   7.629  1.3138 -3.2443  1.8368
  108MOL    H8325977   6.053   2.578   7.524  1.1385  2.5435 -0.3035
  108MOL    H8425978   6.215   2.542   7.454  0.2880  0.1602  0.3714
  108MOL    H8525979   6.435   2.320   7.632  0.6744  0.7831 -0.5880
  108MOL    C8625980   6.035   2.296   7.468  0.3497  0.0454 -0.1137
  108MOL    C8725981   6.015   2.315   7.308 -0.2894  0.0193  0.2289
  108MOL    C8825982   5.957   2.452   7.269  0.1976 -0.6704 -0.1375
  108MOL    C8925983   6.155   2.313   7.243 -1.3025 -0.8955 -0.4584
  108MOL    O9025984   6.223   2.412   7.213 -0.0527  0.3417 -0.0278
  108MOL    O9125985   6.208   2.192   7.221  0.5756  0.2022 -0.4485
  108MOL    H9225986   6.025   2.190   7.495  2.1015 -0.6066 -1.9402
  108MOL    H9325987   5.938   2.333   7.500 -1.6089 -3.0538 -2.1467
  108MOL    H9425988   5.852   2.462   7.298  0.0494  0.5919 -1.0243
  108MOL    H9525989   5.963   2.469   7.161  0.5816 -0.9343 -0.1596
  108MOL    H9625990   5.999   2.541   7.315 -0.3151  0.5543 -1.9783
  108MOL    H9725991   6.293   2.180   7.181  2.0338 -0.2782  2.6816
  108MOL    C9825992   5.931   2.193   7.238  0.0545  0.1584  0.2913
  108MOL    C9925993   5.772   2.192   7.227 -0.0327 -0.2484  0.3811
  108MOL   C10025994   5.714   2.237   7.368 -0.8355 -0.2647  0.1873
  108MOL   C10125995   5.703   2.289   7.126 -0.0853  0.2797 -0.1190
  108MOL   O10225996   5.581   2.311   7.122 -0.4639 -0.0337 -0.3839
  108MOL   O10325997   5.783   2.355   7.041  0.7134 -0.0817 -0.0032
  108MOL   H10425998   5.971   2.185   7.137 -1.2462 -0.9349 -0.1531
  108MOL   H10525999   5.950   2.103   7.296 -1.1637 -2.3122 -2.9840
  108MOL   H10626000   5.759   2.183   7.451  0.4079 -0.5042 -0.6399
  108MOL   H10726001   5.605   2.226   7.366 -0.8481  0.0411 -1.8686
  108MOL   H10826002   5.735   2.339   7.401  0.1702 -0.2393 -0.5071
  108MOL   H10926003   5.735   2.423   6.997 -0.2044 -1.1807 -0.7203
  108MOL   C11026004   5.712   2.050   7.202  0.2614 -0.3713 -0.3035
  108MOL   C11126005   5.747   1.965   7.077 -0.0051 -0.6264  0.0810
  108MOL   C11226006   5.738   2.039   6.941 -0.5722 -0.0953 -0.4184
  108MOL   C11326007   5.896   1.916   7.099 -0.8084  0.6017  0.3484
  108MOL   O11426008   5.985   1.933   7.017  0.1152  0.1094 -0.1080
  108MOL   O11526009   5.919   1.854   7.217 -0.0085 -0.2904 -0.1664
  108MOL   H11626010   5.731   1.991   7.292  0.2914  1.6354  1.0279
  108MOL   H11726011   5.606   2.062   7.224  0.3526 -0.6223  0.2880
  108MOL   H11826012   5.774   1.975   6.861  0.4443 -1.6230  1.2525
  108MOL   H11926013   5.816   2.115   6.940  0.3157 -0.9684  1.4143
  108MOL   H12026014   5.639   2.083   6.927 -1.5925 -2.2919 -0.3097
  108MOL   H12126015   6.011   1.838   7.227  0.0652  0.7413  0.8421
  108MOL   C12226016   5.663   1.830   7.082  0.9012 -0.6995 -0.3438
  108MOL   C12326017   5.517   1.825   7.030 -0.2161  1.1206 -0.1031
  108MOL   C12426018   5.423   1.926   7.097  0.4750 -0.0989  0.3262
  108MOL   C12526019   5.510   1.841   6.873 -0.6994  0.2000 -0.3527
  108MOL   O12626020   5.428   1.910   6.810 -0.5633 -0.6995  0.2815
  108MOL   O12726021   5.605   1.769   6.810 -0.2615  0.3061 -0.1815
  108MOL   H12826022   5.723   1.752   7.033  1.3401 -0.6314  0.0793
  108MOL   H12926023   5.652   1.792   7.183 -4.0286 -2.0023 -1.2394
  108MOL   H13026024   5.454   2.025   7.065 -1.7352  0.9605  1.3753
  108MOL   H13126025   5.415   1.908   7.204  0.7473 -0.1735  0.3360
  108MOL   H13226026   5.322   1.927   7.056 -0.0878 -1.7694  1.5852
  108MOL   H13326027   5.592   1.783   6.718 -0.9747 -2.6157 -0.5452
  108MOL   C13426028   5.471   1.674   7.068  0.2408 -0.2567  0.3060
  108MOL   C13526029   5.337   1.603   7.029  0.6177 -0.8684  0.1190
  108MOL   C13626030   5.327   1.484   7.119 -0.2819  0.1937 -0.2285
  108MOL   C13726031   5.204   1.683   7.062 -0.0577 -0.1099  0.2322
  108MOL   O13826032   5.099   1.692   6.994 -0.3281 -0.0333  0.1331
  108MOL   O13926033   5.216   1.738   7.188  0.1822  0.8933 -0.7286
  108MOL   H14026034   5.547   1.599   7.045  0.2023  0.3101 -1.7922
  108MOL   H14126035   5.480   1.667   7.176 -0.7916  2.0171  0.5601
  108MOL   H14226036   5.234   1.432   7.100  0.9488 -1.5668 -1.5499
  108MOL   H14326037   5.324   1.502   7.227 -2.2426  0.0302 -0.2472
  108MOL   H14426038   5.398   1.401   7.116 -0.3015  0.1478  0.4411
  108MOL   H14526039   5.139   1.792   7.191  0.3485  1.0954 -0.1621
  108MOL   C14626040   5.342   1.559   6.874  0.4514 -0.1896 -0.1368
  108MOL   C14726041   5.264   1.438   6.809 -0.1680 -0.7425 -0.1333
  108MOL   C14826042   5.286   1.300   6.872 -0.3459  0.2584  1.0645
  108MOL   C14926043   5.116   1.471   6.802 -0.0761 -0.2251 -0.0705
  108MOL   O15026044   5.025   1.395   6.843 -0.0010  0.3558  0.2290
  108MOL   O15126045   5.094   1.587   6.732 -0.0499 -0.0753 -0.6925
  108MOL   H15226046   5.314   1.653   6.828 -0.7108 -0.1520  0.6214
  108MOL   H15326047   5.448   1.543   6.851  1.1139  0.5938  2.1621
  108MOL   H15426048   5.252   1.210   6.820  1.4683  0.5092 -0.6100
  108MOL   H15526049   5.225   1.290   6.962  0.6518  0.3365  1.7470
  108MOL   H15626050   5.390   1.282   6.896 -0.4752  0.1655  1.5545
  108MOL   H15726051   5.004   1.605   6.710 -0.2181  1.1914  0.9484
  108MOL   C15826052   5.354   1.428   6.673 -0.5526  0.1976 -0.2673
  108MOL   C15926053   5.299   1.347   6.544  0.0390 -0.1128  0.2059
  108MOL   C16026054   5.146   1.314   6.548 -0.3325  0.0106  0.3315
  108MOL   C16126055   5.314   1.440   6.415  0.7513 -0.0009  0.5246
  108MOL   O16226056   5.374   1.402   6.313  0.1107  0.0661 -0.3707
  108MOL   O16326057   5.241   1.553   6.418 -0.5967 -0.8639  0.5141
  108MOL   H16426058   5.373   1.530   6.641  0.0521 -0.3715 -1.8110
  108MOL   H16526059   5.446   1.380   6.706 -0.5539 -0.2609 -0.9142
  108MOL   H16626060   5.123   1.250   6.634  0.5564  0.5678  0.9959
  108MOL   H16726061   5.114   1.260   6.459  1.6973  0.6924 -0.8222
  108MOL   H16826062   5.084   1.404   6.545  0.9409  0.8693 -0.6312
  108MOL   H16926063   5.243   1.596   6.503  2.6711 -0.0056  0.0976
  108MOL   C17026064   5.369   1.209   6.529  0.5797  0.1610  0.2580
  108MOL   C17126065   5.528   1.187   6.529  0.8372 -0.0864 -0.1974
  108MOL   C17226066   5.554   1.072   6.433  0.1546 -0.1598 -0.0798
  108MOL   C17326067   5.616   1.313   6.489 -0.3782  0.5726 -0.4887
  108MOL   O17426068   5.659   1.401   6.565 -0.0918 -0.1215  0.5465
  108MOL   O17526069   5.645   1.316   6.357 -0.4263  0.2284 -0.3569
  108MOL   H17626070   5.322   1.138   6.596 -1.0788  0.7393 -0.2703
  108MOL   H17726071   5.335   1.171   6.433  0.6177  1.9321 -0.4860
  108MOL   H17826072   5.529   1.105   6.332 -1.3869  2.4389  1.0900
  108MOL   H17926073   5.501   0.980   6.455  0.9123 -0.5613  0.0860
  108MOL   H18026074   5.655   1.032   6.430  0.6206  0.9833  0.2626
  108MOL   H18126075   5.583   1.275   6.298 -1.6594  2.0791 -0.3702
  108MOL   C18226076   5.569   1.140   6.673 -0.1733 -0.3785  0.2381
  108MOL   C18326077   5.714   1.079   6.704 -0.2221 -0.1266  0.6460
  108MOL   C18426078   5.733   0.933   6.666  0.5316 -0.6050  0.2530
  108MOL   C18526079   5.829   1.162   6.640  0.3912 -0.1279  0.2788
  108MOL   O18626080   5.885   1.253   6.703  0.3283  0.3029 -0.0056
  108MOL   O18726081   5.873   1.116   6.521 -0.4600 -0.2084 -0.5547
  108MOL   H18826082   5.552   1.223   6.741 -2.4824  1.0963 -2.0504
  108MOL   H18926083   5.491   1.070   6.702 -0.2661 -0.9433 -1.3031
  108MOL   H19026084   5.756   0.909   6.563 -2.0233  3.1748 -1.2985
  108MOL   H19126085   5.639   0.884   6.693  0.7549 -0.8460  0.6068
  108MOL   H19226086   5.814   0.889   6.724  1.8278  0.6297 -0.6154
  108MOL   H19326087   5.955   1.155   6.495 -0.4467  0.8551  1.0522
  108MOL   C19426088   5.742   1.089   6.858  0.7681 -0.0194 -0.6025
  108MOL   C19526089   5.679   1.001   6.977 -0.3945 -0.9155 -0.4963
  108MOL   C19626090   5.529   0.995   6.965  0.2765 -0.5025 -0.3428
  108MOL   C19726091   5.747   0.866   6.974  0.3911  0.4496  0.0663
  108MOL   O19826092   5.866   0.842   7.006  0.2464 -0.5122 -0.2349
  108MOL   O19926093   5.663   0.763   6.947  0.1166 -0.7744  0.0904
  108MOL   H20026094   5.850   1.078   6.861  0.7326 -0.0658  0.7472
  108MOL   H20126095   5.726   1.196   6.873 -0.8983 -0.2042 -0.9344
  108MOL   H20226096   5.485   0.947   7.052  1.9565  1.9120  1.9072
  108MOL   H20326097   5.487   0.937   6.883  0.6343 -1.3763  0.0811
  108MOL   H20426098   5.488   1.095   6.976  0.5692 -0.4044 -0.1223
  108MOL   H20526099   5.709   0.683   6.927 -1.2081 -1.8040  1.0584
  108MOL   C20626100   5.715   1.064   7.123 -0.1800 -0.0399 -0.6134
  108MOL   C20726101   5.642   1.027   7.255 -0.2141 -0.1942 -0.0385
  108MOL   C20826102   5.748   1.087   7.352  0.5630 -0.2226  0.1287
  108MOL   C20926103   5.517   1.120   7.265  0.0595  0.7363  0.5494
  108MOL   O21026104   5.400   1.083   7.260  0.0285  0.2783  0.2226
  108MOL   O21126105   5.551   1.249   7.267  0.0102 -0.2584 -0.3209
  108MOL   H21226106   5.821   1.056   7.143 -0.2055 -0.6841 -0.7099
  108MOL   H21326107   5.714   1.172   7.110 -1.3377 -0.1452 -1.5320
  108MOL   H21426108   5.782   1.185   7.317  0.2063  1.0515  3.2264
  108MOL   H21526109   5.831   1.020   7.377  0.9445 -0.0901 -0.7480
  108MOL   H21626110   5.707   1.111   7.450 -1.6631  1.7703 -1.2412
  108MOL   H21726111   5.482   1.306   7.298 -1.2878 -2.8245  1.8309
  108MOL   C21826112   5.619   0.882   7.281  0.0987 -0.9230  0.5222
  108MOL   C21926113   5.543   0.822   7.401 -0.0996  0.0145 -0.1082
  108MOL   C22026114   5.546   0.915   7.523  0.1324 -0.1038  0.3626
  108MOL   C22126115   5.393   0.794   7.367  0.2469  0.3014 -0.0763
  108MOL   O22226116   5.308   0.773   7.452 -0.3160 -0.2543 -0.4680
  108MOL   O22326117   5.376   0.776   7.240 -0.2926 -0.5288  0.9050
  108MOL   H22426118   5.590   0.830   7.190 -0.3296 -0.4603  0.3928
  108MOL   H22526119   5.717   0.836   7.295 -0.5360 -2.1925  0.9385
  108MOL   H22626120   5.494   1.010   7.515  0.5501  0.0471 -0.6743
  108MOL   H22726121   5.646   0.939   7.558  0.8011 -1.2509 -0.6788
  108MOL   H22826122   5.502   0.859   7.605 -1.7191 -1.9372 -1.7844
  108MOL   H22926123   5.284   0.760   7.224 -0.1038 -3.3187  2.2255
  108MOL   C23026124   5.613   0.688   7.438 -0.5017  0.3664  0.4196
  108MOL   C23126125   5.576   0.567   7.352  0.8946 -0.0329  0.1077
  108MOL   C23226126   5.662   0.568   7.226 -0.7290  0.0461  0.4505
  108MOL   C23326127   5.593   0.435   7.424  0.2069  0.2988 -0.5594
  108MOL   O23426128   5.700   0.389   7.466  0.5458  0.5840  0.3362
  108MOL   O23526129   5.473   0.380   7.443  0.0821  0.2979  0.1225
  108MOL   H23626130   5.718   0.700   7.463 -0.7185  2.9560  0.1724
  108MOL   H23726131   5.575   0.657   7.536 -0.7807  1.0437  0.5246
  108MOL   H23826132   5.714   0.475   7.203  2.1474  0.9297  3.1771
  108MOL   H23926133   5.746   0.635   7.237 -1.6174  1.1725  0.4569
  108MOL   H24026134   5.597   0.591   7.141 -1.1906 -1.7336  0.2882
  108MOL   H24126135   5.493   0.300   7.490 -0.6239  1.6293  2.7825
  108MOL   H24226136   5.472   0.567   7.320  0.8031  3.0872  0.2358
  109MOL     C126137   5.934   0.499   1.403  0.2203  0.1058 -0.0468
  109MOL     C226138   5.897   0.649   1.381 -0.2803  0.0931 -0.2727
  109MOL     C326139   5.993   0.700   1.272 -0.2914 -0.0715 -0.8175
  109MOL     C426140   5.751   0.659   1.333  0.9805 -0.5769  0.2294
  109MOL     O526141   5.697   0.763   1.291  0.3534 -0.1813 -0.2379
  109MOL     O626142   5.679   0.544   1.339  0.4233 -0.1025  0.0944
  109MOL     H726143   6.042   0.489   1.413  0.2102  0.6457  0.5924
  109MOL     H826144   5.913   0.454   1.306  3.1416  1.1784 -1.2167
  109MOL     H926145   6.090   0.715   1.320 -0.7003  1.0269 -0.3077
  109MOL    H1026146   5.955   0.794   1.232  1.9386  1.3064  0.2005
  109MOL    H1126147   5.997   0.629   1.190  0.6472 -0.1712 -0.6817
  109MOL    H1226148   5.600   0.554   1.289  0.5453  2.8550  0.4241
  109MOL    H1326149   5.876   0.459   1.487  1.7450 -0.0817  0.9417
  109MOL    C1426150   5.901   0.732   1.513  0.1069 -0.2755  0.3145
  109MOL    C1526151   5.834   0.702   1.654 -0.3273 -0.2131  0.1316
  109MOL    C1626152   5.690   0.678   1.639  0.1644  0.5374  0.9425
  109MOL    C1726153   5.895   0.571   1.709  0.0238 -0.7774  0.3489
  109MOL    O1826154   5.834   0.478   1.760  0.6350  0.4929 -0.2148
  109MOL    O1926155   6.031   0.580   1.724  0.2594 -0.2243  0.7750
  109MOL    H2026156   6.008   0.742   1.532  0.1892  1.0142 -0.7709
  109MOL    H2126157   5.877   0.836   1.495  0.7352  0.1142  1.6986
  109MOL    H2226158   5.640   0.766   1.599  0.2549 -0.4061 -1.2806
  109MOL    H2326159   5.646   0.651   1.735 -1.3440 -1.3996 -0.2610
  109MOL    H2426160   5.659   0.594   1.577  0.9825  0.5105  0.5598
  109MOL    H2526161   6.051   0.665   1.687 -0.6326  0.3568  1.5938
  109MOL    C2626162   5.878   0.825   1.750  0.8223  0.0446  0.4598
  109MOL    C2726163   5.837   0.846   1.899  0.5931 -0.1981 -0.5320
  109MOL    C2826164   5.833   0.714   1.975  0.2227  0.1821 -0.1769
  109MOL    C2926165   5.950   0.933   1.967 -0.1270  0.9389 -0.0981
  109MOL    O3026166   6.004   0.905   2.075 -0.2333 -0.2561  0.1642
  109MOL    O3126167   5.989   1.037   1.887  0.4397  0.1296 -0.0898
  109MOL    H3226168   5.987   0.815   1.754  0.8191 -1.1087 -1.6073
  109MOL    H3326169   5.857   0.920   1.702 -1.9926 -0.1127  1.2768
  109MOL    H3426170   5.830   0.722   2.083 -0.3962 -1.5334 -0.0489
  109MOL    H3526171   5.914   0.644   1.954 -0.8079 -0.3267 -2.6315
  109MOL    H3626172   5.736   0.669   1.951 -0.6785  2.3164 -0.5939
  109MOL    H3726173   6.055   1.085   1.935  0.5609  0.8230 -0.9388
  109MOL    C3826174   5.702   0.922   1.903  0.2015  0.0602 -0.2365
  109MOL    C3926175   5.624   0.972   2.030  0.4565  0.2924 -1.0066
  109MOL    C4026176   5.558   0.863   2.116 -0.0312 -0.3447  0.3339
  109MOL    C4126177   5.718   1.052   2.125 -0.6596 -0.0046 -0.4779
  109MOL    O4226178   5.780   1.149   2.089  0.5894 -0.2158 -0.4687
  109MOL    O4326179   5.749   0.988   2.241 -0.3170 -0.0439 -0.2566
  109MOL    H4426180   5.711   1.008   1.836 -0.1108  0.0302 -0.3140
  109MOL    H4526181   5.628   0.864   1.848 -0.6364  0.7032  0.2096
  109MOL    H4626182   5.618   0.789   2.168 -0.9571 -1.8463 -0.7014
  109MOL    H4726183   5.487   0.815   2.049 -0.0168  3.6387 -2.7019
  109MOL    H4826184   5.498   0.910   2.194 -0.0242  2.4754 -1.2709
  109MOL    H4926185   5.817   1.039   2.282  0.6736 -1.9155  0.5141
  109MOL    C5026186   5.523   1.083   1.987 -0.3666  0.4319  0.0608
  109MOL    C5126187   5.375   1.071   1.921 -0.4113  0.7438 -0.4022
  109MOL    C5226188   5.361   1.208   1.855  0.5888 -0.4863 -0.0468
  109MOL    C5326189   5.385   0.963   1.817  0.5482  0.3832 -0.2417
  109MOL    O5426190   5.335   0.851   1.833  0.4010  0.0346 -0.8708
  109MOL    O5526191   5.448   1.006   1.706  0.0267 -0.3537 -0.1385
  109MOL    H5626192   5.511   1.152   2.071  1.8152 -0.9722  1.5894
  109MOL    H5726193   5.576   1.154   1.923 -0.4749 -0.2014 -0.7472
  109MOL    H5826194   5.269   1.204   1.798 -0.0148 -0.6574  0.9280
  109MOL    H5926195   5.436   1.246   1.786  1.3229 -0.3765  0.8018
  109MOL    H6026196   5.357   1.280   1.937  1.9712  0.1175 -0.4883
  109MOL    H6126197   5.432   0.952   1.630  2.9566 -1.2842 -0.1627
  109MOL    C6226198   5.272   1.039   2.039  0.0978  0.4002  0.1900
  109MOL    C6326199   5.114   1.073   2.015 -0.0541 -0.0210  0.2163
  109MOL    C6426200   5.066   1.039   1.872 -0.3555 -0.1353 -0.9767
  109MOL    C6526201   5.047   0.967   2.105  0.4155 -0.7226 -0.5533
  109MOL    O6626202   4.982   0.870   2.066 -0.4195  0.5817 -0.3456
  109MOL    O6726203   5.075   0.995   2.238 -1.0244 -0.2562 -0.0493
  109MOL    H6826204   5.284   0.933   2.062  1.2310  1.2305  3.5541
  109MOL    H6926205   5.306   1.091   2.128  0.7102  0.6879 -0.2098
  109MOL    H7026206   5.086   1.124   1.806 -2.7564  2.1243  1.0656
  109MOL    H7126207   4.959   1.020   1.867 -0.8816  1.7383  1.7637
  109MOL    H7226208   5.131   0.965   1.826  0.7052  0.0744  0.1529
  109MOL    H7326209   5.020   0.931   2.281 -2.0227  0.6877  0.1069
  109MOL    C7426210   5.081   1.217   2.060  0.0525 -0.5294  0.1207
  109MOL    C7526211   4.939   1.295   2.025 -0.0522 -0.2517 -0.4453
  109MOL    C7626212   4.903   1.303   1.871  0.1322  0.4918 -0.3210
  109MOL    C7726213   4.821   1.223   2.097  1.4979 -0.1081  0.4463
  109MOL    O7826214   4.838   1.150   2.197 -0.7034  0.0352 -0.2893
  109MOL    O7926215   4.702   1.250   2.039 -0.5715 -0.1832 -0.1206
  109MOL    H8026216   5.106   1.246   2.162 -1.2563  1.5248 -0.1104
  109MOL    H8126217   5.157   1.273   2.005  1.3516 -0.4590  1.9355
  109MOL    H8226218   4.869   1.205   1.838  2.3680 -0.0235 -1.2296
  109MOL    H8326219   4.993   1.328   1.815 -0.0754  0.6653 -0.5752
  109MOL    H8426220   4.826   1.374   1.844  0.9482  1.3384 -0.4460
  109MOL    H8526221   4.648   1.178   2.069 -1.2133 -0.9381 -2.9410
  109MOL    C8626222   4.942   1.440   2.085  0.0278 -0.1123 -0.1454
  109MOL    C8726223   5.051   1.544   2.047 -0.2356 -0.1763  0.3580
  109MOL    C8826224   4.994   1.684   2.087 -0.2511  0.3381 -0.1704
  109MOL    C8926225   5.177   1.518   2.132  0.1341  0.9151  0.2163
  109MOL    O9026226   5.279   1.461   2.085  0.7668 -0.1022 -0.2995
  109MOL    O9126227   5.161   1.560   2.264  0.1055  0.4643  0.4299
  109MOL    H9226228   4.840   1.477   2.071 -0.8867 -2.3150  0.6300
  109MOL    H9326229   4.954   1.438   2.193  0.0425  2.4833 -0.0544
  109MOL    H9426230   4.946   1.683   2.185 -2.2240  0.4964 -1.1155
  109MOL    H9526231   4.908   1.714   2.028  0.3078 -0.4378 -1.3989
  109MOL    H9626232   5.075   1.757   2.094  0.2318 -0.1261 -0.8361
  109MOL    H9726233   5.224   1.527   2.326  0.7019 -1.3418 -1.0670
  109MOL    C9826234   5.075   1.550   1.894 -0.2648 -0.2286  0.4121
  109MOL    C9926235   5.151   1.667   1.823  0.2456  1.1586  0.5471
  109MOL   C10026236   5.283   1.707   1.895 -0.2514  0.0715 -0.2799
  109MOL   C10126237   5.201   1.607   1.689 -0.1881  0.2714 -0.5783
  109MOL   O10226238   5.317   1.611   1.642 -0.0441 -0.2096 -0.2524
  109MOL   O10326239   5.111   1.529   1.628  0.4522  0.4725  0.0064
  109MOL   H10426240   5.125   1.458   1.863  0.6367  0.4360 -0.0993
  109MOL   H10526241   4.972   1.554   1.858  0.1877  1.6948 -0.6704
  109MOL   H10626242   5.341   1.614   1.899  0.1473  0.3634  0.6785
  109MOL   H10726243   5.260   1.749   1.993 -1.2450 -0.2557 -0.3660
  109MOL   H10826244   5.355   1.776   1.851  1.3972 -0.3630  1.6946
  109MOL   H10926245   5.145   1.491   1.548 -2.3321  0.0428 -1.0548
  109MOL   C11026246   5.052   1.790   1.802 -0.6450  0.1461  0.4013
  109MOL   C11126247   5.049   1.887   1.668  0.1217  0.2073 -0.6924
  109MOL   C11226248   5.191   1.919   1.616  0.0789  0.0926 -0.3784
  109MOL   C11326249   4.966   1.816   1.557  0.5041  0.2280  0.0610
  109MOL   O11426250   4.878   1.729   1.582  0.3845  0.3819  0.2911
  109MOL   O11526251   4.993   1.862   1.434 -0.0010 -0.0609 -0.0214
  109MOL   H11626252   4.951   1.750   1.810 -0.9440  1.1392  2.0235
  109MOL   H11726253   5.071   1.852   1.890 -2.3549  2.0703 -0.5450
  109MOL   H11826254   5.191   1.999   1.542  0.7333 -1.0030 -1.5876
  109MOL   H11926255   5.239   1.834   1.568 -0.8891 -1.0891  0.7046
  109MOL   H12026256   5.254   1.963   1.694  1.1719  0.1713 -1.2953
  109MOL   H12126257   4.954   1.793   1.382  1.0837  0.0597 -1.0290
  109MOL   C12226258   4.984   2.027   1.693  1.0130 -0.1547  0.0307
  109MOL   C12326259   4.852   2.062   1.774 -0.4051 -0.3349  0.0003
  109MOL   C12426260   4.739   1.952   1.747  0.7269  0.0484  0.6211
  109MOL   C12526261   4.879   2.054   1.925 -0.5692 -0.3348 -0.3196
  109MOL   O12626262   4.814   1.981   2.003 -0.0557 -0.2786  0.4382
  109MOL   O12726263   4.970   2.148   1.964  0.0558 -0.4096  0.0657
  109MOL   H12826264   5.060   2.076   1.754 -0.4931  1.6798  0.4844
  109MOL   H12926265   4.981   2.077   1.596 -0.1936 -1.5468 -0.6562
  109MOL   H13026266   4.647   1.993   1.788  0.3318 -1.1785  0.9604
  109MOL   H13126267   4.769   1.849   1.768  0.0311 -0.3416 -0.2502
  109MOL   H13226268   4.717   1.954   1.640  0.5306  3.0590  0.6606
  109MOL   H13326269   4.965   2.158   2.058  1.0005  0.9608 -0.0061
  109MOL   C13426270   4.805   2.212   1.741 -0.2874  0.3636  0.0845
  109MOL   C13526271   4.722   2.254   1.612  0.6751 -0.8578  0.3332
  109MOL   C13626272   4.725   2.411   1.611 -0.1537  0.5935 -0.1019
  109MOL   C13726273   4.794   2.211   1.482  1.2761  0.3311 -0.1843
  109MOL   O13826274   4.866   2.285   1.423  0.0329 -0.2619  0.0836
  109MOL   O13926275   4.762   2.086   1.443 -0.1160 -0.2837 -0.4464
  109MOL   H14026276   4.751   2.264   1.820 -0.8361  1.9352 -1.2765
  109MOL   H14126277   4.896   2.273   1.737  0.5667 -0.7687  1.6975
  109MOL   H14226278   4.825   2.455   1.607  0.1038  0.2255  1.7006
  109MOL   H14326279   4.673   2.450   1.699  0.7502  0.1596  0.6407
  109MOL   H14426280   4.684   2.454   1.520 -2.4932 -1.2989  0.0059
  109MOL   H14526281   4.805   2.059   1.363  1.8923  1.5273 -0.0292
  109MOL   C14626282   4.570   2.215   1.595 -0.0988  0.0667 -0.0585
  109MOL   C14726283   4.444   2.271   1.678  0.6727 -0.4240 -0.2926
  109MOL   C14826284   4.488   2.258   1.830 -0.0773 -0.1846 -0.3234
  109MOL   C14926285   4.403   2.419   1.647  0.4097 -0.1705 -0.2767
  109MOL   O15026286   4.453   2.481   1.554 -0.1402 -0.0144 -0.1119
  109MOL   O15126287   4.297   2.460   1.728 -0.1698 -0.0656  0.2646
  109MOL   H15226288   4.546   2.223   1.489 -0.1735 -1.5728 -0.1643
  109MOL   H15326289   4.573   2.108   1.614  0.0069 -0.1482 -1.2327
  109MOL   H15426290   4.559   2.336   1.855  1.3511 -0.9111 -1.9671
  109MOL   H15526291   4.529   2.161   1.860  2.4659  1.5169  1.9530
  109MOL   H15626292   4.396   2.271   1.887 -0.1439 -0.8889 -0.2657
  109MOL   H15726293   4.260   2.547   1.724  0.4456  0.2162  0.5029
  109MOL   C15826294   4.309   2.188   1.666  0.3137  0.1744  0.3081
  109MOL   C15926295   4.266   2.119   1.528 -0.0630 -0.0586  0.3174
  109MOL   C16026296   4.264   2.223   1.415 -0.0590  0.0919  0.0273
  109MOL   C16126297   4.360   2.000   1.498 -0.6890  0.2767  0.2424
  109MOL   O16226298   4.404   1.975   1.390  0.4682 -0.1632 -0.2700
  109MOL   O16326299   4.377   1.922   1.607 -0.0966 -0.3534 -0.4284
  109MOL   H16426300   4.337   2.104   1.729  0.1815  0.7257  1.1214
  109MOL   H16526301   4.220   2.235   1.708 -0.4425  1.1558 -2.2980
  109MOL   H16626302   4.187   2.301   1.419 -2.0605 -1.6371 -2.7482
  109MOL   H16726303   4.259   2.180   1.315  0.0226  0.7598 -0.2676
  109MOL   H16826304   4.357   2.280   1.409 -0.5843  0.9153 -0.4593
  109MOL   H16926305   4.427   1.846   1.584  1.4520  0.6746 -0.5544
  109MOL   C17026306   4.118   2.064   1.556 -0.0279  0.3456  0.1507
  109MOL   C17126307   4.038   1.971   1.451 -0.6049 -0.6769 -0.2500
  109MOL   C17226308   4.037   2.036   1.312 -0.5082 -0.0155  0.0782
  109MOL   C17326309   4.097   1.823   1.436 -0.2218  0.0357  0.0287
  109MOL   O17426310   4.146   1.765   1.531  0.0937  0.0324 -0.4322
  109MOL   O17526311   4.079   1.766   1.312 -0.1941 -0.2479 -0.0015
  109MOL   H17626312   4.117   2.021   1.656 -1.5996  0.9223  0.3996
  109MOL   H17726313   4.056   2.151   1.579  1.1497  0.5725  2.5847
  109MOL   H17826314   4.126   2.006   1.258 -0.2586  4.6963 -2.4171
  109MOL   H17926315   4.019   2.144   1.313 -2.2895 -0.2877  1.0299
  109MOL   H18026316   3.953   1.996   1.256 -0.4687  1.5057 -1.1007
  109MOL   H18126317   4.108   1.676   1.311  0.8517  0.0738  0.6291
  109MOL   C18226318   3.892   1.974   1.511  0.1073 -0.1559  0.2942
  109MOL   C18326319   3.782   1.861   1.522  1.1123  0.5447  0.3473
  109MOL   C18426320   3.649   1.945   1.536 -0.1440  0.7796 -0.4012
  109MOL   C18526321   3.779   1.791   1.383  0.6830 -1.0533 -1.0071
  109MOL   O18626322   3.820   1.679   1.348 -0.5836  0.2863  0.1220
  109MOL   O18726323   3.733   1.886   1.297 -0.0513  0.0335 -0.7483
  109MOL   H18826324   3.891   2.015   1.612 -2.2317  0.5536  0.0204
  109MOL   H18926325   3.850   2.053   1.449  0.5742 -1.3839 -1.6232
  109MOL   H19026326   3.559   1.893   1.505 -0.3211  0.7475  0.1663
  109MOL   H19126327   3.644   2.045   1.491 -1.4283  1.0568  0.3531
  109MOL   H19226328   3.636   1.981   1.638 -0.1795 -0.0862 -0.0962
  109MOL   H19326329   3.724   1.854   1.209 -2.7895 -1.0654 -0.1228
  109MOL   C19426330   3.813   1.769   1.645 -0.2255 -0.4736  0.5119
  109MOL   C19526331   3.725   1.653   1.703 -0.4995 -0.7639 -0.6278
  109MOL   C19626332   3.781   1.623   1.844  0.5376 -0.2103 -0.0826
  109MOL   C19726333   3.581   1.706   1.723  0.0750 -0.0165  0.0923
  109MOL   O19826334   3.481   1.679   1.652  0.3243  0.4166 -0.0705
  109MOL   O19926335   3.567   1.799   1.824  0.4093  0.0433  0.5401
  109MOL   H20026336   3.907   1.717   1.625  0.3174  0.1707  1.4037
  109MOL   H20126337   3.828   1.838   1.727  1.4533 -0.5610  0.2877
  109MOL   H20226338   3.871   1.563   1.850 -0.2815 -1.2878  2.1061
  109MOL   H20326339   3.717   1.579   1.921  0.9472 -1.0070 -0.2006
  109MOL   H20426340   3.803   1.715   1.898  0.1860 -0.4536  0.4819
  109MOL   H20526341   3.481   1.837   1.818  0.0529 -0.7194  0.8574
  109MOL   C20626342   3.734   1.520   1.613 -0.0713 -0.3265  0.2134
  109MOL   C20726343   3.682   1.377   1.658 -0.4165 -0.4572  0.1933
  109MOL   C20826344   3.688   1.299   1.526 -0.4587  0.6676  0.1821
  109MOL   C20926345   3.792   1.320   1.751  0.1491  0.1339 -0.3569
  109MOL   O21026346   3.777   1.300   1.871  0.0488  0.5553  0.1965
  109MOL   O21126347   3.915   1.287   1.694  0.0389  0.4906  0.9304
  109MOL   H21226348   3.686   1.534   1.516 -1.4593 -1.2371  0.7532
  109MOL   H21326349   3.837   1.508   1.579 -0.4499 -0.6984 -0.8264
  109MOL   H21426350   3.602   1.314   1.461  0.3611 -0.3100 -1.1819
  109MOL   H21526351   3.694   1.191   1.533  1.6271  0.5079 -2.8991
  109MOL   H21626352   3.774   1.329   1.464 -0.8997 -0.7568 -1.1507
  109MOL   H21726353   3.962   1.249   1.767  0.6442  1.1512  0.8889
  109MOL   C21826354   3.540   1.378   1.722  0.2384  0.2971 -0.0553
  109MOL   C21926355   3.454   1.252   1.757 -0.0165  1.0049  0.6024
  109MOL   C22026356   3.424   1.164   1.639 -0.0434 -0.5083 -0.3926
  109MOL   C22126357   3.526   1.165   1.872  0.4118 -0.3094 -0.2052
  109MOL   O22226358   3.567   1.053   1.852  0.0364 -0.0486  0.2024
  109MOL   O22326359   3.524   1.228   1.994 -0.4506  0.2268  0.0051
  109MOL   H22426360   3.538   1.433   1.816  1.6396  1.9704 -0.9674
  109MOL   H22526361   3.472   1.439   1.663  0.2542 -1.1092 -1.5589
  109MOL   H22626362   3.506   1.111   1.590  2.4998  1.6435  1.3822
  109MOL   H22726363   3.368   1.223   1.567  0.3568 -0.6544 -0.8276
  109MOL   H22826364   3.358   1.078   1.646  0.8900 -1.1529  0.7377
  109MOL   H22926365   3.582   1.183   2.054  0.1139 -1.4913 -1.7281
  109MOL   C23026366   3.317   1.302   1.806  0.4139  0.7477 -0.5721
  109MOL   C23126367   3.205   1.201   1.848 -0.4145  0.4928  0.1148
  109MOL   C23226368   3.111   1.255   1.961 -0.0079 -0.7684 -0.4217
  109MOL   C23326369   3.110   1.159   1.731 -0.1875 -0.2425  0.2939
  109MOL   O23426370   3.055   1.046   1.725 -0.3431 -0.4873  0.1771
  109MOL   O23526371   3.097   1.258   1.631  0.0255 -0.2398 -0.2371
  109MOL   H23626372   3.339   1.350   1.902  2.7841  1.6099 -1.5221
  109MOL   H23726373   3.271   1.376   1.741 -2.9066  1.2205  2.1488
  109MOL   H23826374   3.032   1.183   1.977  1.6828 -2.0566  2.5369
  109MOL   H23926375   3.070   1.352   1.933 -1.2747 -1.1533  0.0536
  109MOL   H24026376   3.161   1.274   2.056 -1.2418 -0.0058  0.0833
  109MOL   H24126377   3.027   1.246   1.568 -0.6858  0.9028  0.3310
  109MOL   H24226378   3.248   1.115   1.897  0.8541  0.9772 -0.1355
  110MOL     C126379   6.302   5.562   1.624  0.8554  0.0634 -0.6102
  110MOL     C226380   6.360   5.690   1.569  0.1882 -0.4829 -0.3936
  110MOL     C326381   6.309   5.693   1.424 -0.2445 -0.2602 -0.0110
  110MOL     C426382   6.305   5.810   1.644  0.1328  0.7497  0.3893
  110MOL     O526383   6.308   5.924   1.598  0.2734  0.1596 -0.3895
  110MOL     O626384   6.249   5.774   1.765 -0.2500 -0.1684  0.1022
  110MOL     H726385   6.304   5.475   1.558  0.8356 -0.0603 -0.4468
  110MOL     H826386   6.196   5.572   1.643  0.8943 -2.9474  1.5031
  110MOL     H926387   6.211   5.645   1.423  0.4793 -1.7622  0.1019
  110MOL    H1026388   6.376   5.652   1.349 -1.5128 -1.5392 -0.4691
  110MOL    H1126389   6.297   5.799   1.398  0.4708  0.4589  2.4227
  110MOL    H1226390   6.231   5.843   1.828 -1.9981 -2.0483  1.7551
  110MOL    H1326391   6.357   5.524   1.710  0.1299 -0.7365 -0.4986
  110MOL    C1426392   6.523   5.701   1.552  0.7364 -0.5112  0.6717
  110MOL    C1526393   6.625   5.708   1.669  0.3897  0.4138  0.0507
  110MOL    C1626394   6.581   5.812   1.777  0.9031 -0.8162  0.3470
  110MOL    C1726395   6.644   5.574   1.734  0.0595 -0.0267  0.2225
  110MOL    O1826396   6.706   5.572   1.840  0.3149 -0.3064  0.2813
  110MOL    O1926397   6.604   5.463   1.663 -0.1656 -0.4786 -0.3976
  110MOL    H2026398   6.549   5.613   1.493  1.9892 -0.6588  1.4323
  110MOL    H2126399   6.530   5.791   1.491 -1.7432 -0.5021  0.3513
  110MOL    H2226400   6.507   5.784   1.852  0.7357  1.3962  1.0491
  110MOL    H2326401   6.541   5.905   1.736  1.3011 -0.5859  0.4830
  110MOL    H2426402   6.668   5.847   1.833  1.5304  0.9337 -1.6328
  110MOL    H2526403   6.633   5.391   1.718 -0.7954 -0.1725  0.3505
  110MOL    C2626404   6.763   5.767   1.617 -0.5454  0.1016 -0.5252
  110MOL    C2726405   6.860   5.693   1.509 -0.2869 -0.2066 -0.0547
  110MOL    C2826406   6.945   5.586   1.577 -0.4084  0.4272 -0.0309
  110MOL    C2926407   6.786   5.634   1.386 -0.3691  0.4714 -0.2958
  110MOL    O3026408   6.808   5.522   1.343 -0.0061 -0.2030  0.5613
  110MOL    O3126409   6.701   5.725   1.336  0.0158  0.3015 -0.8828
  110MOL    H3226410   6.730   5.856   1.564  1.1239  0.5273 -0.8617
  110MOL    H3326411   6.823   5.806   1.699 -1.7161 -0.6578  0.7170
  110MOL    H3426412   7.018   5.539   1.511  1.8062  1.0067  1.9364
  110MOL    H3526413   6.887   5.498   1.604  0.8708 -0.2890  0.4142
  110MOL    H3626414   7.004   5.614   1.664  1.2758 -0.5780 -0.8115
  110MOL    H3726415   6.654   5.700   1.258 -0.6995  0.1392 -0.4114
  110MOL    C3826416   6.944   5.819   1.456 -0.1428 -0.2062 -0.0463
  110MOL    C3926417   7.072   5.810   1.361  0.4014 -0.1051  0.3862
  110MOL    C4026418   7.190   5.769   1.452  0.6904 -0.1249 -0.1021
  110MOL    C4126419   7.050   5.706   1.245  0.2802 -0.6942 -0.4769
  110MOL    O4226420   7.110   5.596   1.234 -0.3738  0.2594 -0.3789
  110MOL    O4326421   6.945   5.756   1.165 -0.1797 -0.1996 -0.2922
  110MOL    H4426422   6.876   5.886   1.403  2.1705  4.0779  2.0623
  110MOL    H4526423   6.973   5.882   1.540 -1.9983 -0.6662  0.9748
  110MOL    H4626424   7.277   5.739   1.393 -0.1051  0.4097 -1.5784
  110MOL    H4726425   7.169   5.685   1.518  1.0441 -0.9457 -1.0121
  110MOL    H4826426   7.208   5.857   1.514 -2.5120  1.2416 -1.0456
  110MOL    H4926427   6.946   5.693   1.095 -0.4205 -1.1629  0.5566
  110MOL    C5026428   7.101   5.952   1.300  0.3854 -0.1616  0.1310
  110MOL    C5126429   7.198   5.978   1.171 -0.1729  0.8215 -0.7315
  110MOL    C5226430   7.335   5.901   1.177  0.2774  0.4187 -0.5651
  110MOL    C5326431   7.121   5.935   1.045 -0.0522 -0.3334  0.2837
  110MOL    O5426432   7.159   5.847   0.972  0.5600 -0.3004 -0.4409
  110MOL    O5526433   7.004   6.005   1.035  0.6764  0.1038  0.2850
  110MOL    H5626434   6.999   5.991   1.292 -0.0794 -0.9213  2.0174
  110MOL    H5726435   7.141   6.009   1.384 -1.7791  1.7232 -0.0382
  110MOL    H5826436   7.396   5.937   1.260  1.8330 -1.2467 -0.9651
  110MOL    H5926437   7.396   5.924   1.089  1.0822  0.6256  0.0392
  110MOL    H6026438   7.323   5.794   1.189  0.6790  0.5402  1.0687
  110MOL    H6126439   6.964   5.995   0.950 -1.8839  1.0562  1.3226
  110MOL    C6226440   7.227   6.133   1.171  0.0484  0.0976  0.7464
  110MOL    C6326441   7.284   6.221   1.055 -0.8590 -0.2554 -0.5300
  110MOL    C6426442   7.436   6.189   1.023  0.2456  0.5289 -0.5130
  110MOL    C6526443   7.208   6.213   0.925 -0.0120  0.6964  0.2756
  110MOL    O6626444   7.253   6.191   0.818 -0.2755  0.0300 -0.2956
  110MOL    O6726445   7.078   6.245   0.946 -0.1164  0.3708  0.2208
  110MOL    H6826446   7.129   6.163   1.207 -1.3473 -1.0856 -1.8617
  110MOL    H6926447   7.290   6.141   1.260  0.2161  0.2097  0.6194
  110MOL    H7026448   7.477   6.259   0.950 -0.1714  1.7440  0.4120
  110MOL    H7126449   7.453   6.085   0.995  2.5490  0.8375 -0.3293
  110MOL    H7226450   7.483   6.175   1.120 -0.8969 -3.1679 -0.4121
  110MOL    H7326451   7.033   6.244   0.863 -0.8618  0.4901  0.6295
  110MOL    C7426452   7.281   6.378   1.089  0.2419 -0.7383 -0.2050
  110MOL    C7526453   7.200   6.466   1.197 -0.2303  0.2472  0.2594
  110MOL    C7626454   7.048   6.434   1.166 -0.3472 -0.0848  0.4958
  110MOL    C7726455   7.229   6.420   1.347 -0.0474  0.2578  0.1408
  110MOL    O7826456   7.323   6.344   1.377 -0.3187 -0.1795  0.0210
  110MOL    O7926457   7.136   6.476   1.436 -0.4592 -0.1085 -0.4025
  110MOL    H8026458   7.385   6.376   1.123  0.4554 -2.2972 -0.8960
  110MOL    H8126459   7.289   6.441   1.001 -2.7705  1.4296  0.9628
  110MOL    H8226460   7.025   6.330   1.188 -1.2896  0.0464  0.1353
  110MOL    H8326461   7.023   6.465   1.064  0.8473 -1.8220 -0.3523
  110MOL    H8426462   6.983   6.493   1.231 -0.2809  1.4530 -0.7952
  110MOL    H8526463   7.068   6.526   1.394 -1.8408 -0.3582  1.4662
  110MOL    C8626464   7.231   6.621   1.168 -0.5693 -0.4183 -0.6324
  110MOL    C8726465   7.369   6.690   1.202  0.3445 -0.0990  0.2358
  110MOL    C8826466   7.343   6.841   1.170  0.4490 -0.7312  0.5267
  110MOL    C8926467   7.390   6.678   1.359 -0.1818 -0.4873 -0.0702
  110MOL    O9026468   7.479   6.614   1.417 -0.4983  0.0650 -0.5002
  110MOL    O9126469   7.279   6.738   1.423 -0.1910  0.0762 -0.7085
  110MOL    H9226470   7.215   6.636   1.061  0.3017  1.5701 -0.5093
  110MOL    H9326471   7.150   6.680   1.212  0.5018  0.2943  0.4112
  110MOL    H9426472   7.405   6.908   1.230  1.4147  0.3291 -1.5813
  110MOL    H9526473   7.241   6.872   1.193 -0.4641 -2.0454 -1.5595
  110MOL    H9626474   7.362   6.864   1.065 -0.6945  0.0891  0.4851
  110MOL    H9726475   7.289   6.719   1.515 -0.2931 -0.3257 -0.7797
  110MOL    C9826476   7.486   6.626   1.106  0.2613  0.5289 -0.6332
  110MOL    C9926477   7.627   6.692   1.093 -0.4104  0.3507 -0.3099
  110MOL   C10026478   7.719   6.601   1.010  0.2007  0.1217  0.0426
  110MOL   C10126479   7.607   6.813   1.003 -0.1824  0.2925  0.0315
  110MOL   O10226480   7.613   6.934   1.034 -0.0754  0.3526  0.2742
  110MOL   O10326481   7.577   6.775   0.873 -0.0321 -0.3875  0.0282
  110MOL   H10426482   7.503   6.527   1.148 -0.9962  1.4274  2.1379
  110MOL   H10526483   7.442   6.613   1.007 -1.0254 -0.4879  0.0616
  110MOL   H10626484   0.037   6.662   0.980  1.0162  0.1325  2.2744
  110MOL   H10726485   7.669   6.541   0.934 -0.8803  0.5043  0.4404
  110MOL   H10826486   7.758   6.520   1.071  0.4058 -0.3639 -0.7282
  110MOL   H10926487   7.565   6.854   0.822 -1.1386 -0.0971  0.7178
  110MOL   C11026488   7.690   6.744   1.233 -0.0532 -0.4226  0.5465
  110MOL   C11126489   0.075   6.792   1.258  0.3367  1.0794  0.5887
  110MOL   C11226490   0.079   6.834   1.405 -0.1233  0.6210  0.3690
  110MOL   C11326491   0.160   6.660   1.245  0.4832  0.4369 -0.2424
  110MOL   O11426492   0.232   6.638   1.151  0.0776  0.1822 -0.2742
  110MOL   O11526493   0.115   6.574   1.336  0.0403  0.0398 -0.2009
  110MOL   H11626494   7.627   6.824   1.273  0.9233  2.5361 -3.4139
  110MOL   H11726495   7.677   6.663   1.304  1.7070 -0.1866  1.1735
  110MOL   H11826496   0.175   6.825   1.456 -0.0230  0.9617  0.2408
  110MOL   H11926497   0.008   6.779   1.468  0.8748 -0.9683  0.1274
  110MOL   H12026498   0.043   6.935   1.426  2.2998  1.2316  1.8036
  110MOL   H12126499   0.156   6.493   1.309 -1.4353 -0.3904 -1.1899
  110MOL   C12226500   0.119   6.908   1.165 -0.1193  0.0155 -0.0517
  110MOL   C12326501   0.257   6.982   1.179 -0.0542 -0.0495  0.3820
  110MOL   C12426502   0.378   6.885   1.160 -0.3351 -0.1754  0.5663
  110MOL   C12526503   0.251   7.079   1.060 -0.0055 -0.0849  0.1538
  110MOL   O12626504   0.162   7.166   1.041 -0.3199  0.3880 -0.4503
  110MOL   O12726505   0.376   7.083   1.002  0.1345 -0.1923  0.4096
  110MOL   H12826506   0.118   6.862   1.067  1.9411 -0.0571 -0.0512
  110MOL   H12926507   0.035   6.978   1.162  0.4264  0.9218  3.5734
  110MOL   H13026508   0.376   6.815   1.077  3.9712 -1.4822  1.4436
  110MOL   H13126509   0.402   6.829   1.250 -0.5147  0.3592  0.9481
  110MOL   H13226510   0.477   6.928   1.147  0.3821 -1.6987  0.9656
  110MOL   H13326511   0.365   7.144   0.931 -2.8483 -0.4140  0.5808
  110MOL   C13426512   0.280   7.065   1.310 -0.2377  0.1486 -0.2944
  110MOL   C13526513   0.386   7.181   1.331 -0.4756  0.2093  0.1748
  110MOL   C13626514   0.528   7.122   1.300  0.4325 -0.4861  0.3188
  110MOL   C13726515   0.346   7.307   1.249  0.2447 -0.1864  0.9323
  110MOL   O13826516   0.421   7.355   1.158  0.7558  0.0892 -0.2233
  110MOL   O13926517   0.225   7.363   1.279 -0.1939  0.6398 -0.2702
  110MOL   H14026518   0.177   7.092   1.332 -0.2844 -0.4043  0.1585
  110MOL   H14126519   0.302   6.991   1.387 -0.0425  3.1558  2.6105
  110MOL   H14226520   0.598   7.199   1.332 -2.8363  2.3938  0.9289
  110MOL   H14326521   0.558   7.104   1.197  1.0208 -1.1823  0.6081
  110MOL   H14426522   0.558   7.034   1.356 -0.7571 -0.7338  0.5946
  110MOL   H14526523   0.197   7.432   1.220  0.0126  2.8780  2.1907
  110MOL   C14626524   0.381   7.208   1.485 -0.0723  0.2013 -0.0888
  110MOL   C14726525   0.485   7.294   1.555 -0.2312  0.3826 -0.6547
  110MOL   C14826526   0.608   7.213   1.597  0.2133 -0.1334  0.5604
  110MOL   C14926527   0.519   7.419   1.478  0.7474 -0.2991  0.4991
  110MOL   O15026528   0.439   7.502   1.443 -0.1839 -0.1188  0.0654
  110MOL   O15126529   0.650   7.439   1.450 -0.8151 -0.2534 -0.2782
  110MOL   H15226530   0.279   7.246   1.497  0.4193  1.4223  0.2771
  110MOL   H15326531   0.382   7.107   1.527  1.2240  0.4840  0.5927
  110MOL   H15426532   0.693   7.225   1.528 -1.0965 -0.5717 -1.1656
  110MOL   H15526533   0.588   7.106   1.602  1.7670 -0.7219 -3.4055
  110MOL   H15626534   0.652   7.247   1.691 -0.4850  1.9383  0.1571
  110MOL   H15726535   0.659   7.528   1.422 -2.0506  0.3351  1.1005
  110MOL   C15826536   0.415   7.361   1.678 -0.2469  0.1536  0.0723
  110MOL   C15926537   0.330   7.291   1.788  0.2915 -0.1428 -0.1663
  110MOL   C16026538   0.415   7.170   1.837 -0.0277 -0.2250  0.0984
  110MOL   C16126539   0.316   7.386   1.911 -0.3285  0.2098  0.4497
  110MOL   O16226540   0.344   7.355   2.025  0.4486 -0.4870 -0.0770
  110MOL   O16326541   0.283   7.509   1.872  0.2241 -0.0398  0.6483
  110MOL   H16426542   0.491   7.415   1.734 -1.1828  1.3755  0.1917
  110MOL   H16526543   0.353   7.445   1.648 -0.9356  0.2194  1.5843
  110MOL   H16626544   0.371   7.109   1.916 -0.2579  0.5610  0.5717
  110MOL   H16726545   0.515   7.190   1.874 -0.5596  1.3053  0.7082
  110MOL   H16826546   0.430   7.103   1.752  0.7979  1.1825 -0.8952
  110MOL   H16926547   0.287   7.564   1.949  0.2415  1.1552 -0.1881
  110MOL   C17026548   0.190   7.239   1.730 -0.1771  0.2853  0.4725
  110MOL   C17126549   0.054   7.221   1.809 -0.3652 -0.0138 -0.4085
  110MOL   C17226550   0.053   7.121   1.930  0.1497  0.2041 -0.3437
  110MOL   C17326551   7.761   7.356   1.856  0.3581 -0.2999 -0.2093
  110MOL   O17426552   7.751   7.455   1.780 -0.0889  0.4923 -0.4643
  110MOL   O17526553   7.721   7.360   1.989  0.7461 -0.0437 -0.4692
  110MOL   H17626554   0.165   7.313   1.655 -0.2620 -0.1685  0.0467
  110MOL   H17726555   0.218   7.142   1.687  0.7033  0.8532 -0.2534
  110MOL   H17826556   0.075   7.021   1.893 -0.1683 -0.2554  0.6848
  110MOL   H17926557   7.732   7.113   1.994  0.1981 -0.8416 -0.4018
  110MOL   H18026558   0.140   7.146   1.992 -1.9393 -0.4483  2.9373
  110MOL   H18126559   7.690   7.447   2.013 -0.5489 -0.2612 -1.3007
  110MOL   C18226560   7.719   7.175   1.694  0.5062 -0.2018  0.3267
  110MOL   C18326561   7.574   7.114   1.710  0.3688 -0.8128  0.8087
  110MOL   C18426562   7.524   7.084   1.567 -0.2570  0.0282 -0.8313
  110MOL   C18526563   7.576   6.979   1.792  0.1891 -0.2439 -0.8664
  110MOL   O18626564   7.530   6.966   1.907 -0.3877  0.3046 -0.6246
  110MOL   O18726565   7.645   6.882   1.726 -0.0099 -0.4532 -0.0029
  110MOL   H18826566   7.703   7.253   1.620  1.9056 -0.4230 -0.2145
  110MOL   H18926567   0.004   7.102   1.631 -0.0479  0.7836 -1.2928
  110MOL   H19026568   7.502   7.176   1.515  2.0844  0.9797 -0.2103
  110MOL   H19126569   7.441   7.013   1.558  1.3527 -1.8172 -1.6258
  110MOL   H19226570   7.604   7.037   1.509  0.3421  1.6473 -1.3427
  110MOL   H19326571   7.657   6.804   1.778  0.9866  0.0191  0.4912
  110MOL   C19426572   7.480   7.230   1.779  0.2625 -0.2677 -0.2567
  110MOL   C19526573   7.326   7.221   1.811 -0.0228  0.5279 -0.5252
  110MOL   C19626574   7.252   7.152   1.697 -0.1368 -0.8671  0.1044
  110MOL   C19726575   7.307   7.161   1.953  0.1740  0.4625  0.4490
  110MOL   O19826576   7.221   7.078   1.983 -0.5355  0.5885 -0.0135
  110MOL   O19926577   7.388   7.218   2.044  0.9682 -0.1265 -0.0906
  110MOL   H20026578   7.539   7.256   1.867  1.0119 -1.0221 -0.5274
  110MOL   H20126579   7.494   7.310   1.706 -0.6113 -1.9346 -2.2741
  110MOL   H20226580   7.264   7.044   1.703 -1.4613 -0.9700  1.4009
  110MOL   H20326581   7.263   7.184   1.594 -1.0202 -3.5032 -0.8469
  110MOL   H20426582   7.147   7.174   1.718 -0.4050 -2.2817  0.2947
  110MOL   H20526583   7.381   7.178   2.130  1.9604 -0.8758 -0.3380
  110MOL   C20626584   7.261   7.366   1.808 -1.4433  0.0663 -0.0779
  110MOL   C20726585   7.137   7.422   1.890  0.4854 -1.3461  0.7194
  110MOL   C20826586   7.016   7.331   1.874  0.1808  1.0437 -0.0153
  110MOL   C20926587   7.171   7.444   2.040  0.7914  0.2964 -0.4520
  110MOL   O21026588   7.226   7.546   2.088  0.8282  0.6366 -0.0805
  110MOL   O21126589   7.115   7.345   2.118 -0.9332  0.1183  0.6165
  110MOL   H21226590   7.342   7.438   1.820 -1.5587  0.0474  0.8132
  110MOL   H21326591   7.239   7.381   1.702 -1.9874 -0.9950 -0.1227
  110MOL   H21426592   6.956   7.342   1.784 -1.9655 -2.6172  0.8486
  110MOL   H21526593   6.938   7.348   1.948  1.4258 -1.2696  1.9122
  110MOL   H21626594   7.044   7.227   1.892 -2.4976 -0.0621 -1.9512
  110MOL   H21726595   7.130   7.354   2.211  0.9507 -0.9781  0.4330
  110MOL   C21826596   7.106   7.560   1.825  0.0007 -0.1806 -0.8248
  110MOL   C21926597   6.977   7.652   1.857 -0.5081 -0.1183 -0.8553
  110MOL   C22026598   6.851   7.595   1.781  0.6038 -0.1587 -0.7208
  110MOL   C22126599   6.945   7.669   2.007  0.1011 -0.4104  0.0088
  110MOL   O22226600   6.848   7.615   2.058  0.3753  0.1933  0.3888
  110MOL   O22326601   7.020   7.766   2.068  0.0507 -0.2733  0.0638
  110MOL   H22426602   7.196   7.619   1.843 -1.0939  0.7761  1.7397
  110MOL   H22526603   7.110   7.550   1.717 -1.6071 -0.5762 -0.8531
  110MOL   H22626604   6.769   7.666   1.790  0.8401  0.0461 -0.1438
  110MOL   H22726605   6.821   7.507   1.837  1.6978 -0.6419 -0.8789
  110MOL   H22826606   6.876   7.565   1.679  1.3004  0.8134 -0.8512
  110MOL   H22926607   7.092   0.026   2.013 -0.9175  0.2929 -0.9647
  110MOL   C23026608   7.008   0.028   1.789  0.3284 -0.8323 -0.4259
  110MOL   C23126609   6.893   0.137   1.770 -0.1584 -0.1135  0.2664
  110MOL   C23226610   6.819   0.188   1.893  0.2858 -0.8715 -0.5518
  110MOL   C23326611   6.950   0.253   1.686 -0.5285  0.0193  0.0588
  110MOL   O23426612   7.063   0.284   1.675 -0.2380 -1.0111  0.4153
  110MOL   O23526613   6.849   0.324   1.628  0.4590  0.3774 -0.0224
  110MOL   H23626614   7.103   0.065   1.829 -0.4805 -0.5762  1.2827
  110MOL   H23726615   7.046   0.005   1.690 -1.1487  0.6000 -1.3508
  110MOL   H23826616   6.748   0.113   1.928 -0.3541 -0.1845 -0.3679
  110MOL   H23926617   6.778   0.287   1.870  0.6800 -0.8154 -1.0419
  110MOL   H24026618   6.889   0.219   1.971  0.6220  0.1477 -1.2448
  110MOL   H24126619   6.894   0.393   1.582 -1.2774  1.5775  0.0344
  110MOL   H24226620   6.817   0.099   1.701  0.5083  0.2447 -0.6744
  111MOL     C126621   6.190   0.257   7.296  0.0167  0.9986 -0.3827
  111MOL     C226622   6.167   0.107   7.240  0.0023  0.5610  0.2366
  111MOL     C326623   6.162   0.134   7.092  0.4654 -0.2877  0.4468
  111MOL     C426624   6.285   0.014   7.274 -0.2891 -0.4057 -0.2614
  111MOL     O526625   6.384   0.050   7.336  0.5297 -0.8262  0.0281
  111MOL     O626626   6.275   7.658   7.214 -0.0599 -0.6106 -0.2471
  111MOL     H726627   6.224   0.264   7.399 -0.4040  0.7285 -0.2211
  111MOL     H826628   6.094   0.307   7.277 -0.0524  1.1463  0.3431
  111MOL     H926629   6.145   0.042   7.036 -1.6746  1.0813 -1.2047
  111MOL    H1026630   6.258   0.164   7.051 -0.4629  1.7309 -0.2887
  111MOL    H1126631   6.095   0.212   7.057 -0.0256 -0.3079  1.3214
  111MOL    H1226632   6.186   7.643   7.184 -0.8067  0.2200  1.4899
  111MOL    H1326633   6.262   0.309   7.234 -1.0656  0.6911 -1.9435
  111MOL    C1426634   6.032   0.050   7.288 -0.2924 -0.1036  0.3526
  111MOL    C1526635   5.990   0.017   7.441  0.4622 -0.2887  0.3829
  111MOL    C1626636   6.063   7.656   7.496  0.1599  0.1966 -0.1538
  111MOL    C1726637   6.013   0.140   7.529  0.1734  0.8975 -0.2109
  111MOL    O1826638   5.967   0.251   7.505  0.1486 -0.3095  0.2071
  111MOL    O1926639   6.113   0.124   7.614 -0.1220 -0.3291  0.0061
  111MOL    H2026640   5.962   0.123   7.245 -1.4420 -0.6864  1.2084
  111MOL    H2126641   6.023   7.728   7.226 -0.2192  0.1972 -0.0903
  111MOL    H2226642   6.051   7.638   7.603  1.9906 -1.4403 -0.2038
  111MOL    H2326643   6.170   7.667   7.477 -0.2390  2.3246 -1.3492
  111MOL    H2426644   6.034   7.562   7.449  0.2770 -0.1327  0.4214
  111MOL    H2526645   6.157   0.196   7.657  1.2685 -0.0204 -1.8645
  111MOL    C2626646   5.830   0.009   7.436 -0.1316 -0.0982  0.4517
  111MOL    C2726647   5.736   7.736   7.565 -0.8438  0.5243  0.3290
  111MOL    C2826648   5.764   0.049   7.694  0.1147 -0.0276  0.0444
  111MOL    C2926649   5.601   0.018   7.512  0.7271  1.2221 -0.0362
  111MOL    O3026650   5.545   0.119   7.562 -0.9190  0.1715 -0.7947
  111MOL    O3126651   5.550   7.711   7.414 -0.5732  0.3710  0.3086
  111MOL    H3226652   5.793   0.104   7.397  0.1812  0.5486  1.6954
  111MOL    H3326653   5.797   7.707   7.358  0.9062  1.2195 -1.1844
  111MOL    H3426654   5.770   0.158   7.689 -1.5797 -0.0092 -2.3508
  111MOL    H3526655   5.851   0.017   7.751 -1.0980 -1.2517  1.2357
  111MOL    H3626656   5.685   0.043   0.002 -0.2705  0.0315 -0.3503
  111MOL    H3726657   5.472   7.753   7.382 -0.1079  0.8367 -0.2192
  111MOL    C3826658   5.738   7.582   7.584 -0.0297 -0.4587  0.1163
  111MOL    C3926659   5.671   7.506   7.701 -0.4582  0.2321  0.1733
  111MOL    C4026660   5.763   7.521   0.052 -1.0097  0.4293  0.1765
  111MOL    C4126661   5.525   7.560   7.730 -0.6222 -0.3154 -1.2369
  111MOL    O4226662   5.428   7.536   7.660  0.4533  0.0205  0.4826
  111MOL    O4326663   5.532   7.648   0.066  0.1266  0.0807 -0.1047
  111MOL    H4426664   5.714   7.535   7.489  1.8714 -0.5522 -0.3373
  111MOL    H4526665   5.845   7.571   7.601  0.6285  3.0745 -1.2775
  111MOL    H4626666   5.866   7.492   0.030 -0.2342  0.1797  3.7113
  111MOL    H4726667   5.732   7.467   0.142 -0.1164  0.4057  0.4803
  111MOL    H4826668   5.775   7.621   0.093 -0.2306  0.6370 -0.5441
  111MOL    H4926669   5.457   7.699   0.090  0.3747  0.0630  0.7064
  111MOL    C5026670   5.671   7.354   7.659 -0.1443  0.7009 -0.7544
  111MOL    C5126671   5.589   7.232   7.730 -0.3122  0.7857  0.6658
  111MOL    C5226672   5.575   7.256   0.110 -0.0704  0.0685  0.8185
  111MOL    C5326673   5.449   7.222   7.666 -0.3649  0.0333  0.1597
  111MOL    O5426674   5.346   7.221   7.732 -0.0972 -0.3459  0.0561
  111MOL    O5526675   5.452   7.217   7.530  0.8387  0.2493 -0.0608
  111MOL    H5626676   5.640   7.353   7.554  0.2495 -0.2593 -0.8618
  111MOL    H5726677   5.777   7.328   7.659 -0.4235 -0.5009  0.6485
  111MOL    H5826678   5.528   7.353   0.122  1.2472  0.7917  0.1923
  111MOL    H5926679   5.668   7.252   0.167 -0.0275  1.1050  0.8307
  111MOL    H6026680   5.513   7.182   0.160 -0.9605 -1.4587 -2.4358
  111MOL    H6126681   5.360   7.210   7.511  0.7862  1.4209 -0.2858
  111MOL    C6226682   5.669   7.096   7.698  0.9456 -0.8916 -0.1598
  111MOL    C6326683   5.649   6.951   7.750  0.4951 -0.3688 -0.0503
  111MOL    C6426684   5.672   6.953   0.141  0.0277 -0.1433  0.4170
  111MOL    C6526685   5.502   6.910   7.726 -0.3537  0.0272 -0.4364
  111MOL    O6626686   5.410   6.893   0.047  0.1719  0.3277 -0.6126
  111MOL    O6726687   5.480   6.900   7.594 -0.0896 -0.0290  0.0864
  111MOL    H6826688   5.674   7.084   7.590  0.9765 -0.4459 -0.2086
  111MOL    H6926689   5.770   7.120   7.732  0.7127 -0.0332 -0.0558
  111MOL    H7026690   5.664   6.861   0.199 -0.8187  0.0181  0.5662
  111MOL    H7126691   5.611   7.020   0.201  2.5505  0.1217  2.7758
  111MOL    H7226692   5.776   6.981   0.160 -0.1117 -0.5514  1.8367
  111MOL    H7326693   5.389   6.902   7.566 -0.0677  0.2310  0.0349
  111MOL    C7426694   5.747   6.867   7.665 -0.2155  0.6841  0.4080
  111MOL    C7526695   5.772   6.712   7.697 -0.4767  0.2496  0.6202
  111MOL    C7626696   5.832   6.640   7.566 -0.0167  0.0028  0.7165
  111MOL    C7726697   5.892   6.706   0.025  0.9189  0.3048  0.2268
  111MOL    O7826698   5.878   6.665   0.143 -0.4577  0.5857 -0.1632
  111MOL    O7926699   6.009   6.752   7.739  0.5026 -0.3282 -0.2681
  111MOL    H8026700   5.712   6.879   7.563 -0.3410  0.2454  0.3986
  111MOL    H8126701   5.844   6.917   7.674  1.8131 -3.0518  0.4979
  111MOL    H8226702   5.761   6.627   7.484 -0.3054  0.1800  0.9375
  111MOL    H8326703   5.870   6.545   7.603 -0.7351  0.0124  1.4843
  111MOL    H8426704   5.905   6.709   7.523  0.5753 -0.5110  0.8901
  111MOL    H8526705   6.074   6.754   0.041 -1.1157 -4.2552  1.5791
  111MOL    C8626706   5.648   6.627   7.737 -0.7226 -0.0961  0.2241
  111MOL    C8726707   5.636   6.466   7.738 -0.0284 -0.0249 -0.8236
  111MOL    C8826708   5.636   6.395   7.596 -0.3882 -0.0357  0.1673
  111MOL    C8926709   5.761   6.403   0.052  0.3092 -0.1367  0.2152
  111MOL    O9026710   5.853   6.339   0.003 -0.2968 -0.4067 -0.3844
  111MOL    O9126711   5.738   6.425   0.184 -0.3693 -0.0541 -0.3841
  111MOL    H9226712   5.615   6.661   0.068  1.0790 -0.9223  1.1539
  111MOL    H9326713   5.574   6.650   7.661 -0.6370 -1.9125 -0.4504
  111MOL    H9426714   5.625   6.288   7.611 -0.0692 -0.0571  0.2493
  111MOL    H9526715   5.732   6.402   7.543  0.5182 -1.5995  1.5708
  111MOL    H9626716   5.553   6.423   7.531 -0.8346 -1.8765 -0.0630
  111MOL    H9726717   5.795   6.367   0.233 -2.2974 -1.2950  0.4543
  111MOL    C9826718   5.511   6.414   0.054 -0.3445 -0.4942 -0.6761
  111MOL    C9926719   5.353   6.430   0.017 -0.0428 -0.5395  0.2416
  111MOL   C10026720   5.322   6.579   7.747  0.2263 -0.1196  0.0919
  111MOL   C10126721   5.318   6.341   7.672 -0.9312  0.4987  0.0893
  111MOL   O10226722   5.261   6.373   7.571  0.1141  0.5267 -0.3674
  111MOL   O10326723   5.361   6.212   7.703  0.1397 -0.1395 -0.1497
  111MOL   H10426724   5.528   6.312   0.089 -2.3223 -1.0505 -1.2852
  111MOL   H10526725   5.503   6.476   0.143  0.2336  0.7518 -1.4717
  111MOL   H10626726   5.215   6.596   7.755 -0.0239 -0.8812 -1.4013
  111MOL   H10726727   5.363   6.608   7.650  0.6072 -1.3931 -0.1393
  111MOL   H10826728   5.364   6.647   0.054 -0.5033  0.8747 -0.3866
  111MOL   H10926729   5.340   6.148   7.636  1.5151  0.3084 -1.0101
  111MOL   C11026730   5.265   6.401   0.148 -0.6003  0.5024  0.2524
  111MOL   C11126731   5.109   6.369   0.149 -0.5584  0.2721 -0.6044
  111MOL   C11226732   5.012   6.456   0.070  0.7290 -0.0027  0.7186
  111MOL   C11326733   5.088   6.224   0.104  0.1163 -0.3228  0.4572
  111MOL   O11426734   5.157   6.132   0.144  0.4122 -0.1164 -0.0273
  111MOL   O11526735   4.973   6.198   0.039 -0.0009  0.5622  0.1380
  111MOL   H11626736   5.319   6.325   0.204  2.2260  0.8598 -1.8775
  111MOL   H11726737   5.281   6.489   0.211  1.9579 -0.3966  0.9328
  111MOL   H11826738   5.029   6.562   0.091  1.2378 -0.2212  1.4415
  111MOL   H11926739   4.907   6.440   0.093 -0.6324  3.4017 -2.5718
  111MOL   H12026740   5.032   6.431   7.733  0.3358  1.0096  0.3930
  111MOL   H12126741   4.959   6.105   0.037  1.3792  0.3516  0.4440
  111MOL   C12226742   5.056   6.366   0.303  0.0912  0.5435  0.5216
  111MOL   C12326743   5.033   6.501   0.384  0.3278 -0.0632 -0.2585
  111MOL   C12426744   5.154   6.592   0.393  0.3589 -0.4093 -0.0543
  111MOL   C12526745   4.916   6.583   0.325  0.7673  0.4471 -0.1380
  111MOL   O12626746   4.919   6.709   0.308  0.4258  0.1671 -0.6166
  111MOL   O12726747   4.805   6.506   0.299  0.8134 -0.5193  0.5075
  111MOL   H12826748   4.963   6.309   0.304 -0.2828  1.1179  2.3335
  111MOL   H12926749   5.131   6.301   0.348  0.0882  1.4327  1.8674
  111MOL   H13026750   5.166   6.662   0.310 -2.3262 -0.2081 -0.3004
  111MOL   H13126751   5.241   6.528   0.406  0.9994  0.3514 -0.5483
  111MOL   H13226752   5.162   6.657   0.480 -1.1389 -2.0158  1.3089
  111MOL   H13326753   4.727   6.559   0.291  0.5272 -1.0078 -0.0241
  111MOL   C13426754   5.000   6.444   0.530  0.4202  0.1797  0.1210
  111MOL   C13526755   4.915   6.518   0.648 -0.6267 -0.0454 -0.1068
  111MOL   C13626756   4.772   6.537   0.594  0.3206 -0.7361 -0.4342
  111MOL   C13726757   4.914   6.427   0.768  0.4587  0.1908 -0.0533
  111MOL   O13826758   4.820   6.351   0.796  0.2187  0.0305  0.5384
  111MOL   O13926759   5.040   6.409   0.817 -0.0153 -0.2198  0.0003
  111MOL   H14026760   4.947   6.349   0.537 -3.5321  2.3709  1.7269
  111MOL   H14126761   5.097   6.418   0.572 -0.0702  0.7498  1.6865
  111MOL   H14226762   4.751   6.454   0.526 -0.5673  0.8737 -2.1603
  111MOL   H14326763   4.754   6.633   0.547  0.6070 -0.9226 -0.9298
  111MOL   H14426764   4.682   6.542   0.656  0.7631  0.4709  0.1181
  111MOL   H14526765   5.095   6.486   0.807  2.4127 -1.9178 -0.3419
  111MOL   C14626766   4.982   6.656   0.675 -1.5063  0.0746 -0.3127
  111MOL   C14726767   4.954   6.747   0.800 -0.1771  0.2755 -1.3944
  111MOL   C14826768   4.802   6.755   0.828 -0.1709  0.3215  0.2981
  111MOL   C14926769   5.013   6.707   0.935 -0.7078  0.2340  1.3268
  111MOL   O15026770   4.961   6.715   1.042 -0.4851 -0.5589  0.6220
  111MOL   O15126771   5.134   6.644   0.926 -0.3960 -0.8202  0.2425
  111MOL   H15226772   5.089   6.638   0.676 -1.5474 -0.1712  0.4968
  111MOL   H15326773   4.969   6.724   0.591 -3.0568  1.3087  0.8875
  111MOL   H15426774   4.772   6.834   0.898 -0.9976 -0.1838  0.5215
  111MOL   H15526775   4.766   6.661   0.871  0.3634  0.0866  0.2355
  111MOL   H15626776   4.745   6.764   0.736  1.8005  2.0977 -0.7770
  111MOL   H15726777   5.167   6.643   1.015 -0.4315  3.8144  0.4583
  111MOL   C15826778   4.995   6.895   0.773 -0.3809  0.4730  0.1382
  111MOL   C15926779   5.138   6.952   0.725  0.0210  0.5479  0.1157
  111MOL   C16026780   5.259   6.890   0.799 -0.8001 -0.6888 -0.0824
  111MOL   C16126781   5.166   6.915   0.577 -0.5271 -0.1799 -1.0106
  111MOL   O16226782   5.277   6.872   0.543  0.2998 -0.4552  0.2894
  111MOL   O16326783   5.057   6.939   0.494  0.2882  0.0500  0.0532
  111MOL   H16426784   4.927   6.935   0.698  1.5249  0.5044 -1.6366
  111MOL   H16526785   4.967   6.949   0.863 -2.1323  1.4095 -0.9581
  111MOL   H16626786   5.264   6.908   0.907 -1.2245  1.2536 -0.3665
  111MOL   H16726787   5.355   6.927   0.764  0.0875 -0.9182  2.0156
  111MOL   H16826788   5.262   6.784   0.775  2.6626 -0.4147 -1.1322
  111MOL   H16926789   5.064   6.920   0.402  2.5434 -0.8160  0.3678
  111MOL   C17026790   5.128   7.110   0.742  0.6806 -0.0787  0.2259
  111MOL   C17126791   5.227   7.223   0.687 -0.0043 -0.3210 -0.0196
  111MOL   C17226792   5.168   7.360   0.734  0.4708  0.5347  0.6359
  111MOL   C17326793   5.360   7.209   0.763 -0.1257  0.0152  0.3272
  111MOL   O17426794   5.466   7.180   0.710  0.1091  0.2617 -0.0089
  111MOL   O17526795   5.348   7.227   0.901 -0.5257 -0.3172 -0.3277
  111MOL   H17626796   5.029   7.139   0.707  0.8572 -1.2405 -1.3226
  111MOL   H17726797   5.113   7.122   0.849 -1.8041  0.7690 -0.1796
  111MOL   H17826798   5.067   7.370   0.694  0.6722 -2.3177 -0.7997
  111MOL   H17926799   5.221   7.452   0.711  0.2111  0.8039  1.1184
  111MOL   H18026800   5.159   7.364   0.842 -0.0306 -2.0170  0.7267
  111MOL   H18126801   5.435   7.230   0.937  0.3865 -1.1228 -2.3945
  111MOL   C18226802   5.257   7.230   0.528  0.3747  0.2770 -0.0824
  111MOL   C18326803   5.171   7.293   0.412  0.0019 -0.2565  0.3048
  111MOL   C18426804   5.251   7.265   0.284  0.1894  0.3868 -0.0419
  111MOL   C18526805   5.041   7.211   0.394 -0.3263  0.1771  1.3803
  111MOL   O18626806   5.010   7.133   0.302  0.2013 -0.1737 -0.0672
  111MOL   O18726807   4.952   7.253   0.488  0.5624 -0.2883  0.5193
  111MOL   H18826808   5.356   7.271   0.510  0.8154 -0.3117  0.9488
  111MOL   H18926809   5.283   7.127   0.502  0.1853  0.6288 -1.6882
  111MOL   H19026810   5.350   7.312   0.285  0.6317 -0.4997 -0.7004
  111MOL   H19126811   5.202   7.313   0.200 -0.9183  2.1988  1.5971
  111MOL   H19226812   5.265   7.159   0.263 -1.0757  0.2503 -0.1955
  111MOL   H19326813   4.870   7.217   0.460  0.1834  1.1847 -0.3086
  111MOL   C19426814   5.160   7.449   0.424  0.5532 -0.3137  0.7970
  111MOL   C19526815   5.129   7.555   0.312  0.6003 -1.0463 -0.0296
  111MOL   C19626816   5.262   7.584   0.238  0.2112 -0.7129 -0.0350
  111MOL   C19726817   5.020   7.515   0.207  0.2724 -0.5412 -0.0521
  111MOL   O19826818   4.924   7.448   0.232  0.7440  0.0082 -0.0156
  111MOL   O19926819   5.044   7.575   0.085 -0.3653 -0.0189 -0.3278
  111MOL   H20026820   5.080   7.459   0.498 -1.3286  0.8949 -1.3076
  111MOL   H20126821   5.250   7.479   0.477  0.1603 -0.3093  1.4699
  111MOL   H20226822   5.295   7.508   0.167 -1.1487 -0.6659 -0.7304
  111MOL   H20326823   5.334   7.596   0.320  1.5544 -0.0470 -1.2769
  111MOL   H20426824   5.254   7.669   0.170  0.5994 -0.1415  0.6306
  111MOL   H20526825   4.987   7.521   0.032 -0.0991  0.9538 -1.6272
  111MOL   C20626826   5.090   7.701   0.372 -0.9330  0.4040 -0.2022
  111MOL   C20726827   4.981   7.738   0.485  0.4658 -1.1787 -0.1310
  111MOL   C20826828   4.856   7.666   0.436  0.0478  0.5600 -0.7045
  111MOL   C20926829   5.030   7.688   0.625  0.2458 -0.8514  0.8346
  111MOL   O21026830   4.962   7.620   0.693 -0.8544  0.4092 -0.2945
  111MOL   O21126831   5.153   7.732   0.656 -0.0777  0.8871  0.1196
  111MOL   H21226832   5.177   7.763   0.394 -0.0152 -1.6554  2.2009
  111MOL   H21326833   5.052   7.756   0.286 -0.2474  0.5196 -0.4346
  111MOL   H21426834   4.863   7.558   0.446 -2.0047  0.6736  2.3789
  111MOL   H21526835   4.833   7.699   0.335 -3.3160  2.2706  0.5547
  111MOL   H21626836   4.778   7.692   0.508  1.5772  1.3992  0.6860
  111MOL   H21726837   5.174   7.703   0.743  0.2604 -0.1229 -0.2887
  111MOL   C21826838   4.955   0.128   0.497 -0.5190  1.2632 -0.4473
  111MOL   C21926839   4.896   0.206   0.622 -0.0302  0.3199  0.5042
  111MOL   C22026840   5.008   0.211   0.737  0.9641 -0.1465  0.3280
  111MOL   C22126841   4.857   0.350   0.574 -0.3592 -0.0186  0.0722
  111MOL   O22226842   4.745   0.373   0.535  0.1147 -0.5162  0.1113
  111MOL   O22326843   4.961   0.439   0.571  0.4465 -0.2762 -0.0913
  111MOL   H22426844   5.047   0.183   0.477  1.3042 -1.8913 -1.1464
  111MOL   H22526845   4.888   0.150   0.413 -0.7259 -2.2798 -1.2943
  111MOL   H22626846   4.982   0.287   0.811  0.9244  0.7102 -0.5472
  111MOL   H22726847   5.107   0.233   0.697  1.1250 -0.2821  0.6582
  111MOL   H22826848   5.018   0.117   0.791  1.0215 -1.3547 -1.7379
  111MOL   H22926849   4.925   0.521   0.541 -0.6954 -0.2655  1.2424
  111MOL   C23026850   4.768   0.137   0.674  0.3976  0.5941 -0.1012
  111MOL   C23126851   4.676   0.194   0.784 -0.5235 -0.1071 -0.6635
  111MOL   C23226852   4.548   0.119   0.798 -0.1035 -0.5264  0.0253
  111MOL   C23326853   4.755   0.206   0.915  0.0520 -0.3383 -0.5097
  111MOL   O23426854   4.802   0.107   0.973 -0.5408 -0.6738  0.0838
  111MOL   O23526855   4.777   0.340   0.949 -0.2491  0.3689  0.0007
  111MOL   H23626856   4.701   0.113   0.591  0.7687 -1.9051  0.2708
  111MOL   H23726857   4.788   0.035   0.707 -0.0737  0.3317 -0.6049
  111MOL   H23826858   4.559   0.013   0.819 -1.4587 -0.9190 -1.1963
  111MOL   H23926859   4.484   0.128   0.710  0.7493  1.2986 -0.4348
  111MOL   H24026860   4.499   0.162   0.886  1.7185  2.0719 -0.1544
  111MOL   H24126861   4.825   0.347   1.030  1.5499 -2.1712 -0.7962
  111MOL   H24226862   4.646   0.295   0.757  1.1745  0.6720  0.2759
  112MOL     C126863   4.731   6.833   3.356  0.1353  0.3742 -0.3470
  112MOL     C226864   4.630   6.868   3.463  0.6062 -0.4332  0.5991
  112MOL     C326865   4.525   6.948   3.384 -0.1103 -0.8190 -0.0051
  112MOL     C426866   4.557   6.736   3.516 -0.7750 -0.2764  0.7986
  112MOL     O526867   4.541   6.637   3.447  0.0388 -0.0015  0.5761
  112MOL     O626868   4.515   6.749   3.645  0.6084 -0.0016 -0.0965
  112MOL     H726869   4.810   6.776   3.406 -0.0550  3.1300  3.2811
  112MOL     H826870   4.786   6.923   3.329 -0.1620  1.8023  3.4587
  112MOL     H926871   4.474   6.896   3.304 -2.0013  1.0163 -0.0432
  112MOL    H1026872   4.574   7.033   3.336  1.1442 -2.9787 -2.6339
  112MOL    H1126873   4.453   6.989   3.456  0.2659 -1.9399  1.0308
  112MOL    H1226874   4.484   6.665   3.673 -2.1146  1.0666  0.2311
  112MOL    H1326875   4.679   6.781   3.276  0.4626  2.1014 -1.7087
  112MOL    C1426876   4.678   6.964   3.577 -0.2722  0.4440 -0.1330
  112MOL    C1526877   4.814   6.936   3.653  0.9345 -0.0729 -0.6092
  112MOL    C1626878   4.805   6.801   3.721  0.1193  0.2860  0.4250
  112MOL    C1726879   4.932   6.937   3.556 -0.7406 -0.3350 -0.0634
  112MOL    O1826880   5.004   6.840   3.523  0.3044  0.2264  0.1885
  112MOL    O1926881   4.940   7.061   3.500  0.1811  0.2254  0.3427
  112MOL    H2026882   4.667   7.066   3.541  0.0154 -0.3938 -2.7184
  112MOL    H2126883   4.600   6.962   3.652 -0.4156 -0.9022 -0.3020
  112MOL    H2226884   4.736   6.802   3.805 -0.4295 -0.3244 -0.0136
  112MOL    H2326885   4.905   6.779   3.761 -0.1456  0.1417  1.0137
  112MOL    H2426886   4.782   6.716   3.657 -1.4843  0.4296  0.8123
  112MOL    H2526887   5.002   7.054   3.429 -0.9718  1.9289 -0.8454
  112MOL    C2626888   4.816   7.057   3.754  0.1031 -0.1125 -0.4391
  112MOL    C2726889   4.932   7.075   3.862 -0.6065 -0.2287  0.0492
  112MOL    C2826890   4.890   7.205   3.935  0.1663  0.3282 -0.2436
  112MOL    C2926891   4.937   6.967   3.977 -0.3245  0.2230  0.1739
  112MOL    O3026892   5.000   6.862   3.975  0.4540 -0.0670 -0.5306
  112MOL    O3126893   4.843   6.990   4.076 -0.0857 -0.0766 -0.6824
  112MOL    H3226894   4.825   7.148   3.696  1.0345 -0.6597 -1.1685
  112MOL    H3326895   4.718   7.054   3.802 -1.3346  0.2232 -3.2557
  112MOL    H3426896   4.933   7.211   4.035 -1.4617 -1.3020  0.5844
  112MOL    H3526897   4.784   7.223   3.946  0.2309 -0.8258  2.9475
  112MOL    H3626898   4.919   7.299   3.888 -1.1541  0.3026 -1.1289
  112MOL    H3726899   4.788   7.064   4.060  0.8563  0.8312  0.1792
  112MOL    C3826900   5.077   7.092   3.789 -0.1775  0.6206  0.3425
  112MOL    C3926901   5.211   7.146   3.862  0.0347  0.1861  0.2798
  112MOL    C4026902   5.245   7.054   3.979 -0.4424  0.2413  0.2480
  112MOL    C4126903   5.320   7.135   3.750 -0.4548 -0.1492 -0.7090
  112MOL    O4226904   5.300   7.167   3.633  0.5170  0.3960  0.5826
  112MOL    O4326905   5.446   7.091   3.797  0.0031 -0.3050 -0.1357
  112MOL    H4426906   5.112   6.996   3.750 -1.1763  1.1762 -1.9816
  112MOL    H4526907   5.066   7.163   3.708  0.3598  2.0535  1.5080
  112MOL    H4626908   5.343   7.069   4.024 -1.1378 -2.4411  2.8367
  112MOL    H4726909   5.239   6.950   3.945 -0.8839  0.5782 -0.7292
  112MOL    H4826910   5.174   7.069   4.060 -0.8300  1.3681 -0.2955
  112MOL    H4926911   5.504   7.077   3.724  0.5972  1.9574 -0.1221
  112MOL    C5026912   5.193   7.295   3.918  0.3654  0.6030  0.1812
  112MOL    C5126913   5.314   7.386   3.957 -0.5379 -0.0735 -0.2173
  112MOL    C5226914   5.387   7.420   3.825 -0.4149  0.0825 -0.5123
  112MOL    C5326915   5.246   7.516   4.012 -0.7170 -0.3847  1.1408
  112MOL    O5426916   5.248   7.626   3.953  0.0515 -0.2152  0.1508
  112MOL    O5526917   5.166   7.489   4.116  0.0210 -0.3044 -0.0346
  112MOL    H5626918   5.140   7.349   3.839  1.6533  1.1994 -0.2973
  112MOL    H5726919   5.123   7.283   4.000  0.1654  1.6558  0.1720
  112MOL    H5826920   5.463   7.345   3.805 -0.7107 -0.5163  0.6042
  112MOL    H5926921   5.431   7.520   3.837  0.7156 -0.6793  1.9430
  112MOL    H6026922   5.324   7.421   3.736  1.8124 -1.2556 -2.1626
  112MOL    H6126923   5.130   7.572   4.144  1.6015  0.7706 -1.0292
  112MOL    C6226924   5.423   7.321   4.054 -0.0840  0.3224 -0.2744
  112MOL    C6326925   5.517   7.402   4.153 -0.2236  0.8061 -0.1028
  112MOL    C6426926   5.565   7.527   4.082  0.7731 -0.0281  0.6265
  112MOL    C6526927   5.437   7.440   4.281 -0.0383 -0.3491  0.5754
  112MOL    O6626928   5.480   7.533   4.351  0.4943 -0.7142  0.4701
  112MOL    O6726929   5.326   7.375   4.308 -0.8014  0.3086  0.0474
  112MOL    H6826930   5.378   7.245   4.118  0.3866 -0.2508 -0.6206
  112MOL    H6926931   5.488   7.260   3.991 -0.8585  1.9212 -2.7139
  112MOL    H7026932   5.652   7.573   4.129  0.1780  0.4070  1.3225
  112MOL    H7126933   5.496   7.610   4.095  0.6033  0.0101 -0.4999
  112MOL    H7226934   5.589   7.513   3.977  2.5215  0.6447  0.9166
  112MOL    H7326935   5.280   7.394   4.388 -1.1840  0.8684 -0.3004
  112MOL    C7426936   5.648   7.330   4.198  0.4054  0.0594 -0.0143
  112MOL    C7526937   5.668   7.215   4.301 -0.5580 -0.1743 -0.0881
  112MOL    C7626938   5.563   7.109   4.287  0.6509  0.5450 -0.2069
  112MOL    C7726939   5.813   7.158   4.256 -0.2296 -0.1774  0.6304
  112MOL    O7826940   5.920   7.219   4.275  0.2978 -0.2503 -0.4629
  112MOL    O7926941   5.803   7.037   4.194 -0.2161  0.2461  0.0583
  112MOL    H8026942   5.707   7.324   4.107 -1.3454 -0.4944 -1.1417
  112MOL    H8126943   5.700   7.410   4.250 -1.2008  1.0977  0.0181
  112MOL    H8226944   5.556   7.080   4.182  0.1278 -1.6241  0.4002
  112MOL    H8326945   5.468   7.144   4.328  0.3153 -0.5583 -0.0229
  112MOL    H8426946   5.596   7.017   4.336 -0.0516  0.1516 -0.4587
  112MOL    H8526947   5.717   6.999   4.203 -2.1021  3.9193 -1.3422
  112MOL    C8626948   5.683   7.277   4.448  0.0755  0.3564 -0.2506
  112MOL    C8726949   5.711   7.197   4.577 -0.2198 -0.2111 -0.1305
  112MOL    C8826950   5.587   7.117   4.619 -0.7512  0.1112 -0.1700
  112MOL    C8926951   5.818   7.091   4.558 -0.2177 -0.2395  0.3708
  112MOL    O9026952   5.806   6.969   4.574  0.0725  0.3051 -0.7487
  112MOL    O9126953   5.942   7.142   4.534 -0.0723 -0.0801 -0.0659
  112MOL    H9226954   5.763   7.352   4.444  0.0113  0.4599  0.3369
  112MOL    H9326955   5.601   7.348   4.460  1.7826  2.3932 -0.1394
  112MOL    H9426956   5.600   7.065   4.713 -2.3050  2.5648  1.4453
  112MOL    H9526957   5.544   7.046   4.548 -0.7093 -0.4744  0.3826
  112MOL    H9626958   5.507   7.191   4.625  2.0735  3.0838  1.9823
  112MOL    H9726959   5.946   7.237   4.538  0.8617 -0.0427 -1.4120
  112MOL    C9826960   5.758   7.296   4.686 -0.2777 -0.1754 -0.0234
  112MOL    C9926961   5.672   7.398   4.771  0.6086  0.4115 -0.2367
  112MOL   C10026962   5.619   7.523   4.684  0.2688  0.6708 -0.4062
  112MOL   C10126963   5.551   7.328   4.838  0.4177  0.3904  0.6584
  112MOL   O10226964   5.429   7.369   4.827 -0.2798  0.1707 -0.3202
  112MOL   O10326965   5.594   7.226   4.920 -0.3001 -0.0893 -0.3724
  112MOL   H10426966   5.810   7.234   4.760 -2.4340  0.1511  1.8268
  112MOL   H10526967   5.836   7.348   4.631 -0.0337 -0.5900 -0.0767
  112MOL   H10626968   5.556   7.489   4.602  0.6178 -1.8280  0.3331
  112MOL   H10726969   5.707   7.566   4.636  0.4244 -1.2808 -1.9255
  112MOL   H10826970   5.562   7.595   4.743 -0.1916  0.4587 -0.5918
  112MOL   H10926971   5.521   7.193   4.970  1.6333 -0.2499  2.3976
  112MOL   C11026972   5.775   7.447   4.885  1.4698  0.6701  0.2325
  112MOL   C11126973   5.762   7.582   4.966 -0.5868  0.0971 -0.1763
  112MOL   C11226974   5.893   7.576   5.056  0.4947  0.3286 -0.1117
  112MOL   C11326975   5.767   7.708   4.884 -0.8058  0.6387  0.2074
  112MOL   O11426976   5.694   0.037   4.902 -0.1258  0.2326 -0.0246
  112MOL   O11526977   5.865   7.701   4.792  0.2194  0.7668  0.3041
  112MOL   H11626978   5.794   7.366   4.955 -0.1884  1.0629  1.1391
  112MOL   H11726979   5.871   7.466   4.836  1.7540  1.5114  1.1041
  112MOL   H11826980   5.879   7.529   5.153  1.1850 -1.8185 -0.9952
  112MOL   H11926981   5.946   7.668   5.078  0.4961  0.3028 -0.0052
  112MOL   H12026982   5.974   7.516   5.013 -0.2460 -1.7668  1.3468
  112MOL   H12126983   5.872   0.013   4.741 -1.8103  1.3584  0.8700
  112MOL   C12226984   5.641   7.571   5.067  0.6439  0.3684  0.1566
  112MOL   C12326985   5.591   7.673   5.176 -1.1709  0.1418  0.1763
  112MOL   C12426986   5.708   7.738   5.253 -0.4188 -0.3134 -0.2057
  112MOL   C12526987   5.503   0.018   5.106 -0.4024  0.1610  0.2156
  112MOL   O12626988   5.516   0.138   5.128 -0.5119 -0.6411 -0.4555
  112MOL   O12726989   5.406   7.733   5.025 -0.1786  0.5143  0.4975
  112MOL   H12826990   5.554   7.553   5.004  0.7249 -3.0467  0.9517
  112MOL   H12926991   5.656   7.476   5.117 -2.5708  0.5063  1.4936
  112MOL   H13026992   5.784   7.667   5.284 -2.2057 -2.7086 -1.0869
  112MOL   H13126993   5.661   0.022   5.337  1.1077  0.0387  0.4514
  112MOL   H13226994   5.759   0.052   5.202 -2.3620  0.3765 -1.0910
  112MOL   H13326995   5.348   0.031   4.988  0.6373  0.6364 -0.6204
  112MOL   C13426996   5.516   7.589   5.286  0.0795  0.4587  0.4541
  112MOL   C13526997   5.388   7.501   5.283  0.2128  0.2137  0.0984
  112MOL   C13626998   5.261   7.585   5.265 -0.0266  0.2145 -0.8180
  112MOL   C13726999   5.396   7.393   5.170  0.2219 -0.3272  0.4065
  112MOL   O13827000   5.477   7.304   5.163 -0.3823  0.9396  0.2046
  112MOL   O13927001   5.284   7.392   5.082  0.0798  0.8965  0.0012
  112MOL   H14027002   5.588   7.515   5.321  1.1031  0.9785 -0.5096
  112MOL   H14127003   5.506   7.651   5.375  0.2850  0.3563  0.5480
  112MOL   H14227004   5.260   7.657   5.347 -1.5142  1.1075 -1.6059
  112MOL   H14327005   5.163   7.540   5.285  0.3900  0.3681  1.7540
  112MOL   H14427006   5.259   7.634   5.168 -1.0311 -0.8612 -1.3518
  112MOL   H14527007   5.287   7.308   5.040 -0.2381  1.7820 -1.8711
  112MOL   C14627008   5.376   7.424   5.422 -0.6076  0.5569  0.3794
  112MOL   C14727009   5.252   7.352   5.489  0.2497  0.0141  0.3082
  112MOL   C14827010   5.305   7.267   5.602  0.1833  0.1256 -1.0033
  112MOL   C14927011   5.154   7.460   5.544 -0.2291 -0.1362 -0.6284
  112MOL   O15027012   5.045   7.479   5.507 -0.2038 -0.0738  0.4640
  112MOL   O15127013   5.207   7.545   5.630 -0.5240  0.6120  0.0975
  112MOL   H15227014   5.457   7.351   5.419 -0.8221  0.3314 -0.0535
  112MOL   H15327015   5.422   7.486   5.499 -0.9388 -1.6172  2.3911
  112MOL   H15427016   5.359   7.176   5.579  2.0598  0.3476  2.1952
  112MOL   H15527017   5.218   7.241   5.664 -1.0658  2.3881 -1.7391
  112MOL   H15627018   5.366   7.329   5.667  1.0306 -1.0420 -0.6826
  112MOL   H15727019   5.133   7.593   5.664 -0.4006  1.5725 -0.9284
  112MOL   C15827020   5.187   7.251   5.387 -0.0869 -0.4134  0.0674
  112MOL   C15927021   5.083   7.138   5.412  0.0538  0.2667  0.0825
  112MOL   C16027022   5.154   7.029   5.495 -0.5620 -0.7883  0.1439
  112MOL   C16127023   4.936   7.163   5.478  0.5266  0.0739 -0.0171
  112MOL   O16227024   4.888   7.112   5.574  0.5350  1.2880 -0.2177
  112MOL   O16327025   4.863   7.261   5.417  0.0862  0.1957  0.8132
  112MOL   H16427026   5.155   7.318   5.307  1.4682  0.5128  0.2034
  112MOL   H16527027   5.272   7.199   5.342  0.0022 -0.7194  0.5864
  112MOL   H16627028   5.250   6.987   5.464  0.8486  0.3030  2.8628
  112MOL   H16727029   5.084   6.946   5.502  1.3505 -2.4606  0.2203
  112MOL   H16827030   5.163   7.045   5.602 -0.0686 -1.2542  0.1807
  112MOL   H16927031   4.904   7.315   5.351  0.9843 -0.7446  0.5760
  112MOL   C17027032   5.064   7.083   5.264 -0.2523  0.2498  0.3959
  112MOL   C17127033   4.968   6.972   5.214 -0.1280 -0.0397 -0.0326
  112MOL   C17227034   4.968   6.843   5.299  0.6479  0.4579  0.1073
  112MOL   C17327035   4.822   7.020   5.194 -0.4734 -0.0827  0.1863
  112MOL   O17427036   4.725   6.950   5.222  0.4218 -0.2257  0.3608
  112MOL   O17527037   4.824   7.145   5.140 -0.0703  0.1608 -0.9088
  112MOL   H17627038   5.059   7.175   5.206 -0.5342  0.9444  1.4966
  112MOL   H17727039   5.164   7.043   5.247 -1.5375 -2.4906 -0.9885
  112MOL   H17827040   4.909   6.855   5.390  0.9586  0.2526  0.3369
  112MOL   H17927041   5.069   6.813   5.327  0.2433 -2.1784 -1.1376
  112MOL   H18027042   4.936   6.755   5.244 -0.3147  0.3593  0.8223
  112MOL   H18127043   4.739   7.182   5.119 -1.0452 -2.2900 -1.4818
  112MOL   C18227044   5.011   6.925   5.067  0.2019  0.1057 -0.1177
  112MOL   C18327045   5.090   6.996   4.950  0.1338 -1.1332 -0.9365
  112MOL   C18427046   5.045   7.135   4.920 -0.0446  0.6370  0.2116
  112MOL   C18527047   5.247   7.002   4.984 -0.4888 -0.1467 -0.1111
  112MOL   O18627048   5.310   7.108   4.993  0.0690  0.5903  0.3161
  112MOL   O18727049   5.307   6.881   5.001  0.3728  0.1364 -0.8902
  112MOL   H18827050   5.070   6.837   5.095 -0.9701 -0.2221  1.4120
  112MOL   H18927051   4.922   6.869   5.039 -0.4009  0.8778  0.2356
  112MOL   H19027052   5.085   7.159   4.821  2.4228  1.1862  1.3079
  112MOL   H19127053   5.092   7.204   4.989  0.5000 -0.8660  1.3751
  112MOL   H19227054   4.937   7.150   4.922  0.0024  1.1984 -0.8223
  112MOL   H19327055   5.395   6.910   5.022 -0.0059  1.9836 -1.7418
  112MOL   C19427056   5.078   6.891   4.828 -0.8145  0.4681 -0.6448
  112MOL   C19527057   4.966   6.899   4.719  0.5369  0.6422 -0.3809
  112MOL   C19627058   5.002   6.780   4.619 -0.3139 -0.2694 -0.0005
  112MOL   C19727059   4.824   6.858   4.769 -0.0652 -0.2928  0.1035
  112MOL   O19827060   4.757   6.752   4.750 -0.0703  0.5093 -0.0422
  112MOL   O19927061   4.766   6.962   4.837  0.0760  0.0134  0.1100
  112MOL   H20027062   5.171   6.871   4.774 -0.9623 -2.3055  0.0287
  112MOL   H20127063   5.063   6.797   4.881 -1.3396  0.8558 -0.1077
  112MOL   H20227064   5.033   6.695   4.679  2.8064  0.2169 -0.8468
  112MOL   H20327065   5.082   6.803   4.548 -0.3378 -0.5716 -0.1265
  112MOL   H20427066   4.914   6.748   4.562  0.0972 -0.8035 -0.3401
  112MOL   H20527067   4.679   6.931   4.857 -0.1736  1.7006  1.8206
  112MOL   C20627068   4.948   7.031   4.635 -0.4358  0.0564 -0.6915
  112MOL   C20727069   5.054   7.089   4.531  0.3167 -0.3855 -0.0421
  112MOL   C20827070   5.202   7.080   4.580  0.5418  0.0712  0.5634
  112MOL   C20927071   5.052   7.026   4.385  0.3999 -0.0265 -0.3978
  112MOL   O21027072   5.132   7.064   4.297  0.1970  0.4261 -0.2324
  112MOL   O21127073   4.956   6.940   4.364  0.2400 -0.3656  1.1561
  112MOL   H21227074   4.856   7.019   4.576 -0.5770 -1.3075 -0.2301
  112MOL   H21327075   4.915   7.101   4.711 -1.9737 -0.9411 -0.3976
  112MOL   H21427076   5.224   6.975   4.597  1.1389  0.3091  1.2996
  112MOL   H21527077   5.232   7.147   4.660 -1.8226  0.2239  1.3756
  112MOL   H21627078   5.265   7.112   4.497  1.5735  0.1547  1.3793
  112MOL   H21727079   4.955   6.893   4.282  1.9897 -0.1362  0.9855
  112MOL   C21827080   5.031   7.245   4.518 -0.5356 -0.2427 -0.3549
  112MOL   C21927081   4.901   7.314   4.464  0.2962  0.4558 -0.0558
  112MOL   C22027082   4.906   7.310   4.309  0.4361  0.3889  0.0013
  112MOL   C22127083   4.767   7.252   4.513  0.0790  0.0573  0.5976
  112MOL   O22227084   4.679   7.211   4.441  0.4012  0.1511  0.4876
  112MOL   O22327085   4.766   7.262   4.646  0.1790 -0.2024 -0.1498
  112MOL   H22427086   5.035   7.279   4.621  0.7952  0.4460 -0.6330
  112MOL   H22527087   5.117   7.292   4.472 -2.5345  2.6497 -1.3092
  112MOL   H22627088   4.905   7.208   4.272  0.8850  0.4332 -0.1331
  112MOL   H22727089   4.994   7.354   4.261  0.4133  1.7773  1.1871
  112MOL   H22827090   4.822   7.355   4.256 -0.0152 -0.5146 -0.0488
  112MOL   H22927091   4.682   7.227   4.671 -0.8296  1.6514 -0.8454
  112MOL   C23027092   4.898   7.464   4.509 -0.5278  0.1648 -0.0762
  112MOL   C23127093   5.011   7.566   4.470  0.1378  0.3825 -0.3071
  112MOL   C23227094   4.959   7.703   4.461 -0.6007 -0.4162 -0.1000
  112MOL   C23327095   5.120   7.554   4.578 -0.5839 -0.1724  0.8816
  112MOL   O23427096   5.238   7.524   4.555 -0.2621  0.4297 -0.1407
  112MOL   O23527097   5.083   7.579   4.706  0.3990 -0.0723 -0.1369
  112MOL   H23627098   4.811   7.506   4.458  0.4788  1.2696 -0.9242
  112MOL   H23727099   4.870   7.475   4.614 -1.5513 -0.7528 -0.2473
  112MOL   H23827100   4.926   7.748   4.554  2.8844 -0.1993  1.0963
  112MOL   H23927101   4.891   7.717   4.377 -0.0180 -0.4561 -0.5827
  112MOL   H24027102   5.037   0.005   4.431 -1.3485  0.3061 -0.4134
  112MOL   H24127103   5.150   7.574   4.773 -0.7654  0.6828  1.0997
  112MOL   H24227104   5.061   7.534   4.378 -1.7574 -0.7405 -0.9765
  113MOL     C127105   7.023   0.173   3.111  0.0828 -0.2187 -0.0211
  113MOL     C227106   6.918   0.173   3.223 -0.5359  0.5275  0.5021
  113MOL     C327107   6.917   0.034   3.275 -0.0557  0.1437 -0.2456
  113MOL     C427108   6.972   0.263   3.329 -1.1846 -0.0295  0.2339
  113MOL     O527109   6.984   0.240   3.450  0.2851  0.1724 -0.1435
  113MOL     O627110   7.017   0.380   3.275 -0.1775  0.1417  0.0191
  113MOL     H727111   7.121   0.137   3.141 -0.6750 -2.4731 -0.2133
  113MOL     H827112   7.030   0.268   3.057  0.4319  0.9086  1.9520
  113MOL     H927113   6.880   7.723   3.209  0.3848 -0.1967 -0.0853
  113MOL    H1027114   6.864   0.019   3.369 -1.3011 -0.0870 -0.9729
  113MOL    H1127115   7.019   0.002   3.292 -0.2904 -0.3491  0.2706
  113MOL    H1227116   7.007   0.372   3.182 -0.9215 -1.6024  0.2259
  113MOL    H1327117   7.002   0.103   3.031  0.9819  0.3641 -0.7747
  113MOL    C1427118   6.782   0.236   3.182 -0.0645 -0.3962 -0.8866
  113MOL    C1527119   6.692   0.193   3.061 -0.4688 -0.0340  0.5348
  113MOL    C1627120   6.752   0.249   2.927  0.0459 -0.6403  0.4610
  113MOL    C1727121   6.675   0.040   3.047 -0.4137 -0.5103  0.5769
  113MOL    O1827122   6.688   7.746   2.944  0.1698 -0.9343 -0.0393
  113MOL    O1927123   6.629   7.749   3.160 -0.2367 -0.3840 -0.0142
  113MOL    H2027124   6.717   0.215   3.266 -1.2314  1.4746 -1.3101
  113MOL    H2127125   6.794   0.344   3.177  1.5080 -0.5298 -0.4129
  113MOL    H2227126   6.671   0.254   2.854 -1.4885 -2.0545  1.9949
  113MOL    H2327127   6.823   0.175   2.891 -2.4945 -3.3543  0.8363
  113MOL    H2427128   6.788   0.352   2.931  0.2730 -0.6225 -1.5616
  113MOL    H2527129   6.628   7.655   3.150 -4.5309 -0.5319  0.5860
  113MOL    C2627130   6.551   0.273   3.066 -0.4688  0.6471 -0.1996
  113MOL    C2727131   6.455   0.295   3.189 -0.6026 -0.1546 -0.2983
  113MOL    C2827132   6.447   0.158   3.264  0.5107 -0.1004 -0.9415
  113MOL    C2927133   6.509   0.404   3.282 -0.8555 -0.1732  0.0202
  113MOL    O3027134   6.589   0.489   3.245 -0.5879  0.3258 -0.0970
  113MOL    O3127135   6.457   0.397   3.406 -0.4676  0.1671 -0.3621
  113MOL    H3227136   6.557   0.371   3.019 -2.8391 -0.7714 -3.7792
  113MOL    H3327137   6.483   0.213   3.005 -0.7692  0.6927  0.0925
  113MOL    H3427138   6.372   0.163   3.342 -1.8588 -1.6286 -3.0625
  113MOL    H3527139   6.533   0.132   3.326  0.2727 -1.9466 -1.3697
  113MOL    H3627140   6.415   0.075   3.201 -0.7583 -1.8391  1.9372
  113MOL    H3727141   6.480   0.470   3.461  0.6537 -0.0937 -0.4680
  113MOL    C3827142   6.303   0.335   3.149 -0.0502  0.0095  0.4140
  113MOL    C3927143   6.272   0.449   3.041 -0.3510 -0.1555 -0.2519
  113MOL    C4027144   6.346   0.588   3.061 -0.5308  0.1645  0.3720
  113MOL    C4127145   6.312   0.393   2.902 -0.3144 -1.2205 -0.1853
  113MOL    O4227146   6.398   0.446   2.830 -0.5352 -0.1729 -0.0265
  113MOL    O4327147   6.254   0.278   2.870 -0.0956  0.0263 -0.6124
  113MOL    H4427148   6.246   0.242   3.138  0.4854 -0.2221 -0.4693
  113MOL    H4527149   6.259   0.368   3.242 -0.0892 -0.5607  0.6042
  113MOL    H4627150   6.317   0.664   2.988  0.0508  1.0630  1.0645
  113MOL    H4727151   6.454   0.574   3.053 -0.6382  0.8388 -3.0916
  113MOL    H4827152   6.323   0.631   3.158 -0.2400  0.1496  0.4485
  113MOL    H4927153   6.282   0.236   2.791 -1.7738 -0.4732 -0.9758
  113MOL    C5027154   6.116   0.474   3.045 -0.1376  0.0400  0.1814
  113MOL    C5127155   6.023   0.511   2.917  0.1014 -0.4740 -0.2475
  113MOL    C5227156   6.090   0.609   2.812  1.3018 -0.9607  0.1965
  113MOL    C5327157   5.973   0.390   2.834 -0.4621 -0.3749 -0.3294
  113MOL    O5427158   5.941   0.395   2.715  0.1078  0.5820  0.1359
  113MOL    O5527159   5.948   0.276   2.910  0.0762 -0.1625 -0.2605
  113MOL    H5627160   6.079   0.379   3.084  2.3713 -1.2143 -0.3756
  113MOL    H5727161   6.099   0.542   3.128  1.4879  1.0280 -0.2662
  113MOL    H5827162   6.019   0.665   2.750  1.1732 -0.4785  0.7658
  113MOL    H5927163   6.173   0.573   2.752  1.1070  1.4059 -1.5963
  113MOL    H6027164   6.141   0.693   2.859  1.4969  0.3018 -2.2110
  113MOL    H6127165   5.893   0.222   2.856  0.7114 -2.3507  1.2235
  113MOL    C6227166   5.891   0.576   2.979 -0.0748 -0.3039  0.3721
  113MOL    C6327167   5.887   0.726   3.039 -0.0264 -0.1895 -1.1030
  113MOL    C6427168   6.017   0.782   3.102  0.3424  0.0291 -0.3512
  113MOL    C6527169   5.846   0.822   2.917  0.0076  0.5607 -0.0103
  113MOL    O6627170   5.934   0.877   2.851 -0.2953 -0.3921  0.3167
  113MOL    O6727171   5.713   0.841   2.899 -0.3998 -0.2492 -0.1393
  113MOL    H6827172   5.808   0.568   2.909 -2.5291 -0.7566  3.2090
  113MOL    H6927173   5.864   0.498   3.050 -0.2975  0.2317  0.8838
  113MOL    H7027174   6.108   0.765   3.044 -0.6991 -0.1159 -1.9460
  113MOL    H7127175   6.041   0.730   3.195  0.1048  1.0314  0.2853
  113MOL    H7227176   6.018   0.887   3.133  2.3862 -0.0430 -0.0388
  113MOL    H7327177   5.696   0.897   2.825 -0.0438 -1.4780 -1.1745
  113MOL    C7427178   5.784   0.753   3.156  0.5227 -1.0574 -0.5740
  113MOL    C7527179   5.670   0.647   3.206 -0.3246 -0.5179  0.0890
  113MOL    C7627180   5.572   0.620   3.088 -0.0280 -0.0968  1.2312
  113MOL    C7727181   5.738   0.516   3.265  0.6792 -0.5102  0.1828
  113MOL    O7827182   5.849   0.515   3.322  0.3796  0.0145  0.4056
  113MOL    O7927183   5.651   0.412   3.267 -0.0648 -0.1090 -0.1311
  113MOL    H8027184   5.837   0.758   3.251 -1.0999 -1.6690  0.3861
  113MOL    H8127185   5.736   0.848   3.131  1.1014  0.3412  3.2834
  113MOL    H8227186   5.615   0.583   2.994 -0.3066 -0.3524  1.2045
  113MOL    H8327187   5.532   0.715   3.055 -0.6661 -1.3329 -1.7191
  113MOL    H8427188   5.493   0.548   3.109 -0.8243 -0.6355 -3.0818
  113MOL    H8527189   5.683   0.336   3.312  2.0105 -0.4157 -2.0330
  113MOL    C8627190   5.586   0.732   3.316  0.0697 -0.1898 -0.2984
  113MOL    C8727191   5.522   0.670   3.448 -0.4200 -0.2581 -0.1902
  113MOL    C8827192   5.402   0.582   3.409  0.1594 -0.1723  0.4671
  113MOL    C8927193   5.618   0.593   3.543 -0.1830  0.2765  0.4659
  113MOL    O9027194   5.603   0.481   3.592 -0.7990 -0.2312  0.1045
  113MOL    O9127195   5.720   0.669   3.575  0.2448 -0.3922  0.1744
  113MOL    H9227196   5.650   0.814   3.348  0.2237 -0.8576  1.1728
  113MOL    H9327197   5.502   0.779   3.265 -0.0343  0.4640  0.4794
  113MOL    H9427198   5.332   0.648   3.358 -0.0874 -0.0839  0.9220
  113MOL    H9527199   5.358   0.520   3.486 -0.9208 -0.0442 -0.0476
  113MOL    H9627200   5.434   0.513   3.331 -3.0076  0.5754 -1.5831
  113MOL    H9727201   5.790   0.630   3.624  0.3114 -2.3767 -1.4326
  113MOL    C9827202   5.457   0.781   3.526 -0.2738 -0.0220 -0.7371
  113MOL    C9927203   5.403   0.779   3.678 -0.1489 -0.6891  0.4150
  113MOL   C10027204   5.346   0.926   3.699  0.3495  0.4882 -0.1446
  113MOL   C10127205   5.297   0.675   3.686  0.3687  0.7248 -0.0924
  113MOL   O10227206   5.309   0.579   3.760  0.0222 -0.3245  0.5538
  113MOL   O10327207   5.187   0.702   3.614 -0.0758  0.0314  0.0876
  113MOL   H10427208   5.536   0.856   3.532  1.4847 -1.9834  1.5266
  113MOL   H10527209   5.386   0.822   3.454 -1.8362  0.1463  0.8608
  113MOL   H10627210   5.262   0.946   3.632  0.5980  0.0445 -0.5930
  113MOL   H10727211   5.415   1.009   3.690  0.8208 -0.0133 -1.2463
  113MOL   H10827212   5.289   0.939   3.791 -0.1767  2.1600 -0.7042
  113MOL   H10927213   5.130   0.629   3.629  0.0405 -0.1675 -0.4084
  113MOL   C11027214   5.522   0.755   3.784  0.6861 -0.0469 -0.1656
  113MOL   C11127215   5.527   0.798   3.938 -0.2440  0.6725  0.4079
  113MOL   C11227216   5.605   0.929   3.946  0.8733 -0.0251  0.6740
  113MOL   C11327217   5.381   0.823   4.007  0.7927 -0.1804  0.0686
  113MOL   O11427218   5.296   0.738   4.032 -0.3955 -0.3199 -0.3185
  113MOL   O11527219   5.363   0.953   4.026 -0.3627 -0.1805  0.4270
  113MOL   H11627220   5.546   0.648   3.777 -1.4735 -0.5967  0.3630
  113MOL   H11727221   5.603   0.811   3.737  1.4959 -0.7639  0.3656
  113MOL   H11827222   5.557   1.003   3.882  0.5218 -1.1189 -0.3432
  113MOL   H11927223   5.707   0.927   3.906  0.6468 -1.1846  0.1298
  113MOL   H12027224   5.603   0.962   4.050 -1.3329 -1.5057  1.1269
  113MOL   H12127225   5.282   0.969   4.071  1.0020  0.4162  2.7407
  113MOL   C12227226   5.591   0.683   4.026 -0.2124  0.5667 -0.0128
  113MOL   C12327227   5.744   0.667   4.051  0.3776  0.0163  0.6632
  113MOL   C12427228   5.826   0.677   3.919 -0.5947 -0.4718  0.3357
  113MOL   C12527229   5.804   0.771   4.150 -0.5541  0.3067  0.9098
  113MOL   O12627230   5.911   0.831   4.133 -0.6117 -0.0107 -0.9776
  113MOL   O12727231   5.725   0.785   4.256  0.0883  0.0696 -0.3221
  113MOL   H12827232   5.540   0.680   4.123  1.6646 -0.2754  0.9659
  113MOL   H12927233   5.561   0.593   3.973  0.7062 -0.6824  1.5713
  113MOL   H13027234   5.929   0.645   3.938  0.3196  0.8816 -2.0334
  113MOL   H13127235   5.831   0.782   3.889  0.5816  0.3358  3.1810
  113MOL   H13227236   5.783   0.629   3.832  0.9150  1.0235 -1.2820
  113MOL   H13327237   5.758   0.844   4.322  0.2499 -0.1605 -0.1961
  113MOL   C13427238   5.781   0.538   4.125  0.2545 -0.4555 -0.4633
  113MOL   C13527239   5.744   0.387   4.086  0.6371  0.0085  0.3407
  113MOL   C13627240   5.773   0.362   3.934 -0.3922  0.0402 -0.0138
  113MOL   C13727241   5.841   0.303   4.171 -0.2368  0.3468  0.3834
  113MOL   O13827242   5.906   0.340   4.273  0.4040  0.1592  0.6129
  113MOL   O13927243   5.842   0.175   4.131  0.2857  0.2059  0.1872
  113MOL   H14027244   5.889   0.545   4.132  0.4366 -2.5533 -0.8554
  113MOL   H14127245   5.746   0.541   4.228 -0.9012 -0.4263 -0.8459
  113MOL   H14227246   5.878   0.371   3.905 -0.5322  2.5568  0.1919
  113MOL   H14327247   5.721   0.428   3.864 -0.1090  1.5756  1.2076
  113MOL   H14427248   5.742   0.259   3.913  1.9042 -1.0575  1.8123
  113MOL   H14527249   5.768   0.164   4.073 -1.0906  0.4860  1.8509
  113MOL   C14627250   5.588   0.354   4.132  0.6293  0.6804 -0.2133
  113MOL   C14727251   5.472   0.288   4.050  0.1273  0.1713  0.4807
  113MOL   C14827252   5.439   0.367   3.925  0.1962  0.0538  0.2650
  113MOL   C14927253   5.509   0.147   3.997  0.0079 -0.1310 -0.6835
  113MOL   O15027254   5.619   0.092   4.011  0.2019 -0.1196  0.1636
  113MOL   O15127255   5.401   0.090   3.933 -0.2721 -0.0274 -0.4099
  113MOL   H15227256   5.608   0.284   4.214  0.2248 -0.4157 -1.0438
  113MOL   H15327257   5.551   0.446   4.179  0.8591  0.0044  1.3427
  113MOL   H15427258   5.402   0.465   3.956 -1.5131 -0.7674  0.9107
  113MOL   H15527259   5.363   0.327   3.858 -2.6980  3.3610  1.4448
  113MOL   H15627260   5.519   0.399   3.859  0.3218  3.6935  2.1006
  113MOL   H15727261   5.414   0.001   3.904  1.1505  0.1845 -0.4459
  113MOL   C15827262   5.338   0.283   4.139  0.1002 -0.8421  0.7951
  113MOL   C15927263   5.312   0.203   4.277 -0.0657 -0.3975  0.1573
  113MOL   C16027264   5.163   0.249   4.293  0.0404  0.1582 -0.6346
  113MOL   C16127265   5.320   0.049   4.265  0.3505  0.7639 -0.0778
  113MOL   O16227266   5.226   7.737   4.258  0.3353 -0.0362 -0.0317
  113MOL   O16327267   5.450   0.005   4.271 -0.2572  0.4770 -0.2200
  113MOL   H16427268   5.313   0.388   4.153 -0.9919 -0.8600 -0.9366
  113MOL   H16527269   5.267   0.247   4.065  1.1241 -1.4457  0.0956
  113MOL   H16627270   5.124   0.204   4.384  0.7756  1.7078  0.4686
  113MOL   H16727271   5.102   0.210   4.211  1.5355 -2.1737 -0.6896
  113MOL   H16827272   5.150   0.355   4.313  2.4420 -0.0331  2.2193
  113MOL   H16927273   5.472   7.681   4.282 -1.6972  0.3468  1.9037
  113MOL   C17027274   5.407   0.255   4.388  0.5805  0.3945 -0.1051
  113MOL   C17127275   5.399   0.244   4.547 -0.4218  0.2358  0.5103
  113MOL   C17227276   5.282   0.334   4.597  1.0818 -0.0118 -0.3728
  113MOL   C17327277   5.355   0.105   4.584 -0.5408 -0.0799 -0.4432
  113MOL   O17427278   5.235   0.076   4.600 -0.1514  0.0124  0.1212
  113MOL   O17527279   5.450   0.011   4.587 -0.5553  0.1540  0.6252
  113MOL   H17627280   5.500   0.202   4.368 -0.1153 -0.6311 -0.6437
  113MOL   H17727281   5.432   0.360   4.370  0.4655  0.6371  1.1082
  113MOL   H17827282   5.287   0.434   4.554  0.8594  0.1884  0.0634
  113MOL   H17927283   5.277   0.343   4.706 -0.2523 -0.1897 -0.4016
  113MOL   H18027284   5.177   0.311   4.578  0.3105  3.2746 -0.4274
  113MOL   H18127285   5.411   7.692   4.594 -0.5766  0.1261  0.1255
  113MOL   C18227286   5.539   0.271   4.619  0.5506 -0.2115  0.4053
  113MOL   C18327287   5.595   0.409   4.673 -0.0801 -0.6041  0.1979
  113MOL   C18427288   5.583   0.504   4.556 -0.1704  1.0741 -0.2870
  113MOL   C18527289   5.516   0.472   4.786 -0.3986  0.2665 -0.0158
  113MOL   O18627290   5.470   0.586   4.777  0.1607 -1.0181  0.3693
  113MOL   O18727291   5.489   0.385   4.887 -0.0402 -1.0874  0.1540
  113MOL   H18827292   5.548   0.206   4.706  1.2047 -1.3288 -0.4810
  113MOL   H18927293   5.611   0.219   4.556 -2.4658 -2.4625 -1.3049
  113MOL   H19027294   5.479   0.519   4.528 -0.3677  0.1210 -0.0801
  113MOL   H19127295   5.636   0.465   4.469 -1.8456  1.2939 -1.4316
  113MOL   H19227296   5.642   0.595   4.567 -1.1810  1.8147 -0.9349
  113MOL   H19327297   5.529   0.300   4.897 -0.6046 -1.3430  0.2673
  113MOL   C19427298   5.748   0.399   4.714 -0.0244 -0.2512  0.5912
  113MOL   C19527299   5.832   0.487   4.817  0.9341  0.0072 -0.2872
  113MOL   C19627300   5.813   0.634   4.791  0.9051 -0.4462  0.2763
  113MOL   C19727301   5.786   0.443   4.969 -0.0578 -0.3555 -0.2871
  113MOL   O19827302   5.729   0.341   5.000 -0.0933 -1.0284 -0.5914
  113MOL   O19927303   5.796   0.558   5.050  0.1659  0.8163 -0.2046
  113MOL   H20027304   5.771   0.296   4.743 -1.6388 -0.9524 -0.5783
  113MOL   H20127305   5.800   0.402   4.619 -1.5527  1.5512 -0.2128
  113MOL   H20227306   5.843   0.660   4.689 -0.9422  2.2369  0.3818
  113MOL   H20327307   5.868   0.698   4.860  0.3367 -1.5570  1.7906
  113MOL   H20427308   5.716   0.683   4.801  1.3523  0.5981 -0.4161
  113MOL   H20527309   5.750   0.525   5.126  0.8057 -0.8341 -0.5025
  113MOL   C20627310   5.989   0.473   4.792 -0.1053 -0.6475 -0.4279
  113MOL   C20727311   6.068   0.328   4.777  0.6160 -0.0670 -0.3934
  113MOL   C20827312   6.028   0.244   4.901 -0.5261 -0.3791  0.3940
  113MOL   C20927313   6.035   0.254   4.646  0.6757 -0.7128  0.3658
  113MOL   O21027314   5.971   0.151   4.650 -0.8490 -0.4434  0.1979
  113MOL   O21127315   6.063   0.335   4.542  0.0436  0.2025  0.1931
  113MOL   H21227316   6.013   0.528   4.701 -0.4271  1.4921  0.7478
  113MOL   H21327317   6.049   0.517   4.872  1.1034 -2.1598 -0.4627
  113MOL   H21427318   6.074   0.145   4.899 -0.7356 -0.4487 -1.7307
  113MOL   H21527319   5.925   0.212   4.887 -0.8606  1.0367 -0.5045
  113MOL   H21627320   6.045   0.297   4.995  0.8576  0.9294 -0.5674
  113MOL   H21727321   6.033   0.295   4.462  1.2592  0.5151 -0.4255
  113MOL   C21827322   6.223   0.370   4.786  0.2759 -0.4210 -0.4248
  113MOL   C21927323   6.352   0.271   4.770  0.0858 -0.1496  0.1894
  113MOL   C22027324   6.345   0.197   4.634 -0.1338  0.0111  0.6364
  113MOL   C22127325   6.472   0.361   4.772  0.3411 -0.2279 -0.0604
  113MOL   O22227326   6.557   0.378   4.676  1.1336 -0.1216  0.2386
  113MOL   O22327327   6.494   0.429   4.890 -0.1383 -0.0985  0.7155
  113MOL   H22427328   6.233   0.441   4.704  0.0617 -0.5969 -0.6051
  113MOL   H22527329   6.240   0.419   4.882 -0.5026 -0.1875 -0.3974
  113MOL   H22627330   6.311   0.262   4.553  0.2454  0.6342  0.9709
  113MOL   H22727331   6.273   0.115   4.635  0.9437 -1.0138 -1.5547
  113MOL   H22827332   6.444   0.163   4.604 -1.8830 -2.7814 -2.1985
  113MOL   H22927333   6.564   0.493   4.883 -0.8477  0.5052 -1.0830
  113MOL   C23027334   6.357   0.165   4.886  0.6896 -1.0891  0.1814
  113MOL   C23127335   6.489   0.100   4.927 -0.1884 -0.0530 -0.5820
  113MOL   C23227336   6.474   0.014   5.054 -0.3380  0.3096 -0.6027
  113MOL   C23327337   6.541   0.018   4.809  0.3102  0.6350  0.3084
  113MOL   O23427338   6.625   0.070   4.735 -0.1424 -0.8960  0.0235
  113MOL   O23527339   6.502   7.655   4.805  0.2082 -0.0794  0.4031
  113MOL   H23627340   6.336   0.226   4.974  0.9154 -1.3954  0.4464
  113MOL   H23727341   6.272   0.098   4.873  0.7078 -1.1948  0.6227
  113MOL   H23827342   6.456   0.077   5.140 -1.1275  2.2707 -2.1722
  113MOL   H23927343   6.566   7.722   5.058  0.6058  1.4359 -3.8752
  113MOL   H24027344   6.382   7.724   5.047 -1.0982  1.6670 -2.0649
  113MOL   H24127345   6.555   7.618   4.736  0.6253  1.4769 -0.1272
  113MOL   H24227346   6.556   0.184   4.948  0.8523 -0.9246 -0.3540
  114MOL     C127347   4.283   4.688   6.166  0.5767 -0.1297 -0.5168
  114MOL     C227348   4.332   4.556   6.103 -0.3183  0.2400 -0.0166
  114MOL     C327349   4.214   4.489   6.024  0.3511 -0.1403 -0.0079
  114MOL     C427350   4.444   4.580   5.998  0.3949  0.0739 -0.2688
  114MOL     O527351   4.496   4.690   5.967 -0.0121  0.4226  0.0586
  114MOL     O627352   4.480   4.462   5.936  0.1741 -0.7745  0.3914
  114MOL     H727353   4.354   4.730   6.236 -1.4637  2.6948 -0.0450
  114MOL     H827354   4.192   4.678   6.225  1.3919  4.5621  1.7733
  114MOL     H927355   4.256   4.394   5.989  0.0110 -0.3022  0.0255
  114MOL    H1027356   4.184   4.545   5.936  1.4564 -1.8476 -1.5196
  114MOL    H1127357   4.130   4.454   6.084  1.1795 -1.2663  0.5241
  114MOL    H1227358   4.559   4.477   5.887  0.3113  0.5870  1.0057
  114MOL    H1327359   4.247   4.760   6.092 -0.8993 -0.7547 -0.4305
  114MOL    C1427360   4.374   4.449   6.211 -0.2524 -0.4760 -0.0368
  114MOL    C1527361   4.476   4.472   6.322 -0.8714 -0.6240 -0.1953
  114MOL    C1627362   4.601   4.550   6.271 -0.2594 -0.3774  0.3306
  114MOL    C1727363   4.423   4.549   6.443  0.4800  0.0500 -0.0199
  114MOL    O1827364   4.307   4.586   6.461 -1.1015 -0.3681  0.6010
  114MOL    O1927365   4.512   4.558   6.541 -0.2769  0.2707 -0.7038
  114MOL    H2027366   4.285   4.419   6.266 -0.2094  0.8862  0.7824
  114MOL    H2127367   4.405   4.366   6.146 -0.4800 -0.1378 -0.5811
  114MOL    H2227368   4.652   4.494   6.193 -1.3072  0.6703 -1.1567
  114MOL    H2327369   4.673   4.565   6.350 -0.8863  1.0329  0.6452
  114MOL    H2427370   4.568   4.644   6.227 -2.2094 -0.3358  1.8152
  114MOL    H2527371   4.490   4.626   6.603  0.7685 -1.0545  1.1659
  114MOL    C2627372   4.546   4.329   6.355  0.0611  0.7427  0.2816
  114MOL    C2727373   4.472   4.202   6.415  0.0214 -0.3770 -0.3785
  114MOL    C2827374   4.386   4.133   6.307 -0.5863 -0.1689  0.4667
  114MOL    C2927375   4.592   4.100   6.445 -0.2379 -0.1866 -0.3788
  114MOL    O3027376   4.709   4.132   6.448 -0.3022 -0.2753 -0.4910
  114MOL    O3127377   4.541   3.985   6.488  0.6171 -0.4461 -0.1271
  114MOL    H3227378   4.612   4.304   6.271 -1.5529  0.0706 -0.8007
  114MOL    H3327379   4.617   4.360   6.432  0.9828 -1.6209  0.4421
  114MOL    H3427380   4.438   4.129   6.211 -2.4319 -1.0423 -0.5216
  114MOL    H3527381   4.290   4.182   6.296 -0.1870  0.0231 -2.4116
  114MOL    H3627382   4.356   4.029   6.320 -0.4652 -0.1469  0.9301
  114MOL    H3727383   4.448   3.984   6.502  0.2179 -0.2208 -2.5733
  114MOL    C3827384   4.401   4.235   6.551  0.7751  0.3216  0.0599
  114MOL    C3927385   4.261   4.207   6.602  0.0788  0.5999  0.5659
  114MOL    C4027386   4.156   4.276   6.520  0.4479 -0.0742 -0.4821
  114MOL    C4127387   4.227   4.056   6.608 -0.5197 -0.6119 -0.5733
  114MOL    O4227388   4.304   3.967   6.579 -0.3288 -0.0413  0.0397
  114MOL    O4327389   4.096   4.028   6.650 -0.4157 -0.0748  0.5319
  114MOL    H4427390   4.449   4.181   6.633  0.4819 -0.6403 -0.3994
  114MOL    H4527391   4.419   4.339   6.580 -0.9725 -0.0823  2.7965
  114MOL    H4627392   4.057   4.260   6.563  0.2570 -1.9131 -1.5666
  114MOL    H4727393   4.148   4.231   6.421  1.0498 -0.6944 -0.2523
  114MOL    H4827394   4.164   4.385   6.508 -1.8123  0.2807  0.9242
  114MOL    H4927395   4.041   4.098   6.683  0.5296 -0.2359  2.4869
  114MOL    C5027396   4.245   4.275   6.741 -0.0249 -0.2818 -0.7224
  114MOL    C5127397   4.329   4.236   6.874 -1.1925  0.1761 -0.6118
  114MOL    C5227398   4.473   4.296   6.861 -0.9369 -0.4860  0.1218
  114MOL    C5327399   4.251   4.301   6.994 -0.1191  0.5984 -0.2433
  114MOL    O5427400   4.134   4.333   6.981 -0.3559  0.3055  0.4853
  114MOL    O5527401   4.320   4.335   7.110 -0.3339 -0.2549 -0.0701
  114MOL    H5627402   4.265   4.382   6.731  0.4805 -0.2702  0.3055
  114MOL    H5727403   4.137   4.278   6.758  0.2045  1.4321  0.6506
  114MOL    H5827404   4.482   4.381   6.794  0.2455  0.3587  1.3346
  114MOL    H5927405   4.549   4.223   6.831 -2.5270 -1.7747 -0.8433
  114MOL    H6027406   4.512   4.346   6.950  3.1501 -0.2174 -1.6936
  114MOL    H6127407   4.247   4.357   7.165 -2.0349 -0.9901 -1.9618
  114MOL    C6227408   4.333   4.082   6.897 -0.0649 -0.3673  0.6001
  114MOL    C6327409   4.372   4.013   7.035 -0.4022 -0.5500  1.2908
  114MOL    C6427410   4.497   4.077   7.097  0.1734 -0.3135  0.2717
  114MOL    C6527411   4.252   4.014   7.138  0.5095  0.1508  0.8616
  114MOL    O6627412   4.136   4.048   7.108 -0.1164  0.6827 -0.0128
  114MOL    O6727413   4.284   3.961   7.259 -0.2551  0.4410  0.0739
  114MOL    H6827414   4.231   4.045   6.888  0.0326 -0.4389 -0.1714
  114MOL    H6927415   4.391   4.030   6.822  0.9700  3.4884 -1.3765
  114MOL    H7027416   4.541   4.018   7.177  0.3757  0.4359  0.7158
  114MOL    H7127417   4.486   4.181   7.130  1.6599 -0.8621  2.6319
  114MOL    H7227418   4.588   4.094   7.038  1.0795  1.8718  2.2044
  114MOL    H7327419   4.211   3.967   7.319  0.2408 -1.9062  0.9796
  114MOL    C7427420   4.410   3.863   7.017  0.1254  0.1615  0.3501
  114MOL    C7527421   4.324   3.751   6.938  0.0200  0.5470  0.0946
  114MOL    C7627422   4.169   3.780   6.942  0.2031 -0.1089 -0.1601
  114MOL    C7727423   4.361   3.741   6.791  0.4934 -0.2039  0.5793
  114MOL    O7827424   4.477   3.782   6.745  0.3635 -0.0933 -0.4123
  114MOL    O7927425   4.267   3.689   6.709  0.2587  0.1612  0.4501
  114MOL    H8027426   4.508   3.871   6.971 -1.1586 -0.4311 -2.6212
  114MOL    H8127427   4.431   3.817   7.113 -0.4499 -2.0186 -0.5196
  114MOL    H8227428   4.139   3.866   6.882 -0.7740 -0.5295 -0.2799
  114MOL    H8327429   4.119   3.801   7.037  0.7955  1.9513 -0.2713
  114MOL    H8427430   4.115   3.693   6.905  2.1119 -2.3745  2.2231
  114MOL    H8527431   4.304   3.674   6.623  0.3143  0.2404  0.4605
  114MOL    C8627432   4.368   3.622   7.014  0.3733  0.2290 -0.2416
  114MOL    C8727433   4.328   3.476   6.975  0.5893  0.1083 -0.9439
  114MOL    C8827434   4.181   3.452   6.936 -0.5839 -0.5152 -1.0924
  114MOL    C8927435   4.418   3.428   6.854 -0.0263  0.9473  0.3675
  114MOL    O9027436   4.369   3.373   6.757  0.7471  0.5224 -0.0003
  114MOL    O9127437   4.551   3.461   6.865 -0.1606 -0.3474 -0.0037
  114MOL    H9227438   4.477   3.620   7.020  0.3692  0.8629  0.0506
  114MOL    H9327439   4.333   3.644   7.115 -1.6825  0.2451 -0.9362
  114MOL    H9427440   4.162   3.488   6.835 -1.3202 -1.3136 -1.2465
  114MOL    H9527441   4.118   3.504   7.008 -1.1923  1.3722 -2.9615
  114MOL    H9627442   4.151   3.347   6.940 -1.0826 -0.3065  1.9794
  114MOL    H9727443   4.610   3.442   6.793  0.2474 -1.3357  0.5895
  114MOL    C9827444   4.345   3.391   7.113 -0.6266 -0.0788  0.9554
  114MOL    C9927445   4.391   3.238   7.122  0.0008 -0.6731 -0.3127
  114MOL   C10027446   4.316   3.145   7.019  0.7204  0.1250 -0.1508
  114MOL   C10127447   4.540   3.229   7.094  0.2682  0.2738  0.5479
  114MOL   O10227448   4.587   3.131   7.036 -0.7638  0.8213  0.2602
  114MOL   O10327449   4.628   3.316   7.158  0.3884  0.1996 -0.0189
  114MOL   H10427450   4.417   3.444   7.176 -0.6918  1.4437 -0.2232
  114MOL   H10527451   4.252   3.395   7.169 -0.4107 -1.3482  1.4346
  114MOL   H10627452   4.339   3.153   6.913 -0.0011 -3.3322 -0.6212
  114MOL   H10727453   4.209   3.135   7.036  0.1435  2.5005 -2.0571
  114MOL   H10827454   4.355   3.045   7.039 -0.1330 -0.1785  0.0060
  114MOL   H10927455   4.718   3.286   7.158  0.2607 -0.2862  1.7439
  114MOL   C11027456   4.349   3.192   7.268 -0.8822  0.0506  0.7750
  114MOL   C11127457   4.432   3.107   7.370  0.5377 -0.3205 -0.1184
  114MOL   C11227458   4.334   3.070   7.481  0.4063  0.7620  0.5006
  114MOL   C11327459   4.478   2.974   7.306  0.0946 -0.4994  0.7314
  114MOL   O11427460   4.593   2.935   7.286 -0.1166 -0.0658  0.0540
  114MOL   O11527461   4.375   2.899   7.279  1.0258  0.2060  0.6567
  114MOL   H11627462   4.316   3.276   7.328 -0.2817 -0.2289  1.5026
  114MOL   H11727463   4.253   3.142   7.252 -2.6046  3.0053  1.6432
  114MOL   H11827464   4.371   3.019   7.570 -2.4166  1.1400  1.9239
  114MOL   H11927465   4.248   3.014   7.448 -0.3501  0.7932  2.3288
  114MOL   H12027466   4.287   3.163   7.513 -2.0323  0.1539 -1.2339
  114MOL   H12127467   4.402   2.819   7.236  1.2904 -0.2948  1.7196
  114MOL   C12227468   4.550   3.200   7.434 -0.2192  0.1209  0.1249
  114MOL   C12327469   4.601   3.179   7.579 -0.1848 -0.8687  0.4233
  114MOL   C12427470   4.500   3.224   7.690 -0.2978 -0.2787 -0.2926
  114MOL   C12527471   4.649   3.035   7.591 -0.2878  0.0176  0.4783
  114MOL   O12627472   4.598   2.957   7.665 -0.2775  0.7804 -0.1354
  114MOL   O12727473   4.756   3.015   7.503  0.0175 -0.1845 -0.0593
  114MOL   H12827474   4.634   3.210   7.366 -1.5617  0.4709 -1.5368
  114MOL   H12927475   4.515   3.304   7.437 -3.8766 -1.0451  1.5855
  114MOL   H13027476   4.493   3.332   7.692 -2.7998 -0.4005 -0.9846
  114MOL   H13127477   4.539   3.190   0.020  0.4762  2.2987  0.3297
  114MOL   H13227478   4.399   3.184   7.686 -0.9017  1.1126  0.7172
  114MOL   H13327479   4.764   2.921   7.495 -0.9522 -0.3494  0.7919
  114MOL   C13427480   4.721   3.284   7.597  0.3452  0.3057  0.1725
  114MOL   C13527481   4.814   3.297   7.728 -0.1826  0.6504  0.0594
  114MOL   C13627482   4.905   3.406   7.680 -0.6707  0.9460 -0.8061
  114MOL   C13727483   4.735   3.363   0.075 -0.1322 -0.5413 -0.6615
  114MOL   O13827484   4.694   3.302   0.175 -0.8714  0.2355  0.2206
  114MOL   O13927485   4.703   3.489   0.052  0.0041  0.1095  0.4511
  114MOL   H14027486   4.796   3.259   7.523  2.1947 -0.5272  2.2504
  114MOL   H14127487   4.690   3.386   7.576  1.9760  0.4854 -1.3832
  114MOL   H14227488   4.956   3.374   7.589 -2.4033  0.2334 -1.5537
  114MOL   H14327489   4.979   3.429   7.756  0.9517 -1.1285 -1.6927
  114MOL   H14427490   4.860   3.502   7.658  1.4517  1.4462 -3.1947
  114MOL   H14527491   4.652   3.526   0.123  0.0633 -0.5305  0.8321
  114MOL   C14627492   4.887   3.165   0.000 -0.7657 -0.2706  0.0996
  114MOL   C14727493   5.030   3.161   0.076 -0.0236 -0.1298  0.1512
  114MOL   C14827494   5.136   3.208   7.736 -0.2710 -0.1590  0.4180
  114MOL   C14927495   5.045   3.258   0.193  0.5762 -0.0568  0.9997
  114MOL   O15027496   5.127   3.350   0.202 -0.1118  0.2057 -0.1849
  114MOL   O15127497   4.960   3.229   0.298  0.6466  0.0639 -0.5627
  114MOL   H15227498   4.819   3.114   0.068  0.5047 -1.0410  0.8181
  114MOL   H15327499   4.900   3.099   7.681  1.9521  0.1807  0.1008
  114MOL   H15427500   5.127   3.150   7.644  1.8239  0.7677 -0.4159
  114MOL   H15527501   5.236   3.192   0.009 -0.5425 -0.9134  0.8078
  114MOL   H15627502   5.140   3.313   7.711 -0.3868  0.0934  1.4251
  114MOL   H15727503   4.972   3.288   0.371 -0.8528  0.7131 -0.8341
  114MOL   C15827504   5.042   3.003   0.126  0.6249  0.4417  0.3186
  114MOL   C15927505   5.178   2.917   0.135  0.0095 -0.0635  0.3236
  114MOL   C16027506   5.221   2.879   7.752 -0.7855 -0.1149  0.1434
  114MOL   C16127507   5.286   3.019   0.193 -0.8005  0.2030 -0.3537
  114MOL   O16227508   5.387   3.059   0.141 -0.3768  0.4971  0.4528
  114MOL   O16327509   5.254   3.069   0.314 -0.2544 -0.2192  0.0451
  114MOL   H16427510   4.985   2.988   0.218 -2.5596 -2.4124 -1.9993
  114MOL   H16527511   4.975   2.943   0.064  1.2154 -0.5098  0.5922
  114MOL   H16627512   5.151   2.798   7.731 -0.2162 -0.6377  0.2454
  114MOL   H16727513   5.321   2.839   7.737 -0.6408  0.8914 -1.7425
  114MOL   H16827514   5.211   2.965   7.685 -3.3290 -0.1489  0.4221
  114MOL   H16927515   5.325   3.126   0.337 -1.4660  1.0401  0.7415
  114MOL   C17027516   5.156   2.803   0.244 -0.6650  0.2611 -0.7943
  114MOL   C17127517   5.082   2.670   0.215  0.6446  0.0305  0.0331
  114MOL   C17227518   4.950   2.687   0.129  0.0737 -0.6044  1.8159
  114MOL   C17327519   5.171   2.572   0.135  0.4465 -0.0687 -0.3670
  114MOL   O17427520   5.289   2.588   0.104  0.5330 -0.4565 -0.5904
  114MOL   O17527521   5.107   2.455   0.107  0.1617  0.1181  0.0862
  114MOL   H17627522   5.258   2.782   0.276 -0.7205 -0.7353 -1.2673
  114MOL   H17727523   5.105   2.857   0.324 -1.1145 -0.3849 -0.6502
  114MOL   H17827524   4.879   2.760   0.168 -1.6924 -0.7786 -0.9403
  114MOL   H17927525   4.905   2.588   0.113 -0.5071 -0.3890  2.1040
  114MOL   H18027526   4.966   2.724   0.028  0.5866  0.2342  2.2077
  114MOL   H18127527   5.159   2.404   0.047  1.1822  1.8593 -0.5442
  114MOL   C18227528   5.037   2.610   0.362  1.0113 -0.0047  0.3688
  114MOL   C18327529   5.122   2.597   0.491  0.2007 -0.1505  0.0086
  114MOL   C18427530   5.263   2.546   0.458 -0.2367 -0.0437 -0.1002
  114MOL   C18527531   5.120   2.734   0.565 -0.2321 -0.1336  0.1389
  114MOL   O18627532   5.221   2.801   0.593  0.1338  0.2490  0.0376
  114MOL   O18727533   4.993   2.768   0.600  0.2802 -0.6571 -0.4266
  114MOL   H18827534   4.941   2.655   0.387  1.4612  0.2305  1.7211
  114MOL   H18927535   5.005   2.508   0.340  1.3803 -0.3566  1.4061
  114MOL   H19027536   5.332   2.531   0.541  1.1906  2.2688 -0.8364
  114MOL   H19127537   5.314   2.626   0.405 -0.1213  0.3267  0.5644
  114MOL   H19227538   5.273   2.451   0.404 -0.5674  1.2739 -2.5515
  114MOL   H19327539   4.985   2.838   0.662  0.1011 -1.1074  0.0618
  114MOL   C19427540   5.048   2.489   0.577 -0.3764 -0.6392  0.7374
  114MOL   C19527541   5.052   2.472   0.730 -0.2146 -0.4801  0.1724
  114MOL   C19627542   5.201   2.497   0.787  0.0975  0.3692 -0.1170
  114MOL   C19727543   4.954   2.563   0.811 -0.3674 -0.3220  0.3219
  114MOL   O19827544   4.974   2.645   0.903  0.0529  0.1085  0.5064
  114MOL   O19927545   4.825   2.540   0.774  0.2346  0.2097  0.3871
  114MOL   H20027546   4.944   2.516   0.555  0.5812  2.6481  0.0322
  114MOL   H20127547   5.063   2.396   0.522  1.7874  0.0957  0.0677
  114MOL   H20227548   5.275   2.418   0.771  0.1072  0.2358  0.5898
  114MOL   H20327549   5.204   2.510   0.895  1.1522 -0.8772  0.0142
  114MOL   H20427550   5.238   2.597   0.762 -1.6742  0.9839 -0.3549
  114MOL   H20527551   4.773   2.552   0.852  1.2646 -0.7815  1.2384
  114MOL   C20627552   5.021   2.323   0.757 -0.2962  0.0923  0.0994
  114MOL   C20727553   4.998   2.249   0.894  0.4173  0.1597 -0.2154
  114MOL   C20827554   5.125   2.270   0.984  0.6819 -0.0881  0.0867
  114MOL   C20927555   4.877   2.301   0.967 -0.5332 -1.1207 -0.0360
  114MOL   O21027556   4.887   2.367   1.069 -0.5340 -0.1439 -0.4845
  114MOL   O21127557   4.754   2.278   0.899 -0.2869 -0.2172 -0.1033
  114MOL   H21227558   4.933   2.308   0.695  1.0794  1.4876 -2.2700
  114MOL   H21327559   5.102   2.271   0.707  0.3130 -1.0615  2.2266
  114MOL   H21427560   5.133   2.369   1.029  0.7846 -0.8462  1.7588
  114MOL   H21527561   5.218   2.251   0.929 -0.0778  0.2458 -1.3292
  114MOL   H21627562   5.135   2.200   1.067 -2.6673 -1.4994 -0.6179
  114MOL   H21727563   4.772   2.208   0.838 -0.9840 -1.9982  1.6993
  114MOL   C21827564   4.981   2.101   0.851  0.3665 -0.3464  0.0963
  114MOL   C21927565   4.924   1.984   0.946  0.1284  0.1235  0.2632
  114MOL   C22027566   4.938   1.855   0.857  0.2626  0.0274  0.0342
  114MOL   C22127567   5.017   1.973   1.071 -0.1016  0.1029 -0.0333
  114MOL   O22227568   5.132   1.927   1.062 -0.0598 -0.3329 -0.4883
  114MOL   O22327569   4.976   2.033   1.184  0.9659 -0.1664 -0.1452
  114MOL   H22427570   4.928   2.096   0.757  0.5806 -2.6554  0.0734
  114MOL   H22527571   5.084   2.072   0.831 -0.3011 -1.5664 -1.5938
  114MOL   H22627572   4.965   1.765   0.912 -0.3231 -1.5240 -2.1850
  114MOL   H22727573   5.020   1.858   0.785 -0.0534 -1.8593 -0.4314
  114MOL   H22827574   4.850   1.815   0.808  1.8170 -1.1316 -1.8877
  114MOL   H22927575   5.045   2.021   1.247  0.3120  0.7948  0.7684
  114MOL   C23027576   4.776   1.987   0.984  0.0782 -0.4724 -0.4377
  114MOL   C23127577   4.710   1.875   1.063  0.5234 -0.1091  0.2274
  114MOL   C23227578   4.688   1.903   1.214 -0.2197  0.8003  0.2351
  114MOL   C23327579   4.577   1.819   1.004  0.0399 -0.6071 -0.5422
  114MOL   O23427580   4.576   1.746   0.899  0.4170 -0.7205  0.0184
  114MOL   O23527581   4.463   1.877   1.055  0.0625 -0.4067 -0.0015
  114MOL   H23627582   4.756   2.074   1.046  0.1338  0.7161 -2.0579
  114MOL   H23727583   4.712   2.004   0.897 -1.7421 -0.0593  0.9388
  114MOL   H23827584   4.643   2.002   1.228  0.2561  0.7645  2.2320
  114MOL   H23927585   4.788   1.916   1.256  0.3313  2.4744 -1.5377
  114MOL   H24027586   4.643   1.818   1.266  0.4461 -0.6799 -1.5911
  114MOL   H24127587   4.380   1.865   1.012  0.3726  1.8505 -1.2646
  114MOL   H24227588   4.774   1.786   1.060  2.0525  1.0126 -0.8578
  115MOL     C127589   6.340   2.267   4.926 -0.0105  0.2668 -0.5048
  115MOL     C227590   6.217   2.338   4.880  0.9328 -0.5674  0.1758
  115MOL     C327591   6.142   2.243   4.782  0.1040  0.4122 -0.3150
  115MOL     C427592   6.124   2.368   5.005 -0.4053 -0.3072 -0.2636
  115MOL     O527593   6.167   2.402   5.115 -0.1764 -0.1669 -0.0004
  115MOL     O627594   5.995   2.361   4.973 -0.0569 -0.1602 -0.1564
  115MOL     H727595   6.392   2.313   5.010 -0.2121 -0.3752 -0.0285
  115MOL     H827596   6.387   2.221   4.839 -1.0225 -0.8642 -0.4660
  115MOL     H927597   6.045   2.280   4.749  1.5882  1.9205 -3.1078
  115MOL    H1027598   6.129   2.142   4.822 -0.8415  1.7959  3.0577
  115MOL    H1127599   6.200   2.235   4.690 -1.5171  0.9512 -1.4045
  115MOL    H1227600   5.933   2.377   5.042  0.3743  0.7282  0.0401
  115MOL    H1327601   6.308   2.180   4.982 -1.2253  0.2847 -1.1540
  115MOL    C1427602   6.270   2.475   4.810 -0.1832  0.3962 -0.2341
  115MOL    C1527603   6.191   2.569   4.716  0.8797  0.5624 -0.4223
  115MOL    C1627604   6.274   2.696   4.705  0.1565  0.1539 -0.0868
  115MOL    C1727605   6.194   2.506   4.578 -0.7355  0.0954  0.7826
  115MOL    O1827606   6.267   2.528   4.485  0.2047  0.5477 -0.2318
  115MOL    O1927607   6.091   2.418   4.558  0.1107  0.0269  0.0919
  115MOL    H2027608   6.302   2.538   4.893  1.5754 -1.3171  0.4322
  115MOL    H2127609   6.368   2.452   4.769  0.4792 -0.6459  1.8577
  115MOL    H2227610   6.235   2.767   4.631  1.4521  1.9955  0.9597
  115MOL    H2327611   6.371   2.674   4.660  0.4377  0.4193  0.3948
  115MOL    H2427612   6.289   2.764   4.789 -0.5184  0.2530 -0.0412
  115MOL    H2527613   6.058   2.409   4.646 -0.3847  3.0567  0.2673
  115MOL    C2627614   6.050   2.597   4.784 -0.2742  0.3756  0.5335
  115MOL    C2727615   5.948   2.716   4.750  0.5616 -0.3552  0.2005
  115MOL    C2827616   6.004   2.844   4.815 -0.2965  0.4085  0.5179
  115MOL    C2927617   5.942   2.741   4.599 -0.0773  0.4638 -0.6874
  115MOL    O3027618   5.976   2.849   4.547 -0.7153  0.6067  0.3486
  115MOL    O3127619   5.918   2.637   4.520 -0.1484  0.4210 -0.0584
  115MOL    H3227620   5.998   2.502   4.777 -1.1431  1.0865 -4.2575
  115MOL    H3327621   6.070   2.606   4.891  0.6831 -0.6936  0.4489
  115MOL    H3427622   5.954   2.936   4.787  0.6048  0.4964 -0.8596
  115MOL    H3527623   6.107   2.867   4.788 -0.1029  1.1597  1.8866
  115MOL    H3627624   6.003   2.846   4.924  0.7955  1.3511  0.5165
  115MOL    H3727625   5.912   2.658   4.428 -2.8745  2.3161  0.4684
  115MOL    C3827626   5.812   2.663   4.805  0.4365 -0.5244 -0.2221
  115MOL    C3927627   5.680   2.750   4.823  0.1451  0.5053  0.0782
  115MOL    C4027628   5.703   2.895   4.857 -0.6273  0.0604 -0.3350
  115MOL    C4127629   5.596   2.767   4.691 -0.1009  0.8201  0.2703
  115MOL    O4227630   5.615   2.703   4.587 -0.0782 -0.0634  0.0080
  115MOL    O4327631   5.494   2.855   4.703 -0.0478 -0.4754 -0.0099
  115MOL    H4427632   5.798   2.571   4.748 -0.5494 -1.3867  1.4033
  115MOL    H4527633   5.837   2.634   4.907  0.2082 -0.6184 -0.1933
  115MOL    H4627634   5.737   2.962   4.779  1.3817 -0.5731 -0.0471
  115MOL    H4727635   5.781   2.888   4.934  2.0987 -0.9943 -3.0814
  115MOL    H4827636   5.619   2.942   4.907 -1.5270 -0.6305 -1.1872
  115MOL    H4927637   5.452   2.883   4.622  2.2858  1.5992 -0.5547
  115MOL    C5027638   5.590   2.686   4.933 -0.3559 -0.1561  0.3438
  115MOL    C5127639   5.551   2.534   4.947  0.9520  0.6356 -0.2701
  115MOL    C5227640   5.678   2.464   5.010  0.1367  0.3101 -1.3626
  115MOL    C5327641   5.431   2.514   5.041 -0.4568 -0.0304 -0.1731
  115MOL    O5427642   5.444   2.493   5.161 -0.0429  0.4273 -0.0409
  115MOL    O5527643   5.314   2.547   4.981 -0.0611  0.0609 -0.4912
  115MOL    H5627644   5.634   2.715   5.028 -1.4414 -2.3725  1.5480
  115MOL    H5727645   5.497   2.742   4.931 -0.3962 -0.2432 -2.1290
  115MOL    H5827646   5.635   2.375   5.056 -3.1071  0.7114 -3.4500
  115MOL    H5927647   5.728   2.522   5.087 -0.4145  1.2464 -1.6971
  115MOL    H6027648   5.747   2.429   4.932  0.1172  1.3244 -1.8442
  115MOL    H6127649   5.251   2.575   5.046  0.5933  0.6539 -0.0956
  115MOL    C6227650   5.526   2.472   4.806 -0.0577  0.1343  0.4220
  115MOL    C6327651   5.514   2.322   4.773  0.2222  0.0986 -0.4279
  115MOL    C6427652   5.469   2.320   4.619 -0.2149 -0.1288 -0.1701
  115MOL    C6527653   5.648   2.250   4.780  0.1877  0.3132 -0.0216
  115MOL    O6627654   5.721   2.230   4.685 -0.1320  0.1492 -0.2856
  115MOL    O6727655   5.672   2.184   4.900  0.3997 -0.1087 -0.3728
  115MOL    H6827656   5.442   2.533   4.771  1.3260  1.5115 -0.6044
  115MOL    H6927657   5.603   2.502   4.734  1.2829 -1.9729  0.9276
  115MOL    H7027658   5.539   2.382   4.564 -1.5533  1.1479 -0.4615
  115MOL    H7127659   5.376   2.371   4.594 -0.7670 -0.6279  0.8270
  115MOL    H7227660   5.469   2.215   4.589  2.6640 -0.9000  2.2478
  115MOL    H7327661   5.751   2.134   4.889  0.6010  0.7614 -3.4468
  115MOL    C7427662   5.387   2.260   4.849 -0.9075 -0.4507  0.0888
  115MOL    C7527663   5.314   2.126   4.816 -0.0315 -0.6493 -0.5743
  115MOL    C7627664   5.223   2.098   4.936 -0.7213 -0.2133 -0.1605
  115MOL    C7727665   5.215   2.157   4.701 -0.5803 -0.0136  0.0452
  115MOL    O7827666   5.125   2.239   4.713  0.0555  0.0967  0.1759
  115MOL    O7927667   5.243   2.078   4.593  0.2256 -0.1995  0.4585
  115MOL    H8027668   5.432   2.241   4.947  0.8480  2.1413 -0.1687
  115MOL    H8127669   5.318   2.340   4.872  1.0723  1.4538 -0.4200
  115MOL    H8227670   5.149   2.178   4.944  0.8923  1.4148 -1.3107
  115MOL    H8327671   5.276   2.087   5.030  0.6377 -1.0349 -1.0112
  115MOL    H8427672   5.165   2.007   4.918 -2.0859  0.5002  0.5845
  115MOL    H8527673   5.174   2.085   4.529  0.6456 -2.3112 -0.2853
  115MOL    C8627674   5.408   2.005   4.791 -0.4036 -0.4378  0.2179
  115MOL    C8727675   5.381   1.857   4.809 -0.1631  0.0601  0.0690
  115MOL    C8827676   5.248   1.816   4.735 -0.2781 -0.3589 -0.6948
  115MOL    C8927677   5.496   1.783   4.734 -0.4705  0.3508  0.1798
  115MOL    O9027678   5.477   1.721   4.630 -0.3006  0.0529  0.2480
  115MOL    O9127679   5.619   1.817   4.787 -0.2830 -0.0066  0.2583
  115MOL    H9227680   5.455   2.019   4.693 -1.6768  0.7358 -0.2383
  115MOL    H9327681   5.508   2.015   4.834  0.0041 -1.8493 -0.3776
  115MOL    H9427682   5.158   1.863   4.774  0.3711 -1.3805  2.2286
  115MOL    H9527683   5.231   1.709   4.748  0.0540 -0.1911  1.4316
  115MOL    H9627684   5.247   1.833   4.628  0.9827 -1.2409 -0.8596
  115MOL    H9727685   5.693   1.804   4.730 -0.5087 -0.1914  0.0093
  115MOL    C9827686   5.383   1.818   4.962  0.7156 -0.1303  0.8033
  115MOL    C9927687   5.334   1.676   5.021 -0.2615 -0.4742  0.4893
  115MOL   C10027688   5.336   1.698   5.177  0.1335  0.3651  0.8315
  115MOL   C10127689   5.183   1.648   4.988 -0.1482  0.4970 -0.7190
  115MOL   O10227690   5.141   1.547   4.930 -0.4302  0.0847  0.3051
  115MOL   O10327691   5.101   1.747   5.035 -0.3121 -0.8205 -0.7914
  115MOL   H10427692   5.481   1.844   5.002  0.1462 -2.0790  3.6053
  115MOL   H10527693   5.330   1.894   5.020 -0.7017 -0.4576 -0.0350
  115MOL   H10627694   5.429   1.739   5.216 -0.7581  0.6676  2.7148
  115MOL   H10727695   5.314   1.606   5.230  0.0888 -1.0372 -1.5521
  115MOL   H10827696   5.262   1.772   5.210  0.4134  1.2663 -0.4900
  115MOL   H10927697   5.013   1.714   5.024 -1.6484  2.3254  0.0094
  115MOL   C11027698   5.420   1.560   4.962 -0.0973 -0.1838 -0.2550
  115MOL   C11127699   5.474   1.424   5.035 -0.1234  0.3137  0.2533
  115MOL   C11227700   5.561   1.460   5.162  0.2140 -0.1251  0.4399
  115MOL   C11327701   5.352   1.339   5.085 -0.0515 -1.2262  0.0102
  115MOL   O11427702   5.316   1.334   5.201 -0.6417  0.1658  0.2053
  115MOL   O11527703   5.277   1.301   4.982  0.0958  0.1219 -0.1657
  115MOL   H11627704   5.374   1.536   4.866  1.7410 -2.1461 -0.6831
  115MOL   H11727705   5.509   1.619   4.937 -0.3028  0.4012  0.4046
  115MOL   H11827706   5.648   1.518   5.131  0.3601 -1.1563 -1.1793
  115MOL   H11927707   5.596   1.372   5.216  0.4002  0.2282  0.8911
  115MOL   H12027708   5.505   1.522   5.232  0.3496  0.9024 -0.3480
  115MOL   H12127709   5.199   1.282   5.032  0.8444 -0.9348  0.6338
  115MOL   C12227710   5.565   1.352   4.931  0.3007 -0.5785  0.7679
  115MOL   C12327711   5.662   1.230   4.963 -1.3044 -0.1925 -0.0259
  115MOL   C12427712   5.697   1.167   4.825  0.3339  0.0085 -0.2186
  115MOL   C12527713   5.792   1.286   5.027  0.1716  0.6002 -0.0466
  115MOL   O12627714   5.826   1.259   5.139  0.7193  0.0864 -0.4667
  115MOL   O12727715   5.868   1.369   4.947  0.0249  0.6542 -0.6209
  115MOL   H12827716   5.506   1.321   4.845  0.9006  0.5229 -0.0558
  115MOL   H12927717   5.627   1.431   4.889 -1.0438 -0.3168 -0.7903
  115MOL   H13027718   5.606   1.116   4.794  1.2576 -1.0690 -1.2002
  115MOL   H13127719   5.774   1.091   4.840 -1.9013 -1.8703  2.1150
  115MOL   H13227720   5.733   1.239   4.751 -1.0271 -2.3893 -3.2972
  115MOL   H13327721   5.938   1.401   5.002 -1.8778  3.4838  0.2540
  115MOL   C13427722   5.586   1.124   5.058 -0.4469 -0.9855 -0.4273
  115MOL   C13527723   5.636   0.975   5.078  0.3071 -0.4186 -1.0049
  115MOL   C13627724   5.619   0.891   4.948  0.0423  0.5336 -0.1458
  115MOL   C13727725   5.785   0.962   5.103 -0.2874  0.0583  0.9126
  115MOL   O13827726   5.875   0.934   5.025  0.0707  0.5566 -0.2776
  115MOL   O13927727   5.814   1.007   5.227  0.1578  0.4887 -0.5412
  115MOL   H14027728   5.577   1.165   5.159  0.3471 -0.5493 -0.5339
  115MOL   H14127729   5.483   1.120   5.022 -0.0384 -2.6662 -1.4701
  115MOL   H14227730   5.677   0.901   4.856 -0.7571 -1.4925 -0.8859
  115MOL   H14327731   5.517   0.898   4.910 -0.2712  2.2653  0.9640
  115MOL   H14427732   5.640   0.790   4.983 -0.0056  1.0624  1.4500
  115MOL   H14527733   5.908   1.002   5.235 -0.0780 -1.3386  1.4991
  115MOL   C14627734   5.555   0.906   5.197 -0.1726 -0.5910 -0.1593
  115MOL   C14727735   5.412   0.836   5.182 -0.3070  0.2420 -0.2659
  115MOL   C14827736   5.314   0.933   5.119 -0.0066  0.6954 -0.1617
  115MOL   C14927737   5.432   0.702   5.109 -0.2153  0.1744  0.7345
  115MOL   O15027738   5.520   0.618   5.141 -0.2983 -0.6165 -0.0549
  115MOL   O15127739   5.354   0.688   4.996  0.9846 -0.3916 -0.0479
  115MOL   H15227740   5.620   0.834   5.246 -0.6835  0.9869  2.9265
  115MOL   H15327741   5.554   0.984   5.273  2.4279 -1.3625  0.6989
  115MOL   H15427742   5.212   0.895   5.112 -0.0306  0.6421  0.4853
  115MOL   H15527743   5.331   0.938   5.011 -1.8362 -1.5951 -0.5897
  115MOL   H15627744   5.311   1.028   5.173 -0.6181  0.4630  0.2141
  115MOL   H15727745   5.403   0.644   4.927  0.0235 -0.0525 -0.9569
  115MOL   C15827746   5.373   0.803   5.333  0.7776 -0.1280  0.4040
  115MOL   C15927747   5.220   0.766   5.379  0.1169  0.3180  0.8312
  115MOL   C16027748   5.225   0.728   5.524  0.5273 -0.3471  0.0676
  115MOL   C16127749   5.128   0.889   5.376 -0.3779  0.2575 -0.2023
  115MOL   O16227750   5.173   1.003   5.394  0.3422  0.4101 -0.1710
  115MOL   O16327751   4.996   0.864   5.388 -0.0305 -0.2644 -0.0776
  115MOL   H16427752   5.439   0.725   5.372 -0.9881 -1.2992  1.1654
  115MOL   H16527753   5.406   0.888   5.392  1.1592  0.0804 -0.1174
  115MOL   H16627754   5.261   0.627   5.544 -1.3430 -0.9135  0.6887
  115MOL   H16727755   5.126   0.730   5.570 -0.5376 -1.7776 -2.0926
  115MOL   H16827756   5.285   0.800   5.580 -0.0209  1.2530 -1.3780
  115MOL   H16927757   4.985   0.773   5.409 -1.9823 -0.1419 -0.4535
  115MOL   C17027758   5.148   0.656   5.283  0.6812 -0.2689  0.2900
  115MOL   C17127759   5.144   0.500   5.317 -0.9022  0.9239  0.2968
  115MOL   C17227760   5.293   0.450   5.330  0.6970  0.0484 -1.0306
  115MOL   C17327761   5.059   0.473   5.445 -0.3132 -0.4994  0.2332
  115MOL   O17427762   5.098   0.421   5.552  0.1019  0.4276 -0.3365
  115MOL   O17527763   4.937   0.532   5.425 -0.1598 -0.0256 -0.0479
  115MOL   H17627764   5.047   0.675   5.244  1.0370  0.6717 -0.2056
  115MOL   H17727765   5.198   0.672   5.188 -2.4351  1.6157 -1.1407
  115MOL   H17827766   5.351   0.498   5.252 -2.2566  0.8169 -2.8107
  115MOL   H17927767   5.300   0.342   5.316  0.9690 -0.2912  1.4050
  115MOL   H18027768   5.334   0.469   5.430 -0.5075  3.6745 -1.1658
  115MOL   H18127769   4.882   0.505   5.497  1.7711 -1.2097  1.0354
  115MOL   C18227770   5.082   0.435   5.186 -0.2110 -0.2587 -0.5878
  115MOL   C18327771   5.085   0.279   5.155 -0.1361  0.8737  0.2679
  115MOL   C18427772   5.222   0.254   5.067  0.4630  0.1215 -0.5330
  115MOL   C18527773   5.080   0.190   5.283  0.0596  0.1740 -0.0542
  115MOL   O18627774   5.176   0.128   5.333 -0.3631  0.2236  0.3409
  115MOL   O18727775   4.959   0.196   5.341  0.2517 -0.4526  0.0578
  115MOL   H18827776   4.978   0.468   5.191  0.1214  0.9605 -1.3935
  115MOL   H18927777   5.121   0.487   5.099 -0.3501 -1.6704 -1.5180
  115MOL   H19027778   5.239   0.148   5.050 -1.6291 -0.4040  0.5539
  115MOL   H19127779   5.311   0.305   5.106 -1.7342  2.4132  1.6853
  115MOL   H19227780   5.202   0.290   4.966  0.2453  2.2143  0.2393
  115MOL   H19327781   4.941   0.152   5.423 -3.8303 -0.0298 -0.5146
  115MOL   C19427782   4.958   0.252   5.062 -0.3276 -0.6090  0.3326
  115MOL   C19527783   4.928   0.120   4.979 -0.4409  0.4570  0.2885
  115MOL   C19627784   4.800   0.156   4.910 -1.0867 -0.4701  0.3682
  115MOL   C19727785   5.043   0.093   4.872 -0.3191 -0.0549  0.0811
  115MOL   O19827786   5.132   0.011   4.888  0.0866  0.1670  0.6356
  115MOL   O19927787   5.032   0.165   4.762 -0.0232 -0.0351 -0.1337
  115MOL   H20027788   4.873   0.269   5.128 -0.5345  0.7536 -0.2471
  115MOL   H20127789   4.960   0.332   4.987  2.7038  0.5839  1.6107
  115MOL   H20227790   4.810   0.250   4.856 -0.0098 -0.8951 -0.1992
  115MOL   H20327791   4.716   0.166   4.978  0.3844  0.6433  2.0472
  115MOL   H20427792   4.772   0.082   4.834 -1.7568  0.1259  0.0220
  115MOL   H20527793   5.093   0.146   4.692 -0.1071  1.8198 -0.7375
  115MOL   C20627794   4.926   0.007   5.089 -0.1391 -0.7709  0.2357
  115MOL   C20727795   4.854   7.634   5.088 -0.2628  0.0577  0.3575
  115MOL   C20827796   4.921   7.564   4.968 -0.7549 -1.0675 -0.0823
  115MOL   C20927797   4.895   7.553   5.217  0.3516  0.3871 -0.5645
  115MOL   O21027798   4.922   7.432   5.218  0.3747  0.8317  0.2049
  115MOL   O21127799   4.903   7.626   5.332  0.1325 -0.2300  0.0540
  115MOL   H21227800   5.027   0.002   5.129  0.6012  1.6842 -1.2223
  115MOL   H21327801   4.866   0.051   5.168 -0.2960  0.5205 -0.5909
  115MOL   H21427802   4.897   7.610   4.873  1.9989 -1.1177 -0.8393
  115MOL   H21527803   4.896   7.457   4.965  0.6310 -1.3604 -1.2738
  115MOL   H21627804   5.030   7.555   4.967 -0.5903  0.8134  0.3187
  115MOL   H21727805   4.935   7.566   5.397 -1.1291 -2.5332 -1.3855
  115MOL   C21827806   4.695   7.652   5.077 -0.5637  0.3038  1.0536
  115MOL   C21927807   4.595   7.533   5.074  0.4120 -0.0745 -0.3378
  115MOL   C22027808   4.463   7.599   5.034  0.5445 -0.0840 -0.2088
  115MOL   C22127809   4.635   7.429   4.961 -0.3043  0.0352  0.0260
  115MOL   O22227810   4.658   7.316   4.983 -0.5825  0.3453 -0.2535
  115MOL   O22327811   4.625   7.491   4.840  0.6824 -0.6933 -0.0803
  115MOL   H22427812   4.666   7.727   5.151 -0.0521 -2.3141  4.0223
  115MOL   H22527813   4.684   7.693   4.977 -0.9388 -1.4341  0.3716
  115MOL   H22627814   4.377   7.535   5.013 -1.7694  2.3551  1.5536
  115MOL   H22727815   4.472   7.665   4.948  3.2428 -0.6702 -0.4442
  115MOL   H22827816   4.426   7.657   5.118  0.5188  0.3682 -0.5288
  115MOL   H22927817   4.667   7.442   4.771  1.1932 -1.0372  0.4656
  115MOL   C23027818   4.583   7.469   5.216  0.4826 -0.3695  0.1898
  115MOL   C23127819   4.461   7.378   5.248 -0.1036 -0.0868 -0.0244
  115MOL   C23227820   4.508   7.246   5.313  0.4047 -0.3041 -0.0703
  115MOL   C23327821   4.347   7.445   5.328 -0.2576 -0.0450  0.0397
  115MOL   O23427822   4.367   7.488   5.441 -0.1125  0.2109  0.2585
  115MOL   O23527823   4.221   7.435   5.280  0.0239 -0.5708 -0.4935
  115MOL   H23627824   4.675   7.426   5.256  2.2423  1.6630 -1.5577
  115MOL   H23727825   4.578   7.554   5.284 -0.1763  0.3545 -0.7545
  115MOL   H23827826   4.575   7.253   5.400 -1.5341 -1.0853  1.5171
  115MOL   H23927827   4.571   7.192   5.243 -2.0026 -1.0760 -1.6644
  115MOL   H24027828   4.424   7.180   5.329 -0.5416  0.7613 -0.5740
  115MOL   H24127829   4.163   7.488   5.333  1.1144  0.5304 -0.3558
  115MOL   H24227830   4.416   7.355   5.151 -1.5944 -0.8491  0.8386
  116MOL     C127831   3.227   0.052   5.633  0.0058 -0.4738  0.2462
  116MOL     C227832   3.085   0.094   5.595 -0.4070 -0.6504 -0.1654
  116MOL     C327833   2.993   7.738   5.594 -0.1122  0.0035 -0.7045
  116MOL     C427834   3.038   0.184   5.723 -0.6875 -0.2933 -0.4555
  116MOL     O527835   2.973   0.139   5.819  0.2325  0.0983 -0.2578
  116MOL     O627836   3.087   0.311   5.708 -0.0431 -0.2838 -0.3826
  116MOL     H727837   3.246   0.049   5.740 -2.9262  2.5582  0.9098
  116MOL     H827838   3.297   0.117   5.581 -0.4311 -0.7162 -0.6620
  116MOL     H927839   2.994   7.680   5.687  1.3471  2.1023  0.6435
  116MOL    H1027840   3.025   7.674   5.511  0.0417  0.0368 -0.6714
  116MOL    H1127841   2.893   7.766   5.563 -0.5887  1.0535  1.6915
  116MOL    H1227842   3.067   0.376   5.773 -0.7382 -0.5733 -0.3063
  116MOL    H1327843   3.242   7.713   5.613 -1.2680 -0.2331 -2.2375
  116MOL    C1427844   3.077   0.185   5.468  0.0589 -0.7548  0.7876
  116MOL    C1527845   3.081   0.121   5.323  0.6518 -0.6018 -0.3607
  116MOL    C1627846   3.197   0.017   5.306 -0.5761 -0.0628  0.2574
  116MOL    C1727847   2.946   0.053   5.298 -0.3861  0.6107  0.2385
  116MOL    O1827848   2.936   7.698   5.265  0.7267 -0.2930  0.1562
  116MOL    O1927849   2.846   0.140   5.299 -0.0265 -0.0590  0.0318
  116MOL    H2027850   2.991   0.252   5.477  1.4637  0.9872  1.8106
  116MOL    H2127851   3.161   0.255   5.476 -0.5982 -0.1454  2.7339
  116MOL    H2227852   3.283   0.052   5.362 -1.4483 -0.7511  2.0546
  116MOL    H2327853   3.225   7.765   5.202  0.3351 -1.4513  0.7494
  116MOL    H2427854   3.185   7.687   5.355 -1.1824 -0.9434 -1.5757
  116MOL    H2527855   2.891   0.218   5.328 -0.4113  0.5065 -0.8391
  116MOL    C2627856   3.089   0.238   5.212 -0.1647  0.7954 -0.1361
  116MOL    C2727857   3.202   0.346   5.206  0.6312 -0.1078  1.0942
  116MOL    C2827858   3.179   0.465   5.310  0.1797  0.5333  0.2637
  116MOL    C2927859   3.342   0.283   5.224 -0.4175  0.6993  0.3243
  116MOL    O3027860   3.423   0.313   5.314  0.3729 -0.3065 -0.1321
  116MOL    O3127861   3.368   0.205   5.120 -0.7067  0.0119 -0.1457
  116MOL    H3227862   3.083   0.193   5.114 -5.1244  1.7681 -0.3940
  116MOL    H3327863   3.007   0.310   5.215  0.1104  1.1589 -1.0515
  116MOL    H3427864   3.118   0.532   5.250  0.4561 -0.2756 -0.9479
  116MOL    H3527865   3.270   0.517   5.338  0.4788  1.7175 -2.7678
  116MOL    H3627866   3.116   0.437   5.394 -1.2253 -0.7306 -1.1673
  116MOL    H3727867   3.460   0.184   5.116 -0.2742  1.7371  0.6795
  116MOL    C3827868   3.192   0.399   5.051  0.2790  0.7018  0.0957
  116MOL    C3927869   3.272   0.514   4.980 -0.3302  0.3218  0.0243
  116MOL    C4027870   3.276   0.637   5.066 -0.3223 -0.2468  0.4990
  116MOL    C4127871   3.415   0.470   4.954 -0.4433  0.1612 -0.8454
  116MOL    O4227872   3.436   0.369   4.889 -0.3572 -0.3066 -0.3449
  116MOL    O4327873   3.518   0.546   4.993  0.3537  0.0956  0.3857
  116MOL    H4427874   3.186   0.320   4.977  2.6477  2.1425 -1.6827
  116MOL    H4527875   3.092   0.443   5.050  1.2265  2.9770  0.2871
  116MOL    H4627876   3.321   0.622   5.164  0.2689  4.6138  1.0897
  116MOL    H4727877   3.171   0.666   5.065 -0.1311  0.4125 -0.5091
  116MOL    H4827878   3.338   0.714   5.021  0.4366 -1.2478 -0.1948
  116MOL    H4927879   3.482   0.621   5.039 -1.6519 -1.0626  0.7505
  116MOL    C5027880   3.194   0.543   4.841 -0.4433  0.2665  0.3776
  116MOL    C5127881   3.199   0.674   4.754  0.1542 -0.4783 -0.6550
  116MOL    C5227882   3.124   0.788   4.836  0.1098 -0.0142  0.4440
  116MOL    C5327883   3.344   0.721   4.736  1.2750 -0.0985  0.8493
  116MOL    O5427884   3.385   0.834   4.764 -0.1239  0.4257  0.8195
  116MOL    O5527885   3.421   0.620   4.688  0.0521  0.2508 -0.3869
  116MOL    H5627886   3.232   0.476   4.764 -1.0057  0.0734  0.2602
  116MOL    H5727887   3.089   0.514   4.848 -0.5308  0.1454 -1.2346
  116MOL    H5827888   3.188   0.819   4.918 -1.6200  2.8288  0.7879
  116MOL    H5927889   3.044   0.739   4.892  0.4709  0.7799  1.6726
  116MOL    H6027890   3.094   0.879   4.784  2.8999 -0.4045 -1.9996
  116MOL    H6127891   3.510   0.648   4.681 -0.3830  1.8477  0.2122
  116MOL    C6227892   3.125   0.639   4.617 -0.7475  0.3624  0.0634
  116MOL    C6327893   3.149   0.713   4.482  0.5210  0.0604  0.5019
  116MOL    C6427894   3.130   0.867   4.501 -0.4735 -0.1233 -0.0250
  116MOL    C6527895   3.289   0.682   4.425 -0.6138 -0.4274 -0.0330
  116MOL    O6627896   3.374   0.762   4.392  0.4880 -0.3826 -0.4533
  116MOL    O6727897   3.311   0.549   4.420 -0.4783 -0.3532  0.2552
  116MOL    H6827898   3.111   0.533   4.596 -0.5560  0.3236  0.1351
  116MOL    H6927899   3.021   0.665   4.639 -1.1549  0.0190 -1.3600
  116MOL    H7027900   3.035   0.897   4.545  0.9704 -0.5345  3.5922
  116MOL    H7127901   3.151   0.926   4.413 -0.9473 -0.1206 -0.1372
  116MOL    H7227902   3.205   0.898   4.574 -1.1173  1.7406 -0.1402
  116MOL    H7327903   3.397   0.524   4.388 -0.4923  0.0466 -0.0981
  116MOL    C7427904   3.035   0.661   4.376  0.3034 -0.1363  0.0903
  116MOL    C7527905   3.008   0.727   4.239 -0.3498  0.5186 -0.1304
  116MOL    C7627906   2.885   0.819   4.260  0.0656 -0.3971 -0.0155
  116MOL    C7727907   3.128   0.802   4.180 -0.2985  0.8549  0.1813
  116MOL    O7827908   3.136   0.925   4.168  0.5432  0.0744 -0.1430
  116MOL    O7927909   3.228   0.719   4.128  0.6328 -0.2831 -0.7044
  116MOL    H8027910   3.054   0.555   4.360  1.0326 -0.2475  1.6113
  116MOL    H8127911   2.941   0.661   4.432 -0.2878 -0.9971 -0.8805
  116MOL    H8227912   2.891   0.883   4.348  0.9046  1.6662 -1.5261
  116MOL    H8327913   2.789   0.767   4.252  0.8159 -1.4529 -2.7811
  116MOL    H8427914   2.887   0.899   4.186 -2.2644 -0.0101  0.3103
  116MOL    H8527915   3.300   0.764   4.088  1.5964  1.5860  2.9123
  116MOL    C8627916   2.960   0.611   4.146  0.8752  0.0997 -0.4371
  116MOL    C8727917   2.907   0.623   3.996  0.4240  0.2488 -0.6043
  116MOL    C8827918   3.013   0.693   3.908 -0.3473  0.3004  0.6275
  116MOL    C8927919   2.882   0.482   3.948 -0.9840  0.9132  0.2403
  116MOL    O9027920   2.899   0.438   3.830  0.0762  0.0014 -0.2816
  116MOL    O9127921   2.825   0.403   4.046  0.1207 -0.2163 -0.3883
  116MOL    H9227922   3.048   0.546   4.140  0.5660 -0.5820  2.0842
  116MOL    H9327923   2.878   0.564   4.201  1.2139  3.1575  2.8056
  116MOL    H9427924   3.113   0.654   3.928 -0.2803 -0.5820 -1.3361
  116MOL    H9527925   3.011   0.798   3.938  0.4428  0.7519 -0.8747
  116MOL    H9627926   3.000   0.684   3.801  2.6181 -1.4833  0.3434
  116MOL    H9727927   2.796   0.322   4.006 -0.1443 -0.3292  0.0308
  116MOL    C9827928   2.777   0.708   3.988  0.5221  0.1151 -0.9749
  116MOL    C9927929   2.671   0.737   3.869  0.2759 -0.9172  0.2336
  116MOL   C10027930   2.737   0.795   3.741  0.1571  0.4729 -0.3266
  116MOL   C10127931   2.619   0.599   3.830  0.5579  0.3240  0.3914
  116MOL   O10227932   2.635   0.547   3.722  0.3744  0.4748 -0.9888
  116MOL   O10327933   2.548   0.532   3.925 -0.8041 -0.2084 -0.1121
  116MOL   H10427934   2.721   0.677   4.077 -1.4788 -0.8202 -2.5196
  116MOL   H10527935   2.811   0.810   4.008  1.1278 -0.0018 -1.4252
  116MOL   H10627936   2.670   0.814   3.657 -0.9900 -1.8653  0.0047
  116MOL   H10727937   2.816   0.726   3.709  1.0062  1.0703  0.4414
  116MOL   H10827938   2.791   0.884   3.773 -0.5600  1.0381 -0.6888
  116MOL   H10927939   2.525   0.445   3.896 -2.0068  0.2632 -0.6019
  116MOL   C11027940   2.557   0.828   3.939 -0.5828  0.3259  0.1969
  116MOL   C11127941   2.445   0.915   3.851 -0.5268 -0.0414  0.0264
  116MOL   C11227942   2.518   1.031   3.780  0.2018  0.5593 -0.2886
  116MOL   C11327943   2.379   0.815   3.752  0.7758  0.1920 -0.1022
  116MOL   O11427944   2.385   0.832   3.632 -0.2672 -0.3958 -0.0497
  116MOL   O11527945   2.332   0.699   3.800  0.0804 -0.3267 -0.3218
  116MOL   H11627946   2.505   0.751   3.997  2.3771 -1.5556  0.5047
  116MOL   H11727947   2.592   0.909   4.003 -2.1580  0.5688  0.7743
  116MOL   H11827948   2.597   0.999   3.713 -0.0995  3.8674 -2.3555
  116MOL   H11927949   2.548   1.120   3.836 -0.6882 -0.4167  1.7690
  116MOL   H12027950   2.441   1.080   3.719 -0.7287  1.0649  1.2674
  116MOL   H12127951   2.305   0.638   3.733 -0.6695 -1.7663  1.2493
  116MOL   C12227952   2.331   0.958   3.953  0.3714 -0.7180  0.3323
  116MOL   C12327953   2.336   1.092   4.036  0.3530 -0.0461 -0.1204
  116MOL   C12427954   2.462   1.093   4.136 -0.2932  0.3073  0.0132
  116MOL   C12527955   2.337   1.213   3.947  0.1806 -0.2264  0.1966
  116MOL   O12627956   2.433   1.297   3.940 -0.0470  0.2818 -0.3328
  116MOL   O12727957   2.232   1.205   3.854  0.0301 -0.4772  0.0902
  116MOL   H12827958   2.232   0.954   3.907  0.7949 -1.2539 -0.5564
  116MOL   H12927959   2.327   0.883   4.032  1.5626  0.2328  1.3218
  116MOL   H13027960   2.557   1.121   4.090 -0.4829  3.2689  1.3297
  116MOL   H13127961   2.476   0.993   4.177 -2.9698  0.2800  0.9367
  116MOL   H13227962   2.444   1.162   4.218 -1.1688  2.2735 -1.7825
  116MOL   H13327963   2.238   1.280   3.796  3.3415  0.7481  1.8678
  116MOL   C13427964   2.210   1.087   4.130  0.4976 -0.3227  0.0023
  116MOL   C13527965   2.137   1.213   4.196 -0.4424 -0.4040  0.0387
  116MOL   C13627966   2.241   1.312   4.257  0.3403  0.0584  0.2838
  116MOL   C13727967   2.049   1.286   4.087  0.7259  0.0608 -0.6577
  116MOL   O13827968   2.078   1.397   4.055  0.0186 -0.4346 -0.7783
  116MOL   O13927969   1.947   1.215   4.041  0.3230  0.3312 -0.0393
  116MOL   H14027970   2.122   1.037   4.089  1.5046  0.2295 -2.9918
  116MOL   H14127971   2.238   1.025   4.215  1.1562 -0.2949 -0.1923
  116MOL   H14227972   2.292   1.259   4.338  0.8613 -0.1643 -0.1865
  116MOL   H14327973   2.189   1.386   4.317  0.3661 -0.1183  0.5251
  116MOL   H14427974   2.307   1.360   4.184 -0.2367 -1.8991 -1.5885
  116MOL   H14527975   1.918   1.133   4.078  0.0792  0.0020 -0.9572
  116MOL   C14627976   2.048   1.147   4.303 -0.1521 -0.1452  0.1176
  116MOL   C14727977   1.921   1.217   4.384 -0.1328  0.0794  0.6211
  116MOL   C14827978   1.961   1.364   4.406  1.0334  0.4907 -0.2266
  116MOL   C14927979   1.791   1.201   4.303 -0.4191 -0.7022  0.4175
  116MOL   O15027980   1.765   1.108   4.225 -0.3167 -0.6242 -0.3799
  116MOL   O15127981   1.694   1.295   4.340  0.0815 -0.3668  0.5870
  116MOL   H15227982   2.003   1.056   4.265 -0.6505  0.3123 -0.4091
  116MOL   H15327983   2.118   1.109   4.376  0.5594 -0.1721 -0.5706
  116MOL   H15427984   1.992   1.416   4.316  0.0152 -0.4585 -1.1313
  116MOL   H15527985   2.041   1.372   4.480  0.0235  0.9348  0.8375
  116MOL   H15627986   1.874   1.417   4.447  0.7755 -0.3174  0.2838
  116MOL   H15727987   1.605   1.294   4.311  0.1119 -2.6700  0.4706
  116MOL   C15827988   1.915   1.131   4.516 -0.4713 -0.0987 -0.0914
  116MOL   C15927989   1.796   1.122   4.621  0.1813  0.0007  0.0689
  116MOL   C16027990   1.759   1.267   4.673 -0.4359  0.2683 -0.3896
  116MOL   C16127991   1.673   1.052   4.563  0.1133  0.7610 -0.3621
  116MOL   O16227992   1.561   1.099   4.580 -0.1780 -0.0640  0.3892
  116MOL   O16327993   1.704   0.941   4.496  0.0102  0.2137 -0.1114
  116MOL   H16427994   1.942   1.032   4.479 -1.0747  0.0355 -0.9006
  116MOL   H16527995   1.992   1.176   4.578 -1.3339 -1.3965  1.9623
  116MOL   H16627996   1.666   1.263   4.730 -0.4900 -0.9587 -0.5523
  116MOL   H16727997   1.738   1.334   4.590 -1.3991  1.2689  0.6513
  116MOL   H16827998   1.833   1.314   4.737  0.1560 -1.8488  0.5425
  116MOL   H16927999   1.626   0.894   4.470 -1.6188  0.8842  3.2785
  116MOL   C17028000   1.859   1.036   4.731  0.2016  0.0982 -0.0008
  116MOL   C17128001   1.781   0.973   4.856  0.5217 -0.4382 -1.2677
  116MOL   C17228002   1.684   1.070   4.914 -0.3755 -0.0614 -0.6364
  116MOL   C17328003   1.704   0.843   4.808 -0.3814  0.4484  1.0865
  116MOL   O17428004   1.756   0.750   4.747  0.2900  0.4591  0.1114
  116MOL   O17528005   1.575   0.840   4.855 -0.4371 -0.3179 -0.1987
  116MOL   H17628006   1.898   0.950   4.677  2.7729 -0.2130  2.2607
  116MOL   H17728007   1.948   1.091   4.762 -0.2641  0.4189  0.7963
  116MOL   H17828008   1.629   1.051   5.006  0.4959 -2.2667 -0.5481
  116MOL   H17928009   1.618   1.080   4.828 -1.5501 -0.5369  0.1920
  116MOL   H18028010   1.719   1.172   4.931 -0.6796 -0.1624  0.6413
  116MOL   H18128011   1.533   0.921   4.879  1.7246  0.5170  0.8922
  116MOL   C18228012   1.894   0.923   4.957 -0.4396  0.2442  0.2591
  116MOL   C18328013   1.963   1.009   5.071  1.0395  0.4781 -0.1395
  116MOL   C18428014   2.005   1.141   5.005 -0.3641 -0.7897  0.1390
  116MOL   C18528015   1.852   1.032   5.178 -0.2294 -0.1183  0.3863
  116MOL   O18628016   1.812   1.143   5.220  0.3039  0.5587  0.3466
  116MOL   O18728017   1.818   0.907   5.225 -0.1008 -0.1772  0.6714
  116MOL   H18828018   1.859   0.832   5.007 -0.0233 -0.2284 -0.2972
  116MOL   H18928019   1.970   0.880   4.891 -0.6685  0.4298 -0.1263
  116MOL   H19028020   1.921   1.205   4.978 -0.2571 -0.9076 -0.4870
  116MOL   H19128021   2.074   1.123   4.923 -0.3569 -2.0974  0.4170
  116MOL   H19228022   2.079   1.194   5.065 -0.7402 -1.1989  0.9688
  116MOL   H19328023   1.749   0.918   5.288 -1.6907  0.1960 -1.0804
  116MOL   C19428024   2.085   0.930   5.136  0.6543  0.1694  0.4357
  116MOL   C19528025   2.214   0.990   5.196  0.2979 -0.0613  0.0912
  116MOL   C19628026   2.289   0.871   5.266 -0.0652  0.0791  0.3372
  116MOL   C19728027   2.303   1.032   5.075  0.1719 -0.8652 -0.6387
  116MOL   O19828028   2.346   1.146   5.064 -0.0287  0.1944 -0.0056
  116MOL   O19928029   2.335   0.935   4.989 -0.3272 -0.1999 -0.1613
  116MOL   H20028030   2.042   0.868   5.215 -0.8983  1.4824  0.6323
  116MOL   H20128031   2.104   0.848   5.067  0.2160  0.1397  0.3521
  116MOL   H20228032   2.398   0.879   5.271 -0.1360  0.4448  1.4875
  116MOL   H20328033   2.267   0.781   5.209 -1.1252  1.5848 -1.7017
  116MOL   H20428034   2.252   0.868   5.368  0.8372 -1.6015  0.6307
  116MOL   H20528035   2.404   0.958   4.928 -0.6595  2.3423  0.3841
  116MOL   C20628036   2.175   1.094   5.304  0.3528  0.6607  0.4359
  116MOL   C20728037   2.276   1.185   5.387  0.7047  0.9762 -0.2293
  116MOL   C20828038   2.415   1.109   5.391 -0.1720 -0.0840  0.2590
  116MOL   C20928039   2.287   1.322   5.318  0.3907 -0.4663 -0.0533
  116MOL   O21028040   2.188   1.373   5.258  0.1140  0.3109  0.0469
  116MOL   O21128041   2.400   1.391   5.337 -0.1830 -0.1624  0.5846
  116MOL   H21228042   2.095   1.158   5.266 -0.9454 -0.7007  0.8501
  116MOL   H21328043   2.111   1.034   5.369  3.2294 -1.8342  1.0473
  116MOL   H21428044   2.408   1.022   5.457  1.5694  0.2113  0.8622
  116MOL   H21528045   2.478   1.173   5.452  0.6309 -2.0142  1.4973
  116MOL   H21628046   2.477   1.093   5.302 -1.7006  0.5286 -0.9457
  116MOL   H21728047   2.402   1.478   5.299  1.4509 -0.6501 -0.5086
  116MOL   C21828048   2.226   1.206   5.535 -0.2515 -0.5714  0.4154
  116MOL   C21928049   2.092   1.269   5.587 -0.1288 -0.4388 -0.2900
  116MOL   C22028050   2.102   1.423   5.586  0.6651 -0.5133  0.1561
  116MOL   C22128051   1.967   1.217   5.509 -0.5960 -0.6881  0.0991
  116MOL   O22228052   1.915   1.107   5.512 -0.1194 -0.3546  0.2134
  116MOL   O22328053   1.919   1.310   5.420 -0.1298 -0.3945 -0.5301
  116MOL   H22428054   2.227   1.109   5.584 -3.4047  0.5327  2.8593
  116MOL   H22528055   2.302   1.265   5.585 -0.9336  0.4475  0.2721
  116MOL   H22628056   2.130   1.454   5.485  0.3524  0.7007  0.4421
  116MOL   H22728057   2.175   1.461   5.657 -0.1737 -0.9341  1.2553
  116MOL   H22828058   2.007   1.476   5.596  0.9179 -0.1008  0.3398
  116MOL   H22928059   1.862   1.275   5.354 -0.7679  0.7444 -0.6001
  116MOL   C23028060   2.088   1.225   5.737  0.6022 -0.2181  0.2707
  116MOL   C23128061   1.969   1.279   5.830 -0.0931 -0.8049  0.4356
  116MOL   C23228062   1.881   1.175   5.894  0.6567 -0.8840  0.2238
  116MOL   C23328063   2.011   1.391   5.928  0.6152 -0.1056 -0.3955
  116MOL   O23428064   2.064   1.369   6.036 -0.2214 -0.6598 -0.0411
  116MOL   O23528065   1.966   1.518   5.888 -0.2707  0.0297  0.6049
  116MOL   H23628066   2.083   1.116   5.741 -1.1938 -0.1903 -0.3456
  116MOL   H23728067   2.182   1.256   5.782  2.0176  0.6697 -3.1500
  116MOL   H23828068   1.824   1.111   5.826 -1.7239  0.3215  1.0299
  116MOL   H23928069   1.801   1.213   5.958  0.5143 -1.2793  0.2850
  116MOL   H24028070   1.947   1.120   5.961  1.7324 -0.8846 -0.8122
  116MOL   H24128071   1.985   1.588   5.949  1.3264 -0.4272  0.6840
  116MOL   H24228072   1.894   1.323   5.765  0.8546  1.1288  0.5825
  117MOL     C128073   0.456   0.067   1.950 -0.1129 -0.1260 -0.3159
  117MOL     C228074   0.580   0.076   1.859 -0.2571  0.0819  0.4046
  117MOL     C328075   0.657   0.203   1.910  0.1672  0.1658  0.1257
  117MOL     C428076   0.670   7.719   1.888 -0.2867 -0.0240  0.6994
  117MOL     O528077   0.772   7.732   1.953 -0.0262 -0.2579  0.5209
  117MOL     O628078   0.627   7.601   1.825 -0.1334 -0.2479 -0.5450
  117MOL     H728079   0.465   0.049   2.057 -0.1070  2.1039  0.0827
  117MOL     H828080   0.391   7.756   1.912  1.0164 -1.5236  0.5630
  117MOL     H928081   0.600   0.293   1.888  0.0520 -0.0874 -0.6059
  117MOL    H1028082   0.756   0.207   1.866 -0.7585 -2.2313 -2.3213
  117MOL    H1128083   0.666   0.199   2.019 -0.2604 -0.6751  0.1317
  117MOL    H1228084   0.698   7.539   1.820  0.7201  0.7027 -0.1861
  117MOL    H1328085   0.400   0.160   1.939  0.1830  0.3511  1.9630
  117MOL    C1428086   0.519   0.087   1.715  0.0005 -0.4632 -0.6058
  117MOL    C1528087   0.599   0.123   1.580  0.0297  0.5767 -0.2437
  117MOL    C1628088   0.633   0.282   1.580  0.4784  0.3642 -0.2361
  117MOL    C1728089   0.728   0.038   1.579 -0.1518  0.8931 -0.7590
  117MOL    O1828090   0.741   7.682   1.555  0.4595 -0.7915  0.0669
  117MOL    O1928091   0.843   0.104   1.607  0.4329  0.4555  0.4835
  117MOL    H2028092   0.462   7.763   1.702 -3.7353  1.7972 -0.7459
  117MOL    H2128093   0.441   0.163   1.714 -0.7891 -1.2791 -1.6199
  117MOL    H2228094   0.702   0.314   1.501 -0.9913  0.5526 -1.4649
  117MOL    H2328095   0.677   0.305   1.677 -0.5361 -1.2737  0.6200
  117MOL    H2428096   0.540   0.340   1.576 -0.1583 -0.6355  0.0279
  117MOL    H2528097   0.921   0.052   1.625  1.3106  2.2287  1.9728
  117MOL    C2628098   0.501   0.091   1.460 -0.1927 -0.0360 -0.6933
  117MOL    C2728099   0.529   0.120   1.304 -0.2907 -0.3844  0.4928
  117MOL    C2828100   0.493   0.273   1.279  0.0943  0.1132 -0.0249
  117MOL    C2928101   0.678   0.090   1.268  0.6227 -0.1942 -0.6378
  117MOL    O3028102   0.769   0.165   1.230 -0.1120 -0.5276 -0.0793
  117MOL    O3128103   0.696   7.720   1.279  0.4520  0.6439 -0.0741
  117MOL    H3228104   0.484   7.751   1.471  4.0848 -1.1179 -3.3498
  117MOL    H3328105   0.408   0.141   1.486 -0.7204 -0.9658 -0.7808
  117MOL    H3428106   0.551   0.351   1.330  0.6107 -0.1195 -0.2482
  117MOL    H3528107   0.391   0.298   1.305  0.1092  1.0583 -0.8574
  117MOL    H3628108   0.524   0.307   1.180  2.2312 -1.4932  0.0502
  117MOL    H3728109   0.788   7.701   1.264  0.2820 -0.7869  0.6115
  117MOL    C3828110   0.442   0.023   1.216 -0.0582 -0.3728  0.5639
  117MOL    C3928111   0.428   0.035   1.057 -0.6900  0.4086 -0.1286
  117MOL    C4028112   0.318   0.138   1.016 -0.4216  0.1004 -0.0159
  117MOL    C4128113   0.559   0.066   0.981 -0.4859 -0.6665 -0.6112
  117MOL    O4228114   0.581   0.168   0.916  0.1298  0.2159 -0.2689
  117MOL    O4328115   0.647   7.734   0.982 -0.3144 -0.9507  0.0370
  117MOL    H4428116   0.464   7.689   1.252 -0.8728 -1.1063 -0.9824
  117MOL    H4528117   0.340   0.041   1.249  0.2240  0.6127  0.9221
  117MOL    H4628118   0.344   0.164   0.914  0.2527 -1.1072 -0.1589
  117MOL    H4728119   0.340   0.236   1.059 -2.8178  0.2455  0.9680
  117MOL    H4828120   0.215   0.110   1.041 -1.1368  1.1751 -1.6639
  117MOL    H4928121   0.723   0.006   0.943 -0.8695  0.1928  0.0817
  117MOL    C5028122   0.362   7.665   1.006  0.1085 -0.4083  0.1496
  117MOL    C5128123   0.313   7.625   0.856  0.4924 -0.1587 -0.0646
  117MOL    C5228124   0.418   7.647   0.741 -0.2867  0.0985 -0.9796
  117MOL    C5328125   0.272   7.481   0.861  0.4851 -0.0638 -0.8830
  117MOL    O5428126   0.289   7.402   0.773  0.4209 -0.3331 -0.2043
  117MOL    O5528127   0.208   7.440   0.979 -0.1289 -0.2070  0.2582
  117MOL    H5628128   0.430   7.589   1.042 -1.3737 -0.3615  3.2242
  117MOL    H5728129   0.278   7.653   1.074  0.5385 -1.7140  0.4528
  117MOL    H5828130   0.429   7.751   0.712  0.2405  0.2028 -0.4164
  117MOL    H5928131   0.396   7.577   0.660 -1.4460 -1.1867  0.4082
  117MOL    H6028132   0.516   7.624   0.782 -0.0876 -0.2488 -1.6465
  117MOL    H6128133   0.171   7.354   0.971 -1.1381  0.1878  0.6348
  117MOL    C6228134   0.178   7.702   0.816  0.2500 -0.2962 -0.0704
  117MOL    C6328135   0.101   7.709   0.680 -0.4087  0.2031 -0.9079
  117MOL    C6428136   0.183   0.006   0.567  0.2992 -0.4226  0.3113
  117MOL    C6528137   0.060   7.569   0.634  0.1178 -0.6857  0.8018
  117MOL    O6628138   0.111   7.509   0.537  0.0826  0.0427  0.3911
  117MOL    O6728139   7.742   7.516   0.723  0.0487 -0.7779 -0.1816
  117MOL    H6828140   0.109   7.693   0.900  0.0762  0.3570 -0.1390
  117MOL    H6928141   0.211   0.039   0.825  1.9279 -0.7836 -0.4311
  117MOL    H7028142   0.195   0.113   0.588  0.1766  0.2279 -2.6012
  117MOL    H7128143   0.131   7.759   0.472  0.7313  2.7089 -0.4438
  117MOL    H7228144   0.278   7.722   0.550 -0.8692 -2.4929 -0.0572
  117MOL    H7328145   7.708   7.434   0.691 -0.3998  0.2224 -2.3578
  117MOL    C7428146   7.739   0.024   0.722  0.1868 -0.1447  0.3818
  117MOL    C7528147   7.634   0.088   0.624 -0.3400 -0.6253  0.2383
  117MOL    C7628148   7.696   0.179   0.505  0.2887  0.2432 -0.6400
  117MOL    C7728149   7.551   7.745   0.560  0.2977  0.2727 -0.2247
  117MOL    O7828150   7.452   7.696   0.614  0.4735 -0.2741  0.0120
  117MOL    O7928151   7.602   7.692   0.447 -0.4221  0.4519  0.3839
  117MOL    H8028152   7.683   7.730   0.793  0.5751 -1.7552 -0.6526
  117MOL    H8128153   0.014   0.102   0.785  3.5222 -0.9725 -0.7521
  117MOL    H8228154   7.755   0.125   0.431  0.3459  0.5590 -0.8262
  117MOL    H8328155   7.749   0.266   0.543 -0.0354  0.6209 -1.0416
  117MOL    H8428156   7.629   0.215   0.426  0.5994  1.5225 -0.3275
  117MOL    H8528157   7.566   7.605   0.432  1.8291 -0.4677  0.0939
  117MOL    C8628158   7.531   0.188   0.707  0.4050 -0.2204 -0.3431
  117MOL    C8728159   7.558   0.260   0.843  0.0520 -0.4516 -0.0292
  117MOL    C8828160   7.445   0.371   0.849  0.7154  0.9341  0.6311
  117MOL    C8928161   7.538   0.163   0.952 -0.0813 -0.0254  0.1258
  117MOL    O9028162   7.630   0.122   1.017 -0.6149  0.0550 -0.1270
  117MOL    O9128163   7.415   0.135   0.970  0.1970  0.0268  0.0325
  117MOL    H9228164   7.517   0.268   0.634  1.3145 -0.3554 -0.6657
  117MOL    H9328165   7.437   0.132   0.711  1.4827 -1.9665  2.2158
  117MOL    H9428166   7.472   0.441   0.769  0.1294  0.3986 -0.0445
  117MOL    H9528167   7.432   0.420   0.945 -0.0906  3.7878 -0.8646
  117MOL    H9628168   7.354   0.321   0.818  0.8459  1.3644 -0.4794
  117MOL    H9728169   7.409   0.080   1.046  1.9668  0.8228  0.7702
  117MOL    C9828170   7.694   0.344   0.833 -0.1513 -0.2538  0.1093
  117MOL    C9928171   7.728   0.468   0.924  0.4192  0.3288  0.3673
  117MOL   C10028172   7.689   0.440   1.077 -0.4748 -0.3371  0.4274
  117MOL   C10128173   0.117   0.490   0.934 -0.2385  0.2029  0.1204
  117MOL   O10228174   0.174   0.545   1.035  0.5317 -0.4802  0.0025
  117MOL   O10328175   0.186   0.438   0.824 -0.4512 -0.3929 -0.4886
  117MOL   H10428176   0.011   0.276   0.844  1.5296  1.4591 -1.7365
  117MOL   H10528177   7.720   0.390   0.738 -0.0513 -0.1501  0.1870
  117MOL   H10628178   7.714   0.523   1.144  1.0753 -0.3373 -0.1349
  117MOL   H10728179   7.743   0.350   1.108 -0.2820  0.4609  2.5301
  117MOL   H10828180   7.582   0.430   1.094 -0.9241  1.0194 -1.4551
  117MOL   H10928181   0.279   0.453   0.818  0.0816 -3.3703 -0.4047
  117MOL   C11028182   7.653   0.606   0.894  0.2443  0.7872 -0.5715
  117MOL   C11128183   7.705   0.722   0.799 -0.1902 -0.1795 -0.2908
  117MOL   C11228184   0.068   0.785   0.848  0.0670 -0.3477 -0.8087
  117MOL   C11328185   7.726   0.671   0.651 -0.0150  0.4531  0.1088
  117MOL   O11428186   0.060   0.693   0.586  0.0046 -0.1190 -0.0776
  117MOL   O11528187   7.628   0.589   0.608  0.5336  0.2399  0.2736
  117MOL   H11628188   7.546   0.594   0.876 -0.1535  1.7385  1.0573
  117MOL   H11728189   7.630   0.652   0.990 -0.3105 -1.6834  0.5100
  117MOL   H11828190   0.067   0.824   0.950  1.4187 -1.2245 -0.4445
  117MOL   H11928191   0.086   0.880   0.797 -1.6560 -0.4554 -1.6475
  117MOL   H12028192   0.158   0.724   0.843  0.7950  0.7191 -1.0302
  117MOL   H12128193   7.630   0.567   0.516 -0.0931  0.1165  0.2836
  117MOL   C12228194   7.599   0.840   0.810 -0.6423 -0.2630  0.0716
  117MOL   C12328195   7.607   0.986   0.748 -1.0263 -0.5796 -0.0602
  117MOL   C12428196   7.463   1.038   0.768 -0.9196  0.1562  0.3076
  117MOL   C12528197   7.697   1.075   0.840 -0.2730 -0.5286  0.2553
  117MOL   O12628198   0.041   1.117   0.814  0.1349 -0.3315 -0.6595
  117MOL   O12728199   7.644   1.097   0.964  0.5169  0.0764 -0.1035
  117MOL   H12828200   7.526   0.794   0.743  0.2399 -0.3355 -0.8495
  117MOL   H12928201   7.531   0.833   0.895 -1.7056 -1.2121 -0.8215
  117MOL   H13028202   7.452   1.147   0.764  1.0731  0.3489 -0.7190
  117MOL   H13128203   7.425   1.010   0.866  0.7358 -1.0828  0.6148
  117MOL   H13228204   7.395   0.998   0.692 -1.3852  1.1096  0.2033
  117MOL   H13328205   7.721   1.130   1.008  0.2615 -0.2614  0.6040
  117MOL   C13428206   7.652   0.989   0.598  0.5519  0.0329 -0.5846
  117MOL   C13528207   7.622   1.117   0.499 -0.0449 -0.2729 -0.5194
  117MOL   C13628208   7.461   1.123   0.480  0.0686  0.7759  0.2660
  117MOL   C13728209   7.660   1.248   0.569  0.9364  0.3227  0.2809
  117MOL   O13828210   7.578   1.333   0.595 -0.5895  0.0797  0.1259
  117MOL   O13928211   0.027   1.258   0.585  0.5815  0.3546  0.3068
  117MOL   H14028212   7.759   0.969   0.589  0.6907  0.9925 -1.1227
  117MOL   H14128213   7.623   0.893   0.555  3.1132 -1.9506  1.8596
  117MOL   H14228214   7.431   1.018   0.480  1.0774  0.4823  1.2793
  117MOL   H14328215   7.419   1.155   0.385 -1.5600 -0.0545  0.6738
  117MOL   H14428216   7.403   1.174   0.557 -0.4756  2.3681 -1.1762
  117MOL   H14528217   0.089   1.196   0.550 -1.2641 -0.3178 -1.9098
  117MOL   C14628218   7.698   1.099   0.362 -0.2059  0.1769 -0.0693
  117MOL   C14728219   7.715   1.213   0.258  0.2632 -0.1344 -0.3011
  117MOL   C14828220   7.601   1.314   0.254  0.9486  0.0918 -0.0963
  117MOL   C14928221   0.083   1.288   0.279 -0.5988  0.3660  0.3142
  117MOL   O15028222   0.175   1.246   0.340  0.1648 -0.0390  0.9009
  117MOL   O15128223   0.090   1.402   0.209  0.0491 -0.2198 -0.0623
  117MOL   H15228224   0.028   1.054   0.382  0.3387  0.9037 -1.0567
  117MOL   H15328225   7.640   1.017   0.318 -1.1994  1.0610 -0.4228
  117MOL   H15428226   7.627   1.405   0.200  0.5461  0.9416  1.1223
  117MOL   H15528227   7.570   1.368   0.344 -3.7699  2.4929 -2.9472
  117MOL   H15628228   7.504   1.278   0.220  2.0305 -0.0699 -3.1229
  117MOL   H15728229   0.175   1.433   0.237 -0.8955  3.1149 -0.7377
  117MOL   C15828230   7.715   1.160   0.111 -0.1815 -0.6907  0.2859
  117MOL   C15928231   0.052   1.060   0.043 -0.2349  0.2105  0.7306
  117MOL   C16028232   7.753   1.052   7.664  0.4554  0.0983 -0.1520
  117MOL   C16128233   0.191   1.127   0.023 -0.9543  0.6074 -0.0516
  117MOL   O16228234   0.297   1.079   0.066 -0.3039  0.3114  0.5565
  117MOL   O16328235   0.192   1.237   7.709 -0.2333  0.6630  0.0774
  117MOL   H16428236   7.617   1.116   0.093  0.9374 -2.4196 -1.8682
  117MOL   H16528237   7.700   1.245   0.044  1.0383 -0.3006  0.5117
  117MOL   H16628238   0.035   0.983   7.595 -0.3129  0.0516 -0.6598
  117MOL   H16728239   7.754   1.147   7.610 -1.2034 -0.4065 -1.1026
  117MOL   H16828240   7.648   1.025   7.667 -0.0072  2.0143  2.4375
  117MOL   H16928241   0.278   1.263   7.679 -0.2759  0.8971  0.1560
  117MOL   C17028242   0.066   0.919   0.107 -1.1877 -0.0895  0.0608
  117MOL   C17128243   0.100   0.784   0.037  0.2362  0.1658  0.4630
  117MOL   C17228244   0.215   0.802   7.695  0.5638 -0.5725 -0.3233
  117MOL   C17328245   0.151   0.689   0.143  0.7701  0.0013 -0.4705
  117MOL   O17428246   0.268   0.644   0.145  0.4861 -0.5506 -0.0494
  117MOL   O17528247   0.049   0.663   0.238  0.2601 -0.4695  0.0376
  117MOL   H17628248   0.140   0.948   0.181  1.3867 -1.9887 -1.6576
  117MOL   H17728249   7.744   0.904   0.168 -1.2296  1.1831  0.3181
  117MOL   H17828250   0.252   0.713   7.643  0.3699 -0.0488 -1.3815
  117MOL   H17928251   0.307   0.845   7.733 -0.0942  0.2542  0.3687
  117MOL   H18028252   0.180   0.859   7.608 -0.2203  0.6737  0.7980
  117MOL   H18128253   0.092   0.609   0.303  0.9320  0.6836  0.5639
  117MOL   C18228254   7.732   0.732   7.732  0.2702 -0.3056  0.3273
  117MOL   C18328255   7.725   0.607   7.633 -0.1974 -0.5402  0.8153
  117MOL   C18428256   7.575   0.588   7.610  0.0158 -0.1377 -0.2558
  117MOL   C18528257   0.014   0.662   7.495  0.5141 -0.7575  0.2655
  117MOL   O18628258   0.117   0.620   7.437 -0.5300 -0.3270  0.4359
  117MOL   O18728259   7.706   0.763   7.442 -0.0462  0.3344  0.7190
  117MOL   H18828260   7.658   0.725   0.044 -1.3504  1.9097 -0.9515
  117MOL   H18928261   7.677   0.812   7.683 -2.0204 -2.3401 -0.4890
  117MOL   H19028262   7.539   0.546   7.515 -1.3260  0.5627 -0.0742
  117MOL   H19128263   7.517   0.680   7.612  0.4109  0.2761 -3.7959
  117MOL   H19228264   7.528   0.533   7.692  2.1329 -0.4526  0.7553
  117MOL   H19328265   7.744   0.785   7.358 -0.0740 -1.9555  0.0733
  117MOL   C19428266   0.027   0.478   7.694 -0.3114 -0.0299  0.0691
  117MOL   C19528267   7.763   0.332   7.629  0.0907  0.5490  0.3124
  117MOL   C19628268   0.101   0.239   7.697  0.2665  0.6873  0.5896
  117MOL   C19728269   7.620   0.277   7.664  0.7942  0.0434  0.5133
  117MOL   O19828270   7.523   0.274   7.588  0.6151 -0.3033  0.1054
  117MOL   O19928271   7.603   0.236   0.022 -0.0813 -0.0726  0.3660
  117MOL   H20028272   0.134   0.489   7.707 -0.4417  0.6218  0.5934
  117MOL   H20128273   7.749   0.478   0.026 -1.1569  0.9033 -0.3017
  117MOL   H20228274   0.072   0.134   7.685  1.7774  0.4272 -0.9219
  117MOL   H20328275   0.086   0.256   0.037 -0.2648 -0.7492  0.7557
  117MOL   H20428276   0.203   0.261   7.666  0.2920 -0.9997 -0.6479
  117MOL   H20528277   7.513   0.207   0.032 -0.2583  0.6786  1.0346
  117MOL   C20628278   0.016   0.337   7.470  1.2340  0.6787  0.0527
  117MOL   C20728279   0.018   0.205   7.378  0.1865 -0.4059 -0.6544
  117MOL   C20828280   7.678   0.100   7.394  0.6711  0.0654 -0.7345
  117MOL   C20928281   7.767   0.261   7.234 -0.3076  0.7119  0.3230
  117MOL   O21028282   7.670   0.241   7.160 -0.4177 -0.5604  0.3377
  117MOL   O21128283   0.107   0.333   7.192  0.4527 -0.6990 -0.4031
  117MOL   H21228284   7.700   0.399   7.436  0.3394 -1.4142 -1.7399
  117MOL   H21328285   0.111   0.389   7.456  1.1017  0.9823  0.2953
  117MOL   H21428286   7.575   0.135   7.407 -0.5681 -2.9431 -1.8703
  117MOL   H21528287   7.692   0.024   7.470  0.5201 -0.2652 -1.0312
  117MOL   H21628288   7.675   0.037   7.305  0.5680 -0.8418 -0.0972
  117MOL   H21728289   0.090   0.359   7.103 -3.2409  0.3883  0.5532
  117MOL   C21828290   0.162   0.139   7.392  0.2005 -0.4021  0.7593
  117MOL   C21928291   0.210   0.001   7.338  0.9822 -0.2292 -0.3960
  117MOL   C22028292   0.156   7.646   7.425  0.3749 -0.2159 -0.8085
  117MOL   C22128293   0.176   7.745   7.188  0.3778  0.2869 -0.5770
  117MOL   O22228294   0.108   7.649   7.146  0.2130  0.5115  0.4102
  117MOL   O22328295   0.225   0.080   7.104  0.4281 -0.6072 -0.4581
  117MOL   H22428296   0.235   0.210   7.354 -0.4593  1.3368  2.6338
  117MOL   H22528297   0.187   0.138   7.498 -0.8760 -2.4162  1.0190
  117MOL   H22628298   0.204   7.551   7.406 -2.2557 -2.1029  1.5523
  117MOL   H22728299   0.050   7.628   7.406 -0.0504  1.9638 -0.6169
  117MOL   H22828300   0.164   7.656   7.533  0.3464  1.2563 -0.9241
  117MOL   H22928301   0.283   0.143   7.145 -0.0784  0.0511 -0.7420
  117MOL   C23028302   0.370   7.762   7.349 -0.3789  0.2192  0.3797
  117MOL   C23128303   0.446   7.741   7.487  0.3590  0.8626 -0.0159
  117MOL   C23228304   0.590   7.712   7.454 -0.1841  0.1121  0.2698
  117MOL   C23328305   0.442   0.090   7.583 -0.1566 -0.4613  0.1051
  117MOL   O23428306   0.424   0.084   7.700  0.3374 -0.2631 -0.3474
  117MOL   O23528307   0.459   0.209   7.518 -0.0056  0.4179 -0.6887
  117MOL   H23628308   0.411   7.692   7.276 -1.2352 -1.0288  1.0773
  117MOL   H23728309   0.405   0.089   7.306 -1.6989  1.4015  1.7958
  117MOL   H23828310   0.661   7.726   7.535  0.8379 -1.9979 -0.1977
  117MOL   H23928311   0.624   0.010   7.374 -0.8160 -0.1325 -0.1982
  117MOL   H24028312   0.599   7.606   7.430 -0.5264  0.2120 -0.3224
  117MOL   H24128313   0.467   0.273   7.586 -0.5882  0.3236 -0.5312
  117MOL   H24228314   0.398   7.657   7.539 -1.0773  0.6778 -1.6204
  118MOL     C128315   6.951   4.825   4.089 -0.0247  0.4295  0.9689
  118MOL     C228316   6.969   4.759   3.951  0.2369  0.1960  0.1239
  118MOL     C328317   6.870   4.824   3.860 -0.3587  0.1304 -0.3630
  118MOL     C428318   7.111   4.799   3.887  0.3881  0.3753  0.3340
  118MOL     O528319   7.133   4.762   3.771 -0.5106 -0.2533  0.6395
  118MOL     O628320   7.205   4.863   3.972  0.8722  0.2699 -0.0005
  118MOL     H728321   6.972   4.931   4.083 -1.1266  0.6264  0.4848
  118MOL     H828322   7.021   4.782   4.160 -0.7124  1.2189  2.1284
  118MOL     H928323   6.891   4.921   3.815  1.0753  0.1797  0.3831
  118MOL    H1028324   6.777   4.827   3.917  0.1246 -0.6255  0.4883
  118MOL    H1128325   6.845   4.762   3.774 -1.6001  0.0949  0.0111
  118MOL    H1228326   7.284   4.882   3.923  0.9976 -1.2272 -0.4108
  118MOL    H1328327   6.850   4.816   4.128 -0.1552 -1.1025  0.3567
  118MOL    C1428328   6.955   4.600   3.946 -0.6113  0.4767 -0.4464
  118MOL    C1528329   6.842   4.510   3.987 -0.0520  0.2012  0.4336
  118MOL    C1628330   6.832   4.514   4.143  0.2157 -0.0376  0.6071
  118MOL    C1728331   6.711   4.555   3.920  0.6783  0.2219  0.5553
  118MOL    O1828332   6.615   4.594   3.987  0.1147  0.1972 -0.1066
  118MOL    O1928333   6.725   4.558   3.790 -0.3174 -0.3950  0.6660
  118MOL    H2028334   6.975   4.582   3.841 -0.0799  1.5429 -0.5379
  118MOL    H2128335   7.047   4.575   4.000 -0.5697 -0.1073 -0.7880
  118MOL    H2228336   6.844   4.614   4.185  2.9656  0.0055 -0.1965
  118MOL    H2328337   6.907   4.454   4.196 -0.5597  0.0127  1.7939
  118MOL    H2428338   6.737   4.486   4.189 -0.6209 -0.2287 -1.2220
  118MOL    H2528339   6.653   4.598   3.743 -0.1413  0.6450  1.2650
  118MOL    C2628340   6.891   4.364   3.940  0.1681  0.0188 -1.0137
  118MOL    C2728341   6.793   4.243   3.920 -0.4232  0.2243  0.0218
  118MOL    C2828342   6.700   4.263   3.785 -0.3920 -0.0784  0.8207
  118MOL    C2928343   6.877   4.119   3.881  0.1308  0.4143 -0.0385
  118MOL    O3028344   6.869   4.058   3.777  0.0952 -0.5798 -0.1695
  118MOL    O3128345   6.966   4.084   3.971  0.5736  0.1682 -0.2310
  118MOL    H3228346   6.954   4.368   3.851  0.1273  2.5101 -0.9573
  118MOL    H3328347   6.955   4.330   4.021 -0.2694  1.2995 -0.1161
  118MOL    H3428348   6.658   4.175   3.737 -3.0502  1.0467  0.9725
  118MOL    H3528349   6.762   4.311   3.709  1.0301 -0.1627  1.8985
  118MOL    H3628350   6.615   4.327   3.811 -0.7724  0.2021 -1.0587
  118MOL    H3728351   7.024   4.032   3.917 -0.3855  0.5941 -1.7317
  118MOL    C3828352   6.700   4.211   4.047  0.1392  0.4453  0.1320
  118MOL    C3928353   6.616   4.076   4.068 -0.2200 -0.7424 -0.3320
  118MOL    C4028354   6.564   4.021   3.934  0.0305 -0.2568 -0.1375
  118MOL    C4128355   6.696   3.961   4.132 -0.7715 -0.1500 -0.0995
  118MOL    O4228356   6.807   3.977   4.187  0.1546  0.5860  0.3775
  118MOL    O4328357   6.637   3.838   4.124  0.5117 -0.0197  0.2795
  118MOL    H4428358   6.757   4.233   4.138 -2.5296  0.7563  1.8004
  118MOL    H4528359   6.623   4.288   4.036 -0.4352 -0.2976 -1.0807
  118MOL    H4628360   6.484   3.947   3.945 -0.5820  0.2365 -1.1741
  118MOL    H4728361   6.640   3.959   3.886 -1.3002 -1.1163 -1.1654
  118MOL    H4828362   6.525   4.099   3.869 -0.8455  1.2576  2.1191
  118MOL    H4928363   6.707   3.779   4.146 -0.6155 -0.9964  1.3568
  118MOL    C5028364   6.482   4.098   4.147 -0.3353 -0.3173  0.3892
  118MOL    C5128365   6.471   4.141   4.299 -0.8079 -0.3422 -0.3412
  118MOL    C5228366   6.538   4.033   4.390 -0.3227 -0.5526 -0.4711
  118MOL    C5328367   6.543   4.273   4.328  0.0686  0.0710  0.0494
  118MOL    O5428368   6.636   4.281   4.407 -0.2057 -0.1022 -0.0146
  118MOL    O5528369   6.494   4.379   4.257  0.1782  0.0055 -0.1329
  118MOL    H5628370   6.425   4.173   4.092  0.1912 -1.0231 -1.1589
  118MOL    H5728371   6.417   4.011   4.140 -0.6200  0.0318 -2.0985
  118MOL    H5828372   6.517   3.932   4.353 -0.2710 -1.4699  1.9020
  118MOL    H5928373   6.519   4.044   4.497 -0.8588 -0.6870 -0.5522
  118MOL    H6028374   6.647   4.037   4.382  0.0300 -1.0583  3.1525
  118MOL    H6128375   6.533   4.462   4.283  0.5280 -0.7546  1.8980
  118MOL    C6228376   6.316   4.142   4.338  0.3583 -0.1552 -0.3660
  118MOL    C6328377   6.245   4.195   4.470 -0.1354 -0.8398  0.7841
  118MOL    C6428378   6.314   4.131   4.591  0.5168 -0.6641 -0.0767
  118MOL    C6528379   6.247   4.348   4.482  0.2995  0.8561  0.0528
  118MOL    O6628380   6.297   4.411   4.576  0.0528  0.0664  0.3696
  118MOL    O6728381   6.200   4.408   4.372  0.4654 -0.0272  0.0726
  118MOL    H6828382   6.261   4.191   4.257  2.7026  0.5200 -1.6114
  118MOL    H6928383   6.293   4.037   4.321 -0.8816  0.1873 -0.7930
  118MOL    H7028384   6.252   4.137   4.681  0.9801  1.2554  0.1274
  118MOL    H7128385   6.404   4.185   4.620  0.6102 -1.2482  0.7585
  118MOL    H7228386   6.330   4.023   4.582 -3.2077 -1.3223  0.2183
  118MOL    H7328387   6.209   4.502   4.365  0.9726 -0.0969 -0.2821
  118MOL    C7428388   6.094   4.142   4.452 -0.5113 -0.2588 -0.1550
  118MOL    C7528389   5.993   4.138   4.578  0.0722 -0.6147  0.0063
  118MOL    C7628390   6.011   4.262   4.671 -0.3990  0.5723  0.1345
  118MOL    C7728391   5.854   4.168   4.513  0.7240 -0.1957 -0.8387
  118MOL    O7828392   5.822   4.281   4.471  0.3957  0.6053  0.0010
  118MOL    O7928393   5.776   4.059   4.493  0.5119 -0.1171 -0.1682
  118MOL    H8028394   6.048   4.185   4.363 -0.5514 -1.2329 -0.6094
  118MOL    H8128395   6.111   4.035   4.442 -0.0784 -0.1065 -1.1319
  118MOL    H8228396   5.926   4.288   4.735 -1.9137 -1.0055 -1.1903
  118MOL    H8328397   6.013   4.356   4.616 -3.0689  0.4860 -0.1956
  118MOL    H8428398   6.097   4.262   4.738 -0.5296 -0.4313  0.3110
  118MOL    H8528399   5.698   4.082   4.446  1.2264  1.4520 -0.6272
  118MOL    C8628400   6.009   3.999   4.644 -0.2389 -0.7777 -0.0733
  118MOL    C8728401   5.936   3.958   4.774 -0.0206  0.1061 -0.3979
  118MOL    C8828402   5.818   4.048   4.809 -0.4874  0.6147  0.4199
  118MOL    C8928403   5.882   3.814   4.747  0.5073 -0.0722 -0.4221
  118MOL    O9028404   5.763   3.785   4.724 -0.5021 -0.2631 -0.3356
  118MOL    O9128405   5.977   3.722   4.731  0.1774 -0.0105  0.6553
  118MOL    H9228406   5.978   3.937   4.559 -0.8003 -3.0133  1.7130
  118MOL    H9328407   6.111   3.963   4.652 -0.8795 -2.3112  1.5963
  118MOL    H9428408   5.850   4.142   4.855 -1.7272  1.6365 -0.7802
  118MOL    H9528409   5.751   4.000   4.880  0.6783 -1.8556 -0.0861
  118MOL    H9628410   5.754   4.060   4.722 -0.8407  0.7418  0.6978
  118MOL    H9728411   5.936   3.638   4.717 -1.1373  0.7778 -0.4317
  118MOL    C9828412   6.042   3.966   4.896  0.2526 -0.6570  0.2950
  118MOL    C9928413   6.001   3.960   5.048  0.2313 -0.2912 -0.7709
  118MOL   C10028414   5.939   4.088   5.099 -0.0828 -0.7162 -0.3204
  118MOL   C10128415   5.914   3.831   5.075  0.5607 -0.4848  0.6560
  118MOL   O10228416   5.954   3.719   5.042  0.7189  0.0465 -0.3406
  118MOL   O10328417   5.794   3.850   5.139 -0.0875 -0.5367 -0.2900
  118MOL   H10428418   6.111   3.883   4.892  0.1218 -0.7367 -0.3012
  118MOL   H10528419   6.103   4.054   4.878 -0.5337  0.0062  0.7900
  118MOL   H10628420   5.941   4.115   5.204 -2.9997 -0.0392 -0.3913
  118MOL   H10728421   5.837   4.098   5.063  0.5300  1.5124 -1.5839
  118MOL   H10828422   5.986   4.176   5.053 -0.4056 -1.2686 -1.7360
  118MOL   H10928423   5.749   3.768   5.154 -1.5611  0.1399 -0.8273
  118MOL   C11028424   6.130   3.932   5.140 -0.0076  0.2454  0.3237
  118MOL   C11128425   6.271   4.008   5.125  0.1037  0.1224 -0.0744
  118MOL   C11228426   6.340   3.959   4.995  0.3770 -0.2440 -0.4505
  118MOL   C11328427   6.254   4.168   5.118 -0.3092  0.1538 -0.0124
  118MOL   O11428428   6.288   4.241   5.029 -0.4113  0.1958 -0.0286
  118MOL   O11528429   6.194   4.219   5.229  0.4398  0.1145 -0.2310
  118MOL   H11628430   6.104   3.962   5.242  0.2305  2.2460 -0.1712
  118MOL   H11728431   6.152   3.826   5.148  0.4907  0.0876 -2.4733
  118MOL   H11828432   6.313   3.855   4.977  0.2198 -0.5245  1.2784
  118MOL   H11928433   6.449   3.961   5.001  0.3098  0.0199  0.8535
  118MOL   H12028434   6.314   4.030   4.917 -0.1135 -1.0751 -1.0438
  118MOL   H12128435   6.185   4.313   5.232  0.5714  0.1789 -1.6173
  118MOL   C12228436   6.367   3.958   5.239  0.1224  0.3988  0.1603
  118MOL   C12328437   6.487   4.027   5.314  0.4912 -0.3283  0.2469
  118MOL   C12428438   6.576   4.107   5.213 -0.4037  0.6414 -0.3105
  118MOL   C12528439   6.433   4.124   5.429 -0.9339  0.1547 -0.4047
  118MOL   O12628440   6.318   4.133   5.469 -0.5650  0.2605  0.4268
  118MOL   O12728441   6.540   4.190   5.473  0.0481 -0.6062 -0.5252
  118MOL   H12828442   6.304   3.923   5.321  0.1514 -0.0908 -0.0250
  118MOL   H12928443   6.392   3.858   5.203 -0.1820  0.2015  0.4948
  118MOL   H13028444   6.603   4.043   5.129  3.2617  1.2071  0.3356
  118MOL   H13128445   6.675   4.132   5.253  0.1448 -1.6214 -0.2238
  118MOL   H13228446   6.532   4.197   5.169 -0.9650  1.1563  1.2556
  118MOL   H13328447   6.525   4.247   5.546  1.4446  0.9813 -1.4502
  118MOL   C13428448   6.578   3.915   5.373 -0.2188 -0.3712 -0.4436
  118MOL   C13528449   6.546   3.802   5.482  0.3991 -0.3436  0.6786
  118MOL   C13628450   6.472   3.688   5.403  0.8547  0.7179 -0.5668
  118MOL   C13728451   6.686   3.756   5.528  0.0188 -0.2361  0.1873
  118MOL   O13828452   6.752   3.814   5.618  0.0107  0.5514  0.3802
  118MOL   O13928453   6.736   3.651   5.447 -1.0564  0.1581  0.6853
  118MOL   H14028454   6.622   3.866   5.286 -1.3248 -2.1745 -0.0257
  118MOL   H14128455   6.669   3.966   5.405  1.6480 -3.4512 -0.6134
  118MOL   H14228456   6.366   3.710   5.393  0.4874 -0.3045  0.9152
  118MOL   H14328457   6.489   3.586   5.439 -1.1843 -0.0351 -1.6513
  118MOL   H14428458   6.519   3.669   5.307 -1.4985  2.9591 -2.2302
  118MOL   H14528459   6.828   3.639   5.463 -0.6359  0.9642 -0.9169
  118MOL   C14628460   6.468   3.863   5.605 -0.3624  0.1622  0.1717
  118MOL   C14728461   6.416   3.780   5.731 -0.5587  0.6254  0.2001
  118MOL   C14828462   6.328   3.665   5.680 -0.2892  0.3789 -0.8765
  118MOL   C14928463   6.531   3.725   5.813  0.2539  0.6045 -0.1060
  118MOL   O15028464   6.547   3.612   5.857 -0.2157  0.4765 -0.0916
  118MOL   O15128465   6.611   3.820   5.861  0.1324  0.1798  0.7709
  118MOL   H15228466   6.524   3.943   5.653 -1.8906 -1.2223  4.4940
  118MOL   H15328467   6.373   3.901   5.567 -0.0735  0.8444  0.1289
  118MOL   H15428468   6.241   3.701   5.626 -0.3019 -1.9451 -2.5012
  118MOL   H15528469   6.294   3.599   5.759  3.5625 -0.2027  0.4127
  118MOL   H15628470   6.390   3.594   5.625 -0.2155 -0.5447  0.3810
  118MOL   H15728471   6.598   3.903   5.819 -1.3533  0.0091  0.8629
  118MOL   C15828472   6.321   3.887   5.808 -0.1309  0.1042  0.2372
  118MOL   C15928473   6.203   3.866   5.910 -0.0763  0.0434  0.2173
  118MOL   C16028474   6.096   3.768   5.871  1.1144  0.0617  0.3316
  118MOL   C16128475   6.269   3.804   6.036  0.0139 -0.6241 -0.8049
  118MOL   O16228476   6.218   3.716   6.105 -0.0526 -0.3025  0.2478
  118MOL   O16328477   6.377   3.881   6.079  0.0750 -0.4942 -0.0884
  118MOL   H16428478   6.391   3.950   5.864  0.0214 -0.9482  1.2696
  118MOL   H16528479   6.274   3.956   5.739 -0.9364 -0.9850 -0.3089
  118MOL   H16628480   6.058   3.775   5.770 -0.6711 -1.1108  0.9160
  118MOL   H16728481   6.020   3.767   5.949  1.2843  0.8916  0.5186
  118MOL   H16828482   6.127   3.664   5.884  0.5303 -0.0136  1.1679
  118MOL   H16928483   6.414   3.834   6.152 -1.4286 -1.2069  0.2473
  118MOL   C17028484   6.127   3.996   5.958 -0.3570 -0.6437  0.0112
  118MOL   C17128485   6.039   4.096   5.872  0.4142 -0.1147  0.1109
  118MOL   C17228486   5.931   4.152   5.974  0.0758  0.0050  0.3571
  118MOL   C17328487   6.120   4.220   5.831  0.3163 -0.4416 -0.0014
  118MOL   O17428488   6.074   4.335   5.840 -0.3293  0.1985  0.3406
  118MOL   O17528489   6.239   4.187   5.766  0.1532 -0.1094 -0.6944
  118MOL   H17628490   6.063   3.978   6.044  1.2234  0.3458  1.4039
  118MOL   H17728491   6.194   4.066   6.006 -0.9349 -0.9487  1.2706
  118MOL   H17828492   5.855   4.077   5.998 -0.1895  0.1903  0.0974
  118MOL   H17928493   5.872   4.238   5.944  1.1112  0.5638 -0.0776
  118MOL   H18028494   5.986   4.181   6.064  2.1402  2.0485 -1.5130
  118MOL   H18128495   6.293   4.264   5.768  0.1324  0.0312  5.2076
  118MOL   C18228496   5.976   4.026   5.747 -0.3053 -0.3520 -0.3097
  118MOL   C18328497   5.886   4.088   5.632  0.8487 -0.2919  0.3852
  118MOL   C18428498   5.797   4.197   5.683 -0.1785  0.2903  0.1240
  118MOL   C18528499   5.990   4.157   5.534  0.4047  0.1703 -0.7259
  118MOL   O18628500   6.009   4.276   5.517  0.0726  0.4353 -0.1498
  118MOL   O18728501   6.049   4.067   5.459 -0.1109  0.1157  0.0667
  118MOL   H18828502   6.053   3.968   5.694 -0.3240 -1.4222  0.8033
  118MOL   H18928503   5.910   3.948   5.785 -2.5710  1.5030 -0.3162
  118MOL   H19028504   5.844   4.283   5.730  1.7766 -1.3005  1.1658
  118MOL   H19128505   5.733   4.155   5.761  1.8581  0.5935  2.0393
  118MOL   H19228506   5.733   4.236   5.605 -0.9396 -0.2337  0.4813
  118MOL   H19328507   6.106   4.100   5.392 -0.1397 -1.8856 -0.9807
  118MOL   C19428508   5.803   3.970   5.560  0.2302  0.0421  0.1588
  118MOL   C19528509   5.653   3.920   5.601 -0.4898 -0.1527 -0.3676
  118MOL   C19628510   5.540   4.025   5.593  0.3745 -0.2352  0.3209
  118MOL   C19728511   5.635   3.812   5.486 -0.4257  0.3813 -0.4450
  118MOL   O19828512   5.718   3.727   5.466  0.1265 -0.1065 -0.0582
  118MOL   O19928513   5.532   3.837   5.403 -0.1045  0.0593  0.1473
  118MOL   H20028514   5.796   4.007   5.457  1.5590 -2.0331 -0.7138
  118MOL   H20128515   5.873   3.888   5.541 -1.9535 -1.9197  0.4048
  118MOL   H20228516   5.435   3.996   5.589  0.9284 -2.0587 -1.6280
  118MOL   H20328517   5.553   4.096   5.511 -0.1493  2.3557  2.3988
  118MOL   H20428518   5.537   4.089   5.681  1.5318  2.5134 -1.5507
  118MOL   H20528519   5.538   3.774   5.333  0.0003  1.1826 -0.8938
  118MOL   C20628520   5.668   3.853   5.746  0.5691 -0.2748  1.0061
  118MOL   C20728521   5.558   3.767   5.823 -0.8014 -0.5707 -0.0271
  118MOL   C20828522   5.426   3.847   5.825  0.4286 -0.3907 -0.4352
  118MOL   C20928523   5.541   3.632   5.743 -0.2097 -0.6147 -0.2133
  118MOL   O21028524   5.426   3.590   5.706 -0.4863  0.1770  0.2760
  118MOL   O21128525   5.656   3.567   5.702 -0.6189 -0.1709 -0.4246
  118MOL   H21228526   5.758   3.791   5.740  0.0456 -1.1159  1.6121
  118MOL   H21328527   5.702   3.929   5.816 -0.4129  2.0292 -0.9368
  118MOL   H21428528   5.432   3.949   5.863 -1.1239 -0.2011 -0.6627
  118MOL   H21528529   5.353   3.800   5.890 -0.2629  1.2557 -0.0035
  118MOL   H21628530   5.377   3.860   5.728  0.0505 -0.6691 -0.2787
  118MOL   H21728531   5.645   3.494   5.643 -1.2702 -0.0666 -0.4418
  118MOL   C21828532   5.620   3.728   5.966 -0.4812 -0.0063  0.1811
  118MOL   C21928533   5.540   3.730   6.106 -0.4063  0.9086 -0.6450
  118MOL   C22028534   5.497   3.877   6.134 -0.4359 -0.0890  0.2753
  118MOL   C22128535   5.412   3.640   6.108  0.9215 -0.1995  0.0148
  118MOL   O22228536   5.392   3.537   6.045  0.3336  0.0506 -0.1689
  118MOL   O22328537   5.330   3.680   6.208 -0.2275 -0.3442  0.3470
  118MOL   H22428538   5.666   3.629   5.958 -0.7236 -0.1591  0.6379
  118MOL   H22528539   5.706   3.793   5.984  0.4533 -1.4700  1.1304
  118MOL   H22628540   5.580   3.944   6.110  0.0103 -0.9155 -0.4947
  118MOL   H22728541   5.490   3.891   6.242 -0.7463  3.1977 -0.1173
  118MOL   H22828542   5.405   3.909   6.085 -1.3232 -1.4624  1.0315
  118MOL   H22928543   5.257   3.619   6.207  1.2160 -2.1162  0.9339
  118MOL   C23028544   5.631   3.681   6.223  0.1103  0.0676  0.2198
  118MOL   C23128545   5.757   3.756   6.275 -0.4909 -0.0580  0.1858
  118MOL   C23228546   5.774   3.734   6.430  0.0728 -0.2443 -0.2954
  118MOL   C23328547   5.893   3.707   6.220 -0.2361  0.2234  0.0318
  118MOL   O23428548   5.911   3.603   6.155 -0.4613 -0.2597  0.1860
  118MOL   O23528549   5.993   3.789   6.257  0.5517 -0.2695  0.3836
  118MOL   H23628550   5.567   3.668   6.310 -0.7069 -0.0484 -0.3822
  118MOL   H23728551   5.657   3.576   6.209 -1.0775 -0.1011 -0.8043
  118MOL   H23828552   5.696   3.783   6.487  1.1489  0.5897  0.4785
  118MOL   H23928553   5.869   3.765   6.474 -1.4718 -0.1295  3.0697
  118MOL   H24028554   5.773   3.625   6.436  1.2376 -0.3820 -2.1859
  118MOL   H24128555   6.077   3.753   6.234  0.6044  0.0846  0.0032
  118MOL   H24228556   5.753   3.863   6.255  0.9525 -0.4930 -2.7388
  119MOL     C128557   6.066   5.950   4.990  0.8341 -0.3874  0.2169
  119MOL     C228558   6.150   5.831   5.046  0.0594 -0.5759  0.0352
  119MOL     C328559   6.270   5.889   5.135 -0.4101 -0.2021  0.1466
  119MOL     C428560   6.057   5.758   5.151 -0.6217 -0.2893 -0.2365
  119MOL     O528561   5.936   5.778   5.154  0.1487  0.5888 -0.4118
  119MOL     O628562   6.127   5.685   5.241 -0.8884 -0.5713  0.1768
  119MOL     H728563   6.005   6.005   5.061  1.3567 -0.2544  0.5660
  119MOL     H828564   6.005   5.914   4.907 -1.3358  0.7447  1.2641
  119MOL     H928565   6.327   5.960   5.074  0.7174 -0.0541  1.3592
  119MOL    H1028566   6.334   5.808   5.168  0.8799  0.5192 -0.5449
  119MOL    H1128567   6.241   5.939   5.228 -0.7262 -1.0341  0.4944
  119MOL    H1228568   6.067   5.642   5.300 -3.6246 -0.1091 -2.1609
  119MOL    H1328569   6.135   6.027   4.957 -0.0742 -0.6667 -2.4873
  119MOL    C1428570   6.223   5.750   4.930  0.6944 -0.2691 -0.5783
  119MOL    C1528571   6.153   5.672   4.814 -0.3416  0.2063 -0.4358
  119MOL    C1628572   6.037   5.588   4.884 -0.3558  0.0836  1.0024
  119MOL    C1728573   6.095   5.771   4.716  0.5416 -0.8361  0.5290
  119MOL    O1828574   6.146   5.885   4.686  0.6817 -0.3350  0.4074
  119MOL    O1928575   5.984   5.722   4.649 -0.2187 -0.1454 -0.5609
  119MOL    H2028576   6.289   5.828   4.893  0.4817 -0.6728 -1.8057
  119MOL    H2128577   6.281   5.674   4.983  1.6326 -0.0252 -1.2546
  119MOL    H2228578   6.069   5.537   4.975  0.1937 -1.1711  0.1153
  119MOL    H2328579   6.008   5.508   4.817  1.2569  1.0665 -0.9161
  119MOL    H2428580   5.956   5.658   4.908  1.1032  1.8493  0.8992
  119MOL    H2528581   5.946   5.782   4.587  1.5238  0.4678 -1.0804
  119MOL    C2628582   6.240   5.568   4.736 -0.7720 -0.1048 -0.3767
  119MOL    C2728583   6.382   5.584   4.675  0.0057  0.8156  0.0844
  119MOL    C2828584   6.476   5.655   4.772 -0.0850  0.0389 -0.2207
  119MOL    C2928585   6.440   5.438   4.659  0.4421  0.6212 -0.5239
  119MOL    O3028586   6.528   5.389   4.728  0.5972  0.4327  0.3063
  119MOL    O3128587   6.384   5.375   4.555 -0.0531 -0.1971  0.5067
  119MOL    H3228588   6.267   5.502   4.818  1.8533  3.5786  1.8589
  119MOL    H3328589   6.179   5.503   4.673 -1.2597 -1.9044  1.8861
  119MOL    H3428590   6.580   5.657   4.738  0.0437 -0.5273  0.1314
  119MOL    H3528591   6.481   5.607   4.870  0.0379  0.7390  0.1159
  119MOL    H3628592   6.451   5.760   4.785 -0.5759 -0.2033  0.7914
  119MOL    H3728593   6.410   5.285   4.565 -1.5112 -0.4493  2.6291
  119MOL    C3828594   6.378   5.660   4.532  0.1088 -0.4266  0.2233
  119MOL    C3928595   6.500   5.716   4.452  0.1939 -0.0164 -1.0790
  119MOL    C4028596   6.446   5.744   4.309  0.0921 -0.2529 -0.3786
  119MOL    C4128597   6.555   5.849   4.514  0.9781  0.6305  0.7267
  119MOL    O4228598   6.663   5.849   4.574 -0.2912  0.1170 -0.0884
  119MOL    O4328599   6.475   5.958   4.495  0.0349  0.0536 -0.4837
  119MOL    H4428600   6.313   5.599   4.469 -1.8037 -1.2234  2.8505
  119MOL    H4528601   6.311   5.746   4.541 -0.9087 -0.8287 -3.0159
  119MOL    H4628602   6.344   5.783   4.311  0.7014  1.4387 -1.2090
  119MOL    H4728603   6.440   5.656   4.245 -1.2668  0.9619 -1.9670
  119MOL    H4828604   6.506   5.817   4.255  1.6191 -2.7500 -2.1779
  119MOL    H4928605   6.520   6.031   4.534 -0.9516  1.4303 -1.9223
  119MOL    C5028606   6.620   5.607   4.444  0.2908 -0.2276 -0.0387
  119MOL    C5128607   6.746   5.610   4.340  0.3237  0.2156 -0.0502
  119MOL    C5228608   6.826   5.745   4.363  0.5674 -1.2329 -0.2358
  119MOL    C5328609   6.826   5.489   4.385  0.1832 -0.6162  0.6088
  119MOL    O5428610   6.775   5.377   4.393  0.4484  0.1914 -0.0987
  119MOL    O5528611   6.956   5.522   4.420 -0.0629  0.2952  0.1629
  119MOL    H5628612   6.664   5.597   4.544  1.4007 -0.8138 -0.5823
  119MOL    H5728613   6.569   5.513   4.423 -2.6039  1.0767  0.9139
  119MOL    H5828614   6.851   5.739   4.469  1.1855 -2.1873 -0.4290
  119MOL    H5928615   6.769   5.832   4.330  0.4855 -2.2939 -2.9822
  119MOL    H6028616   6.920   5.748   4.307  0.3072  0.3639 -0.6214
  119MOL    H6128617   6.994   5.444   4.457 -0.5079  0.3158  0.6726
  119MOL    C6228618   6.698   5.598   4.188 -0.4245 -0.1012 -0.7571
  119MOL    C6328619   6.788   5.575   4.061  0.5135  0.0974 -0.3665
  119MOL    C6428620   6.683   5.608   3.943 -0.4601 -0.5696 -0.4665
  119MOL    C6528621   6.904   5.680   4.038 -0.1640  0.3588 -0.3609
  119MOL    O6628622   6.896   5.790   3.991 -0.1466  0.0497 -0.6473
  119MOL    O6728623   7.020   5.629   4.080  0.5004 -0.3397 -0.1329
  119MOL    H6828624   6.612   5.531   4.185 -0.4024 -0.0661 -2.8412
  119MOL    H6928625   6.650   5.693   4.164  0.7740  1.0322  1.1893
  119MOL    H7028626   6.599   5.539   3.952 -2.1895  1.4694 -0.7192
  119MOL    H7128627   6.732   5.601   3.845 -2.8274 -1.5067 -1.6296
  119MOL    H7228628   6.644   5.709   3.955  0.6544  0.1710 -2.6945
  119MOL    H7328629   7.092   5.686   4.058  0.6982  0.6288  2.7873
  119MOL    C7428630   6.837   5.417   4.071  0.6803 -0.3864  0.0921
  119MOL    C7528631   6.863   5.322   3.949 -0.7131  0.6183 -0.0862
  119MOL    C7628632   6.921   5.192   4.015 -0.6043  0.0620  0.2114
  119MOL    C7728633   6.734   5.273   3.876 -0.1116 -0.5819 -0.7046
  119MOL    O7828634   6.685   5.160   3.893  0.3653 -0.2978 -0.3222
  119MOL    O7928635   6.681   5.361   3.788  0.0666  0.0363  0.3755
  119MOL    H8028636   6.930   5.423   4.128  0.3285 -1.1963  0.7551
  119MOL    H8128637   6.775   5.365   4.143  0.3463  2.2698  1.7781
  119MOL    H8228638   6.942   5.114   3.941  1.8039 -0.0712  1.0012
  119MOL    H8328639   6.857   5.144   4.089 -2.6158  1.5841 -0.4931
  119MOL    H8428640   7.012   5.215   4.069  1.4820  0.4605 -3.3169
  119MOL    H8528641   6.739   5.433   3.769 -0.2459  0.3984  0.7907
  119MOL    C8628642   6.983   5.388   3.871  0.3252 -0.5181  0.2643
  119MOL    C8728643   7.017   5.336   3.726  0.5256  0.4213  0.5445
  119MOL    C8828644   6.985   5.183   3.703 -0.1344  0.0108  0.4847
  119MOL    C8928645   6.943   5.419   3.614  0.2286 -0.1366 -1.1942
  119MOL    O9028646   6.847   5.486   3.643 -0.0148 -0.9361 -0.3649
  119MOL    O9128647   6.997   5.399   3.488  0.5341 -0.0852  0.1949
  119MOL    H9228648   6.977   5.497   3.876 -3.5908 -0.6827  0.3277
  119MOL    H9328649   7.075   5.365   3.924 -0.1838  1.3750  2.0427
  119MOL    H9428650   7.048   5.114   3.760 -0.3766  0.7401  1.6701
  119MOL    H9528651   6.998   5.154   3.599  3.7991  0.1765  0.8724
  119MOL    H9628652   6.881   5.152   3.706  0.2423 -1.2745  0.1695
  119MOL    H9728653   6.956   5.467   3.436 -0.3497  0.5342  1.6725
  119MOL    C9828654   7.173   5.350   3.696 -0.5144 -0.1258 -0.2961
  119MOL    C9928655   7.260   5.482   3.705 -0.2022 -0.1200 -0.2533
  119MOL   C10028656   7.397   5.438   3.639  0.5636 -0.2712 -0.0437
  119MOL   C10128657   7.203   5.593   3.614  0.0217  0.1972  0.1635
  119MOL   O10228658   7.251   5.639   3.508  0.0669  0.2886  0.3324
  119MOL   O10328659   7.105   5.652   3.678 -0.0917  0.0704 -0.0627
  119MOL   H10428660   7.217   5.277   3.763  1.3957  2.9069  1.8887
  119MOL   H10528661   7.193   5.314   3.595  1.6579  2.1525 -0.7524
  119MOL   H10628662   7.399   5.378   3.548  0.8509 -0.6848  0.2341
  119MOL   H10728663   7.469   5.387   3.702  1.2051 -0.0234 -0.5625
  119MOL   H10828664   7.463   5.520   3.612 -1.0745  1.0088 -0.2672
  119MOL   H10928665   7.085   5.732   3.632 -1.3090  0.2980  0.8406
  119MOL   C11028666   7.284   5.525   3.853  0.5828  0.3121 -0.3768
  119MOL   C11128667   7.386   5.637   3.912 -0.5934  0.0550 -0.0313
  119MOL   C11228668   7.522   5.632   3.838 -0.1887  0.4520 -0.7645
  119MOL   C11328669   7.313   5.772   3.873 -0.2755 -0.0876 -0.1726
  119MOL   O11428670   7.210   5.808   3.920  0.3875  0.7540 -0.2785
  119MOL   O11528671   7.395   5.855   3.802 -0.2948 -0.4183  0.1645
  119MOL   H11628672   7.185   5.556   3.886  0.1999 -1.3815  0.0931
  119MOL   H11728673   7.314   5.439   3.913 -1.0787  0.6290  0.9560
  119MOL   H11828674   7.592   5.705   3.877 -0.3143 -0.3506  0.9998
  119MOL   H11928675   7.512   5.656   3.732  1.1713  1.0024 -0.7800
  119MOL   H12028676   7.574   5.536   3.831 -0.0242  0.5283 -0.5661
  119MOL   H12128677   7.466   5.793   3.791 -1.5221 -1.8891  0.4868
  119MOL   C12228678   7.382   5.638   4.073 -0.3730  0.8176  0.2367
  119MOL   C12328679   7.427   5.516   4.164  0.1450  0.4154  0.7841
  119MOL   C12428680   7.458   5.591   4.299  0.2984  0.8685 -0.1674
  119MOL   C12528681   7.317   5.407   4.179 -0.4035  1.0394  0.2959
  119MOL   O12628682   7.311   5.308   4.109  0.0790  0.5398  0.4497
  119MOL   O12728683   7.231   5.429   4.281 -0.2286 -0.4376  0.3017
  119MOL   H12828684   7.445   5.725   4.094  0.8621  0.8552 -3.2735
  119MOL   H12928685   7.287   5.676   4.110 -0.8887  0.5795 -0.8288
  119MOL   H13028686   7.547   5.652   4.307  1.1391 -0.3606 -0.0361
  119MOL   H13128687   7.471   5.525   4.384  1.7507  1.2451 -0.0955
  119MOL   H13228688   7.375   5.659   4.318  0.1357  0.5448  0.2999
  119MOL   H13328689   7.250   5.506   4.333  0.8518 -1.2406  1.1295
  119MOL   C13428690   7.558   5.449   4.102 -0.1285 -0.4266  0.2191
  119MOL   C13528691   7.667   5.365   4.181 -0.0824  0.2896  0.1397
  119MOL   C13628692   7.740   5.457   4.287  0.2995 -0.5194 -0.0671
  119MOL   C13728693   7.592   5.254   4.261 -0.2428 -0.4402 -0.0080
  119MOL   O13828694   7.579   5.260   4.385  0.2807 -0.1704  0.1281
  119MOL   O13928695   7.537   5.161   4.177 -0.1359  0.6380 -0.1693
  119MOL   H14028696   7.517   5.387   4.022  0.4666 -0.0387 -0.3888
  119MOL   H14128697   7.622   5.529   4.066 -0.3067  0.3210  1.5611
  119MOL   H14228698   0.051   5.402   4.339 -0.8018  1.2213  3.5901
  119MOL   H14328699   7.677   5.500   4.366 -0.2135 -2.2548  0.4899
  119MOL   H14428700   0.022   5.540   4.235  0.5665 -1.5249 -1.4242
  119MOL   H14528701   7.480   5.101   4.222 -0.8438  1.0712 -0.4918
  119MOL   C14628702   7.759   5.315   4.056 -0.1303  0.0841 -0.5376
  119MOL   C14728703   0.129   5.233   4.076 -0.0901  0.8446  0.0625
  119MOL   C14828704   0.179   5.209   3.941  0.4639  0.1121  0.2618
  119MOL   C14928705   0.229   5.326   4.148 -0.0901  0.0555 -0.1411
  119MOL   O15028706   0.273   5.303   4.254 -0.3676 -0.1249  0.6067
  119MOL   O15128707   0.264   5.434   4.076  0.1866 -0.1736  0.0476
  119MOL   H15228708   7.696   5.248   3.997  0.9560 -1.5278  0.0794
  119MOL   H15328709   0.028   5.397   3.995  1.4359  0.6037  1.0239
  119MOL   H15428710   0.158   5.281   3.862  0.8386  0.1454  0.1906
  119MOL   H15528711   0.123   5.123   3.904 -0.7738  1.3623 -0.8107
  119MOL   H15628712   0.285   5.183   3.943  0.2391 -0.9284 -0.9760
  119MOL   H15728713   0.326   5.491   4.119  0.4232 -1.4669  1.4642
  119MOL   C15828714   0.109   5.099   4.154 -0.3251 -0.3648  0.0906
  119MOL   C15928715   0.205   4.975   4.172  1.3334 -0.4081  0.1340
  119MOL   C16028716   0.212   4.899   4.041 -0.0049  1.0276 -0.5136
  119MOL   C16128717   0.344   5.007   4.227 -0.6057 -0.0341 -0.2675
  119MOL   O16228718   0.384   4.974   4.333 -0.1154 -0.4472 -0.1810
  119MOL   O16328719   0.428   5.063   4.141 -0.1658  0.8783  0.1707
  119MOL   H16428720   0.073   5.138   4.249 -2.1534  0.0118 -0.7351
  119MOL   H16528721   0.025   5.057   4.100 -0.5579  1.3609 -0.9305
  119MOL   H16628722   0.271   4.946   3.962 -0.1784  0.7790 -0.7931
  119MOL   H16728723   0.117   4.868   3.999 -1.2902  0.6486  2.5518
  119MOL   H16828724   0.276   4.813   4.063  0.2419  1.2158 -0.4856
  119MOL   H16928725   0.513   5.070   4.181 -0.0193  0.8099 -0.1237
  119MOL   C17028726   0.120   4.882   4.279 -0.1328  0.0236 -0.6661
  119MOL   C17128727   0.067   4.912   4.426 -0.0217 -0.2292  0.3191
  119MOL   C17228728   7.677   4.908   4.422  0.3847  0.3282 -0.1699
  119MOL   C17328729   0.119   4.796   4.515 -0.1051 -0.5175 -0.6332
  119MOL   O17428730   0.046   4.733   4.594 -0.1887  0.1225 -0.5879
  119MOL   O17528731   0.252   4.774   4.497 -0.6501  0.1006 -0.8909
  119MOL   H17628732   0.035   4.851   4.219  0.6434 -1.1810 -1.1622
  119MOL   H17728733   0.179   4.790   4.275  2.4897  1.4291  2.7165
  119MOL   H17828734   7.649   4.808   4.387  1.6946  0.5794 -1.9985
  119MOL   H17928735   7.644   4.982   4.349  1.5257  0.6666 -0.3541
  119MOL   H18028736   7.638   4.920   4.523  1.0537  2.0385 -0.0969
  119MOL   H18128737   0.289   4.828   4.429  1.0862 -0.0134 -0.0453
  119MOL   C18228738   0.105   5.051   4.486  0.1316  0.0003 -0.8953
  119MOL   C18328739   0.122   5.087   4.639 -0.0255  0.2557  0.0165
  119MOL   C18428740   7.755   5.059   4.716  0.0756  0.1731  0.5026
  119MOL   C18528741   0.242   5.007   4.700  0.4428 -0.1270 -0.5157
  119MOL   O18628742   0.225   4.924   4.793 -0.2609 -0.0373  0.4575
  119MOL   O18728743   0.361   5.036   4.632 -0.0985  0.2909  0.0072
  119MOL   H18828744   0.198   5.078   4.437  0.5412 -1.0754 -0.7219
  119MOL   H18928745   0.038   5.127   4.446  0.5558  0.0794 -1.4659
  119MOL   H19028746   7.671   5.100   4.661  0.4758 -1.3108 -1.2711
  119MOL   H19128747   7.740   5.103   4.815 -0.9246  0.1449  0.3700
  119MOL   H19228748   7.742   4.954   4.744  0.3012  0.1001  0.3318
  119MOL   H19328749   0.423   4.970   4.658 -1.6519 -0.4270  2.0918
  119MOL   C19428750   0.142   5.245   4.652  0.2626  0.3041  1.0709
  119MOL   C19528751   0.200   5.327   4.773 -0.4102  0.3489  0.0116
  119MOL   C19628752   0.355   5.330   4.749 -0.1847 -0.5888  0.0774
  119MOL   C19728753   0.144   5.469   4.771  0.7356  0.2056  0.2206
  119MOL   O19828754   0.206   5.569   4.748  0.1039 -0.2954 -0.2291
  119MOL   O19928755   0.010   5.456   4.782  0.3335 -0.0813 -0.7171
  119MOL   H20028756   0.198   5.276   4.565 -0.0141 -1.1216  0.3560
  119MOL   H20128757   0.043   5.287   4.632 -0.0760 -1.0685 -0.2454
  119MOL   H20228758   0.390   5.337   4.645 -1.9281 -0.7470 -0.5324
  119MOL   H20328759   0.409   5.242   4.782  0.7962 -0.0106  0.0572
  119MOL   H20428760   0.401   5.416   4.798 -1.3829  0.8258 -1.2049
  119MOL   H20528761   7.748   5.541   4.754  1.5299 -0.3193 -2.7409
  119MOL   C20628762   0.168   5.269   4.923 -0.2664  0.3427  0.0027
  119MOL   C20728763   0.234   5.317   5.055  0.0377 -0.0961 -0.2130
  119MOL   C20828764   0.386   5.349   5.044 -0.4701  0.5028 -0.4685
  119MOL   C20928765   0.161   5.448   5.114  0.0456  0.1435  0.7205
  119MOL   O21028766   0.052   5.488   5.074 -0.1850 -0.3360 -0.5267
  119MOL   O21128767   0.232   5.496   5.223 -0.2615  0.0800  0.0099
  119MOL   H21228768   0.060   5.263   4.936 -0.3887  1.0687 -0.6318
  119MOL   H21328769   0.203   5.167   4.911  1.4395  0.9680 -0.4848
  119MOL   H21428770   0.440   5.345   5.138 -0.8494  0.0725 -0.2665
  119MOL   H21528771   0.392   5.445   4.992  1.8804  1.5085  1.5639
  119MOL   H21628772   0.430   5.264   4.990 -0.2217 -0.2313  0.8771
  119MOL   H21728773   0.201   5.576   5.262 -2.1158  0.2190 -1.6817
  119MOL   C21828774   0.239   5.197   5.162  0.7306 -0.3134  0.3256
  119MOL   C21928775   0.117   5.115   5.205 -0.2003  0.0250 -0.3256
  119MOL   C22028776   0.067   5.019   5.093  0.1079 -0.1060  0.3155
  119MOL   C22128777   0.171   5.033   5.333  0.3343  0.1921 -0.2038
  119MOL   O22228778   0.152   5.049   5.454 -0.4142  0.4460  0.4049
  119MOL   O22328779   0.245   4.931   5.286 -0.4530  0.2773  0.0551
  119MOL   H22428780   0.319   5.128   5.134 -1.3729 -3.1804  1.1116
  119MOL   H22528781   0.269   5.245   5.255  0.5073  1.2855 -0.4038
  119MOL   H22628782   0.155   5.005   5.029 -0.3572 -0.9561 -0.1489
  119MOL   H22728783   7.746   5.045   5.034  1.9570  1.2680 -1.9276
  119MOL   H22828784   0.034   4.928   5.142 -2.9048  1.4646  1.2965
  119MOL   H22928785   0.309   4.893   5.343  0.1383  2.1083  0.6373
  119MOL   C23028786   7.766   5.210   5.256 -0.0687 -0.3989 -0.1147
  119MOL   C23128787   7.638   5.159   5.329 -0.3714 -0.5487  0.3788
  119MOL   C23228788   7.556   5.277   5.381  0.6438  0.4509 -0.1803
  119MOL   C23328789   7.553   5.070   5.235 -0.2425 -0.4125 -0.3649
  119MOL   O23428790   7.503   5.110   5.131  0.1528 -0.2223  0.4938
  119MOL   O23528791   7.520   4.947   5.299  0.0969  0.1647  1.1126
  119MOL   H23628792   0.044   5.274   5.332  3.2823 -1.2272 -1.3090
  119MOL   H23728793   7.729   5.270   5.172  1.5417 -0.1580 -0.6780
  119MOL   H23828794   7.596   5.368   5.336  0.9298  0.2941 -0.2483
  119MOL   H23928795   7.569   5.285   5.489  0.1684 -0.6414 -0.0352
  119MOL   H24028796   7.450   5.265   5.362  1.0188  0.1554 -2.1442
  119MOL   H24128797   7.565   4.932   5.380  0.0648 -1.3894  0.8601
  119MOL   H24228798   7.673   5.088   5.403  1.8540 -0.1480 -0.2706
  120MOL     C128799   0.215   1.611   6.488 -0.0994 -0.0065 -0.1147
  120MOL     C228800   0.169   1.735   6.573 -0.4156  0.0041  0.3869
  120MOL     C328801   0.281   1.765   6.659 -0.9491  0.1330  0.3100
  120MOL     C428802   0.160   1.857   6.469  0.1849  0.2593 -0.4670
  120MOL     O528803   0.164   1.848   6.347 -0.2457  0.0916 -0.2946
  120MOL     O628804   0.134   1.975   6.523 -0.7345 -0.9907 -0.7175
  120MOL     H728805   0.125   1.571   6.441  0.2752 -0.9112 -0.0678
  120MOL     H828806   0.264   1.534   6.548 -2.7654 -1.2481  0.5585
  120MOL     H928807   0.268   1.856   6.717 -0.4213  0.0351  0.5858
  120MOL    H1028808   0.374   1.787   6.606 -0.9993  1.9043  0.9259
  120MOL    H1128809   0.305   1.690   6.735  0.2405  0.0858 -0.0980
  120MOL    H1228810   0.143   2.037   6.453  1.2274  1.2392  1.3892
  120MOL    H1328811   0.282   1.639   6.407  0.7614  1.4998  1.0850
  120MOL    C1428812   0.032   1.724   6.644  0.5996  0.0677 -0.3765
  120MOL    C1528813   0.002   1.626   6.776 -0.2661 -0.4940  0.9367
  120MOL    C1628814   0.079   1.491   6.757 -0.6136  0.0420  0.3028
  120MOL    C1728815   0.054   1.696   6.905  0.6624 -0.4542  0.2272
  120MOL    O1828816   0.093   1.809   6.904 -0.4115 -0.1542 -0.0774
  120MOL    O1928817   0.047   1.616   7.017 -0.0346  0.0229  0.3525
  120MOL    H2028818   7.751   1.822   6.654 -1.7892 -1.1414  0.3664
  120MOL    H2128819   7.747   1.688   6.556 -1.0829  0.7299  0.3168
  120MOL    H2228820   0.049   1.421   6.835  0.7077  0.9489  1.6561
  120MOL    H2328821   0.187   1.499   6.748 -0.8760  1.0615 -2.4183
  120MOL    H2428822   0.041   1.451   6.663  1.6327  0.2501 -0.7257
  120MOL    H2528823   0.100   1.645   7.090  1.2607  0.7749 -0.8564
  120MOL    C2628824   7.609   1.605   6.769 -0.4264  0.5552  0.1241
  120MOL    C2728825   7.522   1.540   6.884 -0.1602 -0.0648  1.0388
  120MOL    C2828826   7.396   1.493   6.815  0.2305 -0.2084  0.4794
  120MOL    C2928827   7.584   1.417   6.951  0.1742  0.6070 -0.2660
  120MOL    O3028828   7.625   1.415   7.064  0.1205 -0.3421 -0.4359
  120MOL    O3128829   7.590   1.305   6.876  0.1794 -0.5057 -0.2164
  120MOL    H3228830   7.570   1.697   6.728 -0.2450  1.0084  0.9585
  120MOL    H3328831   7.597   1.540   6.682  0.0696 -0.9298  1.1272
  120MOL    H3428832   7.337   1.577   6.777  1.1052 -0.6847 -2.0659
  120MOL    H3528833   7.328   1.438   6.880 -0.1483  0.2440  0.4695
  120MOL    H3628834   7.418   1.422   6.734  2.9372 -0.2469  1.2015
  120MOL    H3728835   7.592   1.229   6.932  1.5977 -1.4628 -1.4882
  120MOL    C3828836   7.492   1.654   6.981  0.0935 -0.7791  0.1819
  120MOL    C3928837   7.364   1.649   7.083 -0.4795  0.0659  0.8184
  120MOL    C4028838   7.221   1.633   7.014 -0.0845 -0.0039 -0.6920
  120MOL    C4128839   7.382   1.542   7.191 -0.1428  1.2293  0.7329
  120MOL    O4228840   7.437   1.560   7.299 -0.2121  0.1337  0.3224
  120MOL    O4328841   7.343   1.420   7.150  0.0112  0.3089  0.3239
  120MOL    H4428842   7.573   1.688   7.046  1.5912 -1.6070 -1.2066
  120MOL    H4528843   7.466   1.734   6.912 -0.0881 -1.1477 -0.1764
  120MOL    H4628844   7.216   1.679   6.915  0.3223 -1.1305 -1.2529
  120MOL    H4728845   7.147   1.677   7.081  2.6320  1.8766  1.1808
  120MOL    H4828846   7.196   1.527   7.005  0.0725 -0.1002 -0.0244
  120MOL    H4928847   7.382   1.353   7.203 -2.1048 -1.6718 -0.5372
  120MOL    C5028848   7.359   1.784   7.161 -0.2230 -0.0537 -0.0694
  120MOL    C5128849   7.354   1.930   7.105 -0.3983  0.0381 -0.0416
  120MOL    C5228850   7.267   1.939   6.974 -0.4478  0.5623 -0.4602
  120MOL    C5328851   7.285   2.018   7.213  0.5340 -0.2105 -0.1351
  120MOL    O5428852   7.190   2.092   7.197  0.2965 -0.3129  0.1588
  120MOL    O5528853   7.340   1.996   7.333  0.0680  0.2779 -0.1164
  120MOL    H5628854   7.270   1.776   7.224 -0.7243 -2.1872 -0.9894
  120MOL    H5728855   7.434   1.784   7.239  0.4608 -1.1479 -0.7276
  120MOL    H5828856   7.173   1.886   6.991 -1.8994  2.6192 -1.8586
  120MOL    H5928857   7.319   1.900   6.887  2.0226  0.3210  1.0895
  120MOL    H6028858   7.250   2.042   6.946  3.0343  1.3782  0.1876
  120MOL    H6128859   7.289   2.038   7.401 -0.6838  1.2712 -1.2682
  120MOL    C6228860   7.504   1.975   7.061  0.6759  0.1914 -0.1120
  120MOL    C6328861   7.561   2.117   7.075 -0.2588  0.1490 -1.1049
  120MOL    C6428862   7.467   2.229   7.018  0.0239 -0.7942  0.2991
  120MOL    C6528863   7.587   2.147   7.228  0.0628  0.2075 -0.7386
  120MOL    O6628864   7.529   2.240   7.284  0.9383  0.1587 -0.1624
  120MOL    O6728865   7.669   2.057   7.292  0.3028  0.0118  0.1890
  120MOL    H6828866   7.575   1.914   7.118  0.2801  2.2891  2.7416
  120MOL    H6928867   7.519   1.939   6.959  2.1114 -0.2799  0.2465
  120MOL    H7028868   7.365   2.220   7.055 -0.4400 -1.9965 -1.2356
  120MOL    H7128869   7.458   2.215   6.910  0.2342 -0.2274  0.2030
  120MOL    H7228870   7.501   2.331   7.037 -0.5627 -0.6828  0.7832
  120MOL    H7328871   7.660   2.087   7.381  1.0801 -0.5333  0.4525
  120MOL    C7428872   7.685   2.109   6.981 -0.3568 -0.0667  0.2152
  120MOL    C7528873   0.027   2.217   6.955 -0.2072 -1.2120  0.0579
  120MOL    C7628874   0.091   2.268   7.079  0.2648 -0.0582  0.6261
  120MOL    C7728875   0.127   2.139   6.872  0.5944 -0.4669  0.6466
  120MOL    O7828876   0.212   2.070   6.921 -0.1523 -0.2567 -0.1309
  120MOL    O7928877   0.095   2.143   6.741 -0.6990 -0.2259  0.1933
  120MOL    H8028878   7.725   2.013   7.012  0.2245  0.1651  0.1839
  120MOL    H8128879   7.661   2.084   6.878  0.8642  0.9099 -0.3178
  120MOL    H8228880   0.026   2.349   7.111 -0.5824 -1.0831  1.5411
  120MOL    H8328881   0.191   2.306   7.060  0.5357 -1.3664 -0.6270
  120MOL    H8428882   0.099   2.188   7.153 -2.9962 -0.7979  0.2871
  120MOL    H8528883   0.149   2.089   6.686  0.1936  0.8535 -0.0090
  120MOL    C8628884   7.732   2.344   6.866  0.1002  0.9444  0.6148
  120MOL    C8728885   0.040   2.469   6.809 -0.1605  0.0319 -0.1304
  120MOL    C8828886   0.066   2.561   6.934  0.1482 -0.4001 -0.0824
  120MOL    C8928887   0.178   2.428   6.745  0.3939  0.1023  0.1517
  120MOL    O9028888   0.194   2.406   6.624 -0.3010 -0.0982  0.0450
  120MOL    O9128889   0.274   2.406   6.841  0.5661 -0.5109 -0.1860
  120MOL    H9228890   7.667   2.318   6.782  0.6979 -0.5683  0.5998
  120MOL    H9328891   7.665   2.391   6.939 -1.0938 -0.5287  0.4924
  120MOL    H9428892   7.740   2.596   6.978 -0.5405 -1.3506 -0.7577
  120MOL    H9528893   0.112   2.656   6.907  0.5966  0.3446  3.0626
  120MOL    H9628894   0.130   2.517   7.010 -0.1316 -1.2979 -0.3590
  120MOL    H9728895   0.347   2.374   6.790  1.8288  2.0221 -0.0396
  120MOL    C9828896   7.707   2.557   6.715 -0.5982  0.5065  0.2263
  120MOL    C9928897   7.699   2.563   6.551 -0.0808  0.1153  0.0973
  120MOL   C10028898   7.580   2.662   6.512  0.2164 -0.3535  0.3776
  120MOL   C10128899   0.057   2.648   6.503 -0.1183  0.2781 -0.4127
  120MOL   O10228900   0.151   2.690   6.576  0.5057 -0.0413  0.0170
  120MOL   O10328901   0.060   2.666   6.367  0.0769 -0.4880  0.2103
  120MOL   H10428902   7.604   2.531   6.739 -0.4451  1.0749  1.5435
  120MOL   H10528903   7.716   2.661   6.748 -1.0760  0.0550  1.8178
  120MOL   H10628904   7.487   2.629   6.559  0.2092 -1.0793 -0.1372
  120MOL   H10728905   7.570   2.692   6.408  1.1650 -1.5212 -0.0587
  120MOL   H10828906   7.583   2.760   6.561 -0.2888 -1.1886  2.1151
  120MOL   H10928907   0.133   2.725   6.361 -0.5081  0.4824  2.2258
  120MOL   C11028908   7.690   2.414   6.488  0.5287 -0.3442  0.6531
  120MOL   C11128909   7.564   2.348   6.417  0.2758  0.1076 -0.1513
  120MOL   C11228910   7.600   2.202   6.389  0.0903  0.6097 -0.3485
  120MOL   C11328911   7.437   2.348   6.509  0.0467 -0.4367  0.5914
  120MOL   O11428912   7.337   2.419   6.491  0.0743 -0.1621 -0.8342
  120MOL   O11528913   7.443   2.255   6.612  0.3173  0.1007  0.1826
  120MOL   H11628914   0.000   2.391   6.415 -0.1010 -1.3763  0.2925
  120MOL   H11728915   7.716   2.346   6.570  2.7100  1.6439  1.6656
  120MOL   H11828916   7.512   2.145   6.362 -0.2325  1.9035 -2.1321
  120MOL   H11928917   7.638   2.150   6.477  3.4042  1.1078 -1.4224
  120MOL   H12028918   7.676   2.200   6.311 -0.0038 -1.7466 -0.3908
  120MOL   H12128919   7.358   2.235   6.649  0.7575 -1.3348  0.4388
  120MOL   C12228920   7.531   2.426   6.279  0.3308  0.2997 -0.5540
  120MOL   C12328921   7.448   2.367   6.155  0.4604 -0.0856  0.0948
  120MOL   C12428922   7.538   2.277   6.058  0.1420 -0.3784 -0.0202
  120MOL   C12528923   7.325   2.299   6.205  0.1582 -0.0312  0.1549
  120MOL   O12628924   7.221   2.356   6.238 -0.5963  0.0681 -0.5637
  120MOL   O12728925   7.324   2.162   6.177 -0.3624  0.6243  0.6651
  120MOL   H12828926   7.482   2.519   6.307 -0.2911 -0.3414  0.4961
  120MOL   H12928927   7.632   2.456   6.248  0.7196 -0.2791  0.1497
  120MOL   H13028928   7.586   2.200   6.118  0.4165  1.1722  1.7937
  120MOL   H13128929   7.620   2.327   6.007  0.8599 -1.4840  0.0362
  120MOL   H13228930   7.486   2.221   5.980  1.1255  0.6608 -1.4571
  120MOL   H13328931   7.240   2.122   6.192 -0.4226 -0.4052 -2.0945
  120MOL   C13428932   7.392   2.493   6.070  0.0875  0.0672  0.3534
  120MOL   C13528933   7.479   2.581   5.973 -0.2758  0.5355  0.7264
  120MOL   C13628934   7.615   2.613   6.054 -0.6501 -0.1992 -0.5393
  120MOL   C13728935   7.513   2.491   5.846 -0.2918 -0.2483  0.6415
  120MOL   O13828936   7.630   2.456   5.814  0.1609 -0.0477 -0.0309
  120MOL   O13928937   7.402   2.446   5.775 -0.6042  0.0209 -0.0282
  120MOL   H14028938   7.295   2.468   6.027  1.1329  0.2331 -2.1988
  120MOL   H14128939   7.366   2.567   6.145 -3.1396  0.2384 -0.8753
  120MOL   H14228940   7.686   2.671   5.996  1.3060 -2.1287 -0.1181
  120MOL   H14328941   7.666   2.520   6.077 -3.2812 -1.1177  1.8869
  120MOL   H14428942   7.589   2.675   6.139  0.3895 -1.6348  0.8413
  120MOL   H14528943   7.438   2.409   5.696  3.0562  3.9198 -0.4057
  120MOL   C14628944   7.399   2.702   5.918  0.4219  0.8107 -0.8004
  120MOL   C14728945   7.436   2.809   5.807 -0.0513  0.3652  0.2407
  120MOL   C14828946   7.327   2.925   5.818  0.2205 -0.8873 -0.5816
  120MOL   C14928947   7.572   2.871   5.854  0.1340  0.3110 -0.2245
  120MOL   O15028948   7.574   2.979   5.914 -0.1378 -0.5862  0.3852
  120MOL   O15128949   7.678   2.799   5.806  0.5527 -0.4947 -0.7419
  120MOL   H15228950   7.296   2.672   5.901 -0.0573  1.7015  0.4493
  120MOL   H15328951   7.380   2.766   6.003 -1.7939 -1.3803  0.3948
  120MOL   H15428952   7.315   2.950   5.924 -0.6157 -2.4734 -0.2847
  120MOL   H15528953   7.236   2.887   5.772 -0.5723  1.0361 -0.6567
  120MOL   H15628954   7.352   3.013   5.760  3.0780 -2.1617 -1.3959
  120MOL   H15728955   0.001   2.810   5.832  0.9293 -1.3936 -1.6623
  120MOL   C15828956   7.433   2.746   5.664  0.2637  0.0303  0.9623
  120MOL   C15928957   7.443   2.821   5.522 -0.0950 -0.4866 -0.0478
  120MOL   C16028958   7.297   2.837   5.466  0.4354 -0.3822 -0.0213
  120MOL   C16128959   7.495   2.969   5.545 -0.0912  0.7649  0.3274
  120MOL   O16228960   7.419   3.065   5.539  0.2079 -0.2129  0.5260
  120MOL   O16328961   7.624   2.992   5.566  0.6312 -0.0339  1.0092
  120MOL   H16428962   7.505   2.664   5.665 -2.3359 -2.3729 -0.4138
  120MOL   H16528963   7.344   2.683   5.660  1.1211 -1.1610  0.1175
  120MOL   H16628964   7.241   2.752   5.428 -0.5183 -0.1377  0.7964
  120MOL   H16728965   7.298   2.905   5.381 -1.6616  0.3214  0.4774
  120MOL   H16828966   7.229   2.880   5.539  4.1279  2.1844  2.1045
  120MOL   H16928967   7.644   3.084   5.573  0.5869  0.2728 -2.2949
  120MOL   C17028968   7.554   2.754   5.424 -0.0721  0.4704 -0.2903
  120MOL   C17128969   7.528   2.639   5.320 -0.3089 -0.0594 -0.1125
  120MOL   C17228970   7.663   2.566   5.290 -0.0784 -0.0677 -0.4955
  120MOL   C17328971   7.435   2.527   5.384 -0.0049 -0.3053 -0.8063
  120MOL   O17428972   7.445   2.501   5.507  0.2301  0.3293  0.0030
  120MOL   O17528973   7.337   2.483   5.306  0.3793 -0.3933  0.1223
  120MOL   H17628974   7.617   2.826   5.370 -1.4586  1.3963 -0.6899
  120MOL   H17728975   7.624   2.717   5.499 -0.1828 -0.2831 -0.5532
  120MOL   H17828976   7.758   2.615   5.270 -0.5881  1.0663 -0.1952
  120MOL   H17928977   7.657   2.492   5.210  3.6029  1.0718 -1.9092
  120MOL   H18028978   7.693   2.508   5.378  1.3725  0.5246 -0.5861
  120MOL   H18128979   7.342   2.514   5.216  1.9911 -2.4111 -0.5303
  120MOL   C18228980   7.461   2.697   5.191 -0.2149  0.4876  0.2280
  120MOL   C18328981   7.519   2.807   5.092 -0.0100  0.5521 -0.2545
  120MOL   C18428982   7.533   2.947   5.163  0.2322  0.0671 -0.4235
  120MOL   C18528983   7.658   2.761   5.042  0.5771 -0.1227 -0.1518
  120MOL   O18628984   7.681   2.646   4.993  0.4319 -0.1014  0.2950
  120MOL   O18728985   7.761   2.851   5.052  0.0811  0.2195 -0.2586
  120MOL   H18828986   7.447   2.613   5.123  0.0415  1.2998 -0.8463
  120MOL   H18928987   7.359   2.727   5.216 -0.1442  1.0587 -0.1514
  120MOL   H19028988   7.603   2.973   5.242 -1.6251  1.5548  0.7753
  120MOL   H19128989   7.440   2.976   5.211  0.9299  0.6421  0.6065
  120MOL   H19228990   7.542   3.026   5.088 -1.7267 -0.0160 -0.7612
  120MOL   H19328991   0.066   2.828   4.997  0.0486  1.5282 -0.8813
  120MOL   C19428992   7.411   2.828   4.972 -0.0882  0.2410  0.1309
  120MOL   C19528993   7.449   2.893   4.827 -0.4757 -0.0272  0.0008
  120MOL   C19628994   7.308   2.903   4.754  0.7046  0.5927 -0.2232
  120MOL   C19728995   7.521   3.028   4.834 -0.0876  0.0431 -0.2522
  120MOL   O19828996   7.639   3.040   4.807 -0.4461 -1.0189 -0.1169
  120MOL   O19928997   7.439   3.130   4.875  0.4341  0.0129  0.4485
  120MOL   H20028998   7.338   2.747   4.969  0.5715 -0.3461 -0.4080
  120MOL   H20128999   7.348   2.913   5.000  1.3163  1.2706  0.2340
  120MOL   H20229000   7.251   2.811   4.762  2.0606 -0.3460 -1.1148
  120MOL   H20329001   7.316   2.928   4.649  0.9029  0.2688 -0.2872
  120MOL   H20429002   7.256   2.981   4.810  0.2754 -0.0496  0.2849
  120MOL   H20529003   7.493   3.206   4.891  0.6553  0.2508 -1.2846
  120MOL   C20629004   7.536   2.784   4.752 -0.1927  0.0249  0.1151
  120MOL   C20729005   7.512   2.748   4.600 -0.2152  0.4353 -0.0509
  120MOL   C20829006   7.638   2.658   4.571 -0.8235  0.0684  0.1722
  120MOL   C20929007   7.388   2.663   4.575  0.4419 -0.3231 -0.0925
  120MOL   O21029008   7.289   2.696   4.513  0.3050  0.1174  0.4168
  120MOL   O21129009   7.402   2.538   4.621  0.0590  0.6933 -0.0510
  120MOL   H21229010   7.640   2.789   4.784  0.0746  1.2218 -0.9012
  120MOL   H21329011   7.510   2.690   4.801  2.2789  0.3718  2.2171
  120MOL   H21429012   7.655   2.582   4.647 -0.0013  0.1956  0.1289
  120MOL   H21529013   7.728   2.718   4.560 -0.8003  0.0107  0.0369
  120MOL   H21629014   7.637   2.603   4.477  3.7360 -1.9890  1.1611
  120MOL   H21729015   7.355   2.477   4.566  1.4661 -0.7004  0.2438
  120MOL   C21829016   7.532   2.874   4.507 -0.1433 -0.4238 -0.3387
  120MOL   C21929017   7.569   2.873   4.350  0.3204  0.0853 -0.1125
  120MOL   C22029018   7.487   2.763   4.281 -0.4232 -0.3790 -0.1020
  120MOL   C22129019   7.527   3.013   4.287  0.0296 -0.1030 -0.6099
  120MOL   O22229020   7.431   3.038   4.209 -0.1581  0.3823 -0.1192
  120MOL   O22329021   7.615   3.106   4.339 -0.0962  0.1863 -0.0471
  120MOL   H22429022   7.447   2.941   4.514  0.2676 -0.0419  1.1798
  120MOL   H22529023   7.612   2.932   4.552 -1.7647  1.1961  0.5008
  120MOL   H22629024   7.508   2.760   4.175  1.2980 -1.0489  0.2409
  120MOL   H22729025   7.381   2.777   4.304  0.1326  1.8946  1.2465
  120MOL   H22829026   7.517   2.661   4.305 -0.0060 -0.1805  0.2228
  120MOL   H22929027   7.599   3.194   4.308 -1.8006 -0.3710 -0.7960
  120MOL   C23029028   7.727   2.853   4.332 -0.1209 -0.0208 -0.6124
  120MOL   C23129029   0.022   2.880   4.191 -0.2077  0.5412 -0.4760
  120MOL   C23229030   0.176   2.883   4.193 -0.0261 -0.6236  0.4403
  120MOL   C23329031   7.744   2.787   4.079 -0.5728 -0.0583  0.5287
  120MOL   O23429032   7.719   2.667   4.100  0.4263  0.2872 -0.0725
  120MOL   O23529033   7.719   2.851   3.963 -0.8357 -0.6706  0.6117
  120MOL   H23629034   0.015   2.917   4.400  1.0511 -0.3972 -1.2023
  120MOL   H23729035   7.752   2.749   4.350  0.0082  0.7862  4.5338
  120MOL   H23829036   0.225   2.842   4.105  1.4495  1.1519  0.3892
  120MOL   H23929037   0.224   2.825   4.271 -0.7177 -0.6477  0.8468
  120MOL   H24029038   0.204   2.988   4.205 -1.3742 -0.0253 -1.4383
  120MOL   H24129039   7.726   2.945   3.972 -0.1396 -0.9273  3.0853
  120MOL   H24229040   7.750   2.978   4.163 -0.2144  1.4939  2.7120
  121MOL     C129041   5.689   5.267   7.605  0.4901 -0.2155 -0.1751
  121MOL     C229042   5.581   5.285   7.709 -0.2136  0.1098 -0.3718
  121MOL     C329043   5.442   5.301   7.645 -0.7669  0.4069 -0.3403
  121MOL     C429044   5.579   5.167   0.040 -0.5534  0.0495  0.3239
  121MOL     O529045   5.661   5.080   0.038 -0.5462 -0.3314  1.2031
  121MOL     O629046   5.469   5.162   0.113  0.3032 -0.0998  0.2193
  121MOL     H729047   5.652   5.207   7.521 -0.1590 -2.5419  1.7100
  121MOL     H829048   5.781   5.214   7.629  1.6042  0.7354 -2.2581
  121MOL     H929049   5.453   5.388   7.580 -2.4242  0.0203 -1.1574
  121MOL    H1029050   5.361   5.333   7.712 -0.3347  1.5522 -0.3484
  121MOL    H1129051   5.415   5.214   7.586  1.7566 -2.4002  2.4630
  121MOL    H1229052   5.483   5.092   0.175  0.9089 -1.6800 -1.6440
  121MOL    H1329053   5.719   5.360   7.558  0.2378 -0.6689 -1.2678
  121MOL    C1429054   5.595   5.421   0.027 -0.0425 -0.4518 -0.0225
  121MOL    C1529055   5.714   5.458   0.124 -0.3684  0.0923 -0.4129
  121MOL    C1629056   5.710   5.376   0.254  0.6138 -0.0640  0.0930
  121MOL    C1729057   5.857   5.446   0.056 -0.0877  0.2827 -0.2212
  121MOL    O1829058   5.955   5.386   0.106  0.4316  0.0618  0.1667
  121MOL    O1929059   5.851   5.501   7.698  0.1854 -0.4076  0.1426
  121MOL    H2029060   5.583   5.503   7.724  0.6870 -0.6621 -0.3976
  121MOL    H2129061   5.506   5.425   0.091 -0.3530  0.1306 -0.4812
  121MOL    H2229062   5.741   5.273   0.237 -1.6312 -0.4305 -2.0990
  121MOL    H2329063   5.607   5.369   0.291  0.5265 -2.1492 -0.4697
  121MOL    H2429064   5.765   5.415   0.339 -0.2748 -1.0642  1.1442
  121MOL    H2529065   5.929   5.479   7.649 -0.2358  1.5896 -1.4909
  121MOL    C2629066   5.678   5.609   0.165 -0.1487  0.2345  0.1132
  121MOL    C2729067   5.746   5.693   0.279 -0.9079  0.9032 -0.9247
  121MOL    C2829068   5.704   5.845   0.251 -0.0101  0.2383 -0.6360
  121MOL    C2929069   5.677   5.657   0.414 -0.2431 -0.4237  0.5932
  121MOL    O3029070   5.729   5.586   0.500  0.1041  0.0395  0.5832
  121MOL    O3129071   5.547   5.693   0.413  0.7538  0.2818 -0.3268
  121MOL    H3229072   5.693   5.671   0.078  2.5508 -1.0126 -0.3504
  121MOL    H3329073   5.570   5.619   0.175 -0.1323 -0.8116  1.5520
  121MOL    H3429074   5.601   5.846   0.214  0.0521  1.5446 -0.7697
  121MOL    H3529075   5.768   5.890   0.175  0.4066  0.9795  0.1543
  121MOL    H3629076   5.700   5.906   0.341  1.1559 -0.1793 -0.2834
  121MOL    H3729077   5.516   5.674   0.501  1.6793  1.1987  0.2113
  121MOL    C3829078   5.904   5.684   0.281 -0.2760  1.2389  0.4555
  121MOL    C3929079   5.994   5.779   0.371 -0.0723 -0.2840  0.6518
  121MOL    C4029080   5.962   5.784   0.521 -0.8915 -0.2532  0.2240
  121MOL    C4129081   6.138   5.710   0.369 -0.0624 -0.3969 -0.6502
  121MOL    O4229082   6.203   5.666   0.462 -0.1822  0.2209 -0.3401
  121MOL    O4329083   6.174   5.704   0.238  0.3499  0.1860 -0.1764
  121MOL    H4429084   5.937   5.582   0.300  2.3759  1.4384 -2.5443
  121MOL    H4529085   5.934   5.704   0.178 -1.5214  4.3682  0.6463
  121MOL    H4629086   6.016   5.861   0.577 -0.7566 -0.4243  0.3263
  121MOL    H4729087   5.974   5.691   0.575 -0.4839  0.6895  1.8065
  121MOL    H4829088   5.860   5.823   0.524 -0.1681  1.9444 -2.1205
  121MOL    H4929089   6.264   5.677   0.229  0.3903  0.7228 -1.5003
  121MOL    C5029090   6.001   5.928   0.311  0.3152 -0.5771  0.4620
  121MOL    C5129091   6.113   6.037   0.343  0.4536 -1.1431  0.4647
  121MOL    C5229092   6.066   6.166   0.261  0.1109  0.5236 -0.3057
  121MOL    C5329093   6.111   6.080   0.497 -0.0429 -1.1979  0.1822
  121MOL    O5429094   6.216   6.080   0.574  0.4237 -0.0588  0.2722
  121MOL    O5529095   5.988   6.135   0.522  0.2904 -0.7778 -0.4653
  121MOL    H5629096   5.992   5.923   0.202  0.3813 -0.6993  0.4620
  121MOL    H5729097   5.913   5.985   0.342  0.9148  2.0009 -2.3708
  121MOL    H5829098   6.072   6.153   0.153  1.6946 -1.3750 -0.0228
  121MOL    H5929099   6.127   6.253   0.284  0.8677  0.2276 -1.1720
  121MOL    H6029100   5.962   6.193   0.279  0.4453  0.8793  1.1841
  121MOL    H6129101   5.987   6.172   0.609  0.5332  0.6819 -1.0542
  121MOL    C6229102   6.262   6.002   0.307 -0.9403 -0.0016 -0.0600
  121MOL    C6329103   6.327   6.004   0.162  0.1777  0.0545  0.2575
  121MOL    C6429104   6.368   6.150   0.146  0.1069 -0.3070  0.2388
  121MOL    C6529105   6.455   5.915   0.168  0.1053 -0.4256 -0.1338
  121MOL    O6629106   6.567   5.958   0.147 -0.2935  0.6540 -0.3535
  121MOL    O6729107   6.431   5.793   0.216  0.2331  0.1589  0.0232
  121MOL    H6829108   6.336   6.056   0.366  1.7925 -2.0187 -1.4837
  121MOL    H6929109   6.279   5.906   0.356  1.4292  0.0794 -0.6388
  121MOL    H7029110   6.435   6.174   0.063 -0.5409  0.5422 -0.0429
  121MOL    H7129111   6.431   6.185   0.228 -0.5083  0.7684  0.2568
  121MOL    H7229112   6.293   6.228   0.140 -0.6657 -0.8889  1.9632
  121MOL    H7329113   6.511   5.744   0.216  0.7497  1.0052 -0.1515
  121MOL    C7429114   6.233   5.960   0.043 -0.8154  0.2764  0.0535
  121MOL    C7529115   6.282   5.910   7.670  0.3022 -0.1816 -0.2180
  121MOL    C7629116   6.418   5.973   7.606  0.3993  0.2591  0.7264
  121MOL    C7729117   6.305   5.756   7.668  0.0300 -0.6379  0.2098
  121MOL    O7829118   6.275   5.680   7.760 -0.2597  0.2611  0.0187
  121MOL    O7929119   6.353   5.714   7.547 -0.2795 -0.0336  0.6332
  121MOL    H8029120   6.165   5.884   0.081  1.7973 -1.7053  0.8977
  121MOL    H8129121   6.177   6.052   0.025 -0.7615  0.2717 -0.1342
  121MOL    H8229122   6.437   5.957   7.500  0.7979  1.8059  0.5566
  121MOL    H8329123   6.501   5.935   7.665  0.4607 -0.2087  0.3343
  121MOL    H8429124   6.416   6.080   7.627 -3.2231  0.7744 -1.8021
  121MOL    H8529125   6.368   5.621   7.549  0.9692  0.1118 -0.8564
  121MOL    C8629126   6.180   5.954   7.555  0.0330  0.3554  0.3630
  121MOL    C8729127   6.024   5.920   7.559  0.2581  0.0062  0.3875
  121MOL    C8829128   5.998   5.782   7.622  0.1393 -0.3658  0.3898
  121MOL    C8929129   5.953   6.029   7.648  0.0507 -0.6794 -0.3602
  121MOL    O9029130   5.900   5.996   7.753 -0.0464  0.1034  0.1625
  121MOL    O9129131   5.964   6.160   7.600  0.5182 -0.0104 -0.1946
  121MOL    H9229132   6.190   6.062   7.540 -0.7506  0.4547  0.5748
  121MOL    H9329133   6.227   5.909   7.467  2.2986 -1.2398  2.3116
  121MOL    H9429134   6.044   5.702   7.563  2.2831  1.3368 -0.3151
  121MOL    H9529135   5.892   5.756   7.626 -0.1084  0.8897  2.6028
  121MOL    H9629136   6.039   5.781   7.723  2.5094 -2.0247 -0.5444
  121MOL    H9729137   5.929   6.214   7.669  1.1829 -1.8283  1.5759
  121MOL    C9829138   5.972   5.930   7.413  0.9330  0.5164  0.9786
  121MOL    C9929139   5.820   5.949   7.371 -0.3045  0.0004 -0.1310
  121MOL   C10029140   5.743   6.082   7.413 -0.4375 -0.3563 -0.6212
  121MOL   C10129141   5.817   5.939   7.219 -0.1215  0.2445  1.1666
  121MOL   O10229142   5.832   5.834   7.158 -0.3246 -0.1533  0.2105
  121MOL   O10329143   5.824   6.058   7.152  0.4005 -0.1648 -0.5131
  121MOL   H10429144   6.025   6.008   7.358  1.0155 -0.7391 -0.7409
  121MOL   H10529145   6.017   5.844   7.363  1.5858  2.1361 -1.3026
  121MOL   H10629146   5.644   6.104   7.374 -0.3455  1.9260  0.3567
  121MOL   H10729147   5.801   6.168   7.383  0.3770 -0.5823  0.2726
  121MOL   H10829148   5.728   6.083   7.521 -1.0424 -1.0427 -0.6896
  121MOL   H10929149   5.851   6.044   7.063  2.0172  2.1588 -0.4185
  121MOL   C11029150   5.728   5.824   7.430 -0.4137  0.1202  0.4906
  121MOL   C11129151   5.582   5.784   7.371 -0.0452 -0.2675  0.6523
  121MOL   C11229152   5.500   5.894   7.301 -0.2025 -1.0864  0.4883
  121MOL   C11329153   5.608   5.664   7.276 -0.0731  0.4140  0.7703
  121MOL   O11429154   5.689   5.572   7.287 -0.4379 -0.3278 -0.4030
  121MOL   O11529155   5.524   5.663   7.170 -0.0199  0.7883  0.0388
  121MOL   H11629156   5.796   5.739   7.427 -1.7483 -0.9352 -1.2761
  121MOL   H11729157   5.709   5.835   7.536  0.0336 -0.9381  0.6891
  121MOL   H11829158   5.408   5.859   7.255 -0.6866  1.5122 -0.5934
  121MOL   H11929159   5.557   5.942   7.222 -1.1208 -3.6236 -1.7922
  121MOL   H12029160   5.468   5.975   7.365  0.7890 -0.3328  0.0523
  121MOL   H12129161   5.555   5.604   7.102  2.3520  2.6666 -0.5762
  121MOL   C12229162   5.485   5.716   7.476  0.1914  0.0555  0.7042
  121MOL   C12329163   5.394   5.795   7.572 -0.0218 -0.3707 -0.2362
  121MOL   C12429164   5.474   5.909   7.644  1.1055 -0.0463  0.8872
  121MOL   C12529165   5.263   5.843   7.501 -0.2688  0.0637  0.0307
  121MOL   O12629166   5.202   5.773   7.424  0.0487  0.2018  0.4662
  121MOL   O12729167   5.228   5.972   7.531 -0.4750 -0.2298 -0.0278
  121MOL   H12829168   5.436   5.626   7.439 -0.2010  1.1020 -1.3674
  121MOL   H12929169   5.559   5.664   7.537  1.2148  1.8401  0.9959
  121MOL   H13029170   5.549   5.866   7.711  0.5955 -0.2042  1.3522
  121MOL   H13129171   5.412   5.975   7.704  1.4202 -0.2459  1.4313
  121MOL   H13229172   5.543   5.951   7.569  0.4203 -1.4364 -0.5485
  121MOL   H13329173   5.160   6.009   7.477 -0.2512 -0.4188 -0.4449
  121MOL   C13429174   5.367   5.688   7.692  0.5685 -0.0878 -0.1575
  121MOL   C13529175   5.245   5.697   0.020 -0.0183 -0.5878  0.0379
  121MOL   C13629176   5.249   5.825   0.100 -0.0025 -0.7342 -0.4001
  121MOL   C13729177   5.105   5.685   7.719  0.3821 -0.4000  0.3336
  121MOL   O13829178   5.019   5.771   7.722  0.1181  0.3617 -0.4320
  121MOL   O13929179   5.100   5.571   7.645 -0.1996  0.5944 -0.2851
  121MOL   H14029180   5.376   5.587   7.652  2.4207 -0.1747  0.4482
  121MOL   H14129181   5.449   5.688   7.764  0.5275 -1.8743 -0.0888
  121MOL   H14229182   5.354   5.843   0.123 -0.6564  1.1722  1.2470
  121MOL   H14329183   5.206   5.821   0.201 -0.4145 -2.7397 -0.6270
  121MOL   H14429184   5.214   5.912   0.044 -1.5928  0.1525  1.8787
  121MOL   H14529185   5.015   5.567   7.603 -1.1849  1.2952  1.5933
  121MOL   C14629186   5.265   5.584   0.128  0.7555  0.1440 -0.1340
  121MOL   C14729187   5.147   5.517   0.217 -0.1591  0.2469  0.5277
  121MOL   C14829188   5.048   5.616   0.276 -0.3687 -0.2951  0.0122
  121MOL   C14929189   5.071   5.409   0.139 -0.1493  0.1565 -0.2303
  121MOL   O15029190   4.951   5.413   0.119 -1.3367 -0.0349 -0.0716
  121MOL   O15129191   5.154   5.313   0.090  0.3004  0.4779 -0.1001
  121MOL   H15229192   5.316   5.500   0.079 -0.9833 -1.2283  0.3414
  121MOL   H15329193   5.350   5.625   0.182  1.1558 -1.3238  0.3721
  121MOL   H15429194   5.097   5.651   0.367 -0.3518 -0.9404  0.2534
  121MOL   H15529195   4.956   5.570   0.313 -0.9647 -0.3334 -1.4425
  121MOL   H15629196   5.012   5.694   0.208  0.3465  0.3074  0.3298
  121MOL   H15729197   5.101   5.248   0.045  2.2771 -0.9917 -0.3747
  121MOL   C15829198   5.235   5.450   0.340 -0.0431  0.3545 -0.2638
  121MOL   C15929199   5.175   5.348   0.447  0.5474 -0.2180  0.2739
  121MOL   C16029200   5.027   5.387   0.481  0.4107 -0.4842  0.2903
  121MOL   C16129201   5.185   5.207   0.385  0.5383  0.7276  0.7404
  121MOL   O16229202   5.286   5.156   0.337 -0.0404 -0.1376  0.0660
  121MOL   O16329203   5.071   5.137   0.378 -0.0854 -0.0089  0.7492
  121MOL   H16429204   5.328   5.408   0.300 -0.0998  0.0636 -0.0914
  121MOL   H16529205   5.276   5.533   0.397  1.9891 -2.0535  1.9298
  121MOL   H16629206   5.024   5.493   0.507 -1.9434  0.1135 -2.2318
  121MOL   H16729207   4.982   5.334   0.566 -0.6915  2.3409  1.5399
  121MOL   H16829208   4.962   5.374   0.394 -1.6454 -1.7569  1.9663
  121MOL   H16929209   5.087   5.051   0.340  4.6174  0.1276  2.1465
  121MOL   C17029210   5.263   5.357   0.578  0.1666  0.5560  0.3174
  121MOL   C17129211   5.260   5.262   0.702  0.3575 -0.1350 -0.0327
  121MOL   C17229212   5.274   5.114   0.661 -0.1369  0.1142  0.1474
  121MOL   C17329213   5.384   5.301   0.787  0.1430  0.7243 -0.2610
  121MOL   O17429214   5.445   5.406   0.771  0.3957  0.2741 -0.0046
  121MOL   O17529215   5.415   5.211   0.882 -0.5740  0.1970 -0.5251
  121MOL   H17629216   5.365   5.349   0.540  1.0142 -0.0256  2.6308
  121MOL   H17729217   5.266   5.458   0.618  1.8409  0.7449 -0.2449
  121MOL   H17829218   5.355   5.087   0.594  0.1368  1.3344 -0.0254
  121MOL   H17929219   5.191   5.065   0.610  0.2612  0.9265 -1.3316
  121MOL   H18029220   5.295   5.045   0.742  0.0850 -0.1677 -0.1514
  121MOL   H18129221   5.500   5.244   0.907 -1.2789  2.2176 -0.7233
  121MOL   C18229222   5.128   5.254   0.788  0.7262 -0.5607 -0.0026
  121MOL   C18329223   5.088   5.356   0.898 -0.1948  0.2796  0.3058
  121MOL   C18429224   4.940   5.323   0.938 -0.3621  0.1261 -0.3533
  121MOL   C18529225   5.166   5.354   1.027 -0.3013  0.1882  0.4537
  121MOL   O18629226   5.278   5.404   1.043  0.4372 -0.5218  0.1372
  121MOL   O18729227   5.109   5.284   1.127  0.4956  0.2636 -0.1073
  121MOL   H18829228   5.046   5.229   0.721  2.1343 -1.3467 -1.4714
  121MOL   H18929229   5.125   5.160   0.842 -2.3519 -1.2608 -1.3328
  121MOL   H19029230   4.923   5.222   0.976 -1.2499 -0.3790 -2.0394
  121MOL   H19129231   4.873   5.332   0.853  1.4015  2.6240 -1.5343
  121MOL   H19229232   4.905   5.391   1.016  0.2037  0.5772 -0.4888
  121MOL   H19329233   5.155   5.293   1.209  0.7128  0.3431 -0.2385
  121MOL   C19429234   5.100   5.505   0.835 -0.2102  0.7073  0.2705
  121MOL   C19529235   5.022   5.630   0.901 -0.1755 -0.6957  0.3814
  121MOL   C19629236   4.868   5.634   0.860  0.2848  0.1617 -0.1923
  121MOL   C19729237   5.022   5.638   1.054  0.1192 -0.0651  0.5013
  121MOL   O19829238   4.918   5.638   1.126 -0.3435 -0.3353  0.1183
  121MOL   O19929239   5.151   5.632   1.102  0.7419 -0.5102  0.2706
  121MOL   H20029240   5.206   5.515   0.811  0.2128 -0.8890  1.3692
  121MOL   H20129241   5.061   5.494   0.734  1.8218 -0.4298 -0.4208
  121MOL   H20229242   4.818   5.540   0.885  1.5137 -0.7676 -1.2265
  121MOL   H20329243   4.856   5.640   0.752  0.6386  0.7760 -0.2007
  121MOL   H20429244   4.813   5.722   0.895 -0.1291 -0.6287  1.2182
  121MOL   H20529245   5.163   5.649   1.194 -1.8169  0.4452  0.4802
  121MOL   C20629246   5.064   5.768   0.832 -0.2461 -0.2915  0.1126
  121MOL   C20729247   5.207   5.820   0.792  0.5367  0.0900  0.3505
  121MOL   C20829248   5.301   5.829   0.918  0.0405 -0.3439 -0.6548
  121MOL   C20929249   5.268   5.731   0.679 -0.0510 -0.1324  0.2153
  121MOL   O21029250   5.207   5.705   0.578  0.3483 -0.2880 -0.2892
  121MOL   O21129251   5.397   5.691   0.701  0.1320  0.3733 -0.0516
  121MOL   H21229252   5.001   5.779   0.743 -3.0019  2.2520  2.3088
  121MOL   H21329253   5.017   5.842   0.896 -0.0689 -0.4372  0.4151
  121MOL   H21429254   5.256   5.892   0.995  0.0000 -2.1789  0.8624
  121MOL   H21529255   5.405   5.856   0.899  0.1484 -1.4534 -1.7221
  121MOL   H21629256   5.304   5.732   0.968 -1.9748 -0.1262 -0.0794
  121MOL   H21729257   5.442   5.701   0.784 -0.5837  0.1993  0.3599
  121MOL   C21829258   5.186   5.961   0.729  0.1392  0.1034  0.3465
  121MOL   C21929259   5.291   6.076   0.686  0.0877  0.3573 -0.2218
  121MOL   C22029260   5.206   6.169   0.600 -0.2460 -0.4530  0.1304
  121MOL   C22129261   5.341   6.154   0.806  0.9573  0.0424  0.1781
  121MOL   O22229262   5.300   6.264   0.834 -0.5076  0.2680 -0.4812
  121MOL   O22329263   5.441   6.091   0.879  0.0192 -0.8626  0.4121
  121MOL   H22429264   5.128   5.931   0.642  0.9889  1.6755 -0.7763
  121MOL   H22529265   5.111   6.011   0.791 -2.7814 -0.7777 -2.3082
  121MOL   H22629266   5.263   6.238   0.537  0.6691 -2.3201 -1.1374
  121MOL   H22729267   5.125   6.223   0.648 -0.6329  0.3169 -1.3713
  121MOL   H22829268   5.163   6.110   0.519 -1.3099 -0.5704  0.7779
  121MOL   H22929269   5.473   6.138   0.954 -0.5555  1.6787 -0.8915
  121MOL   C23029270   5.414   6.010   0.610  1.0371 -0.0242  0.1005
  121MOL   C23129271   5.499   6.111   0.520  0.5635 -0.6595  0.1258
  121MOL   C23229272   5.649   6.105   0.551 -0.2197  0.0038 -0.7500
  121MOL   C23329273   5.468   6.113   0.368 -0.9909 -0.3715 -0.2899
  121MOL   O23429274   5.544   6.163   0.282  0.6304  0.1993 -0.5342
  121MOL   O23529275   5.348   6.062   0.348 -0.2243 -0.0812  0.3267
  121MOL   H23629276   5.470   5.953   0.683  0.7890 -0.9634 -0.4287
  121MOL   H23729277   5.377   5.933   0.542  0.5671 -0.1147  0.4556
  121MOL   H23829278   5.708   6.188   0.512 -0.9127  1.4955  1.2429
  121MOL   H23929279   5.696   6.012   0.522  1.3774  0.8357 -0.9024
  121MOL   H24029280   5.647   6.102   0.660  0.2060  0.9486 -0.7124
  121MOL   H24129281   5.316   6.097   0.266  0.6034  0.4891  0.2456
  121MOL   H24229282   5.480   6.215   0.548  2.9200 -0.0958 -0.3236
  122MOL     C129283   0.581   2.264   2.436  0.1261 -0.3327  0.9870
  122MOL     C229284   0.449   2.319   2.469  0.0119  0.2080  0.4256
  122MOL     C329285   0.371   2.210   2.552 -0.2457 -0.4328  0.1574
  122MOL     C429286   0.468   2.449   2.553  0.7247 -0.3263 -0.6698
  122MOL     O529287   0.425   2.464   2.671  0.0027 -0.3924 -0.2556
  122MOL     O629288   0.534   2.545   2.483  0.4319 -0.0837 -0.1402
  122MOL     H729289   0.575   2.164   2.394  2.1055 -0.4649  1.0016
  122MOL     H829290   0.650   2.266   2.520  0.5204  1.5245  0.6605
  122MOL     H929291   0.413   2.208   2.653 -2.3296 -1.5545  1.0544
  122MOL    H1029292   0.383   2.113   2.504 -1.4052  0.3330 -1.6970
  122MOL    H1129293   0.267   2.234   2.572  0.3900  0.9700  1.8729
  122MOL    H1229294   0.534   2.626   2.533 -0.9737  0.2074 -0.5881
  122MOL    H1329295   0.645   2.317   2.365  0.6010 -2.8279 -0.4988
  122MOL    C1429296   0.374   2.334   2.331  0.5519  0.1914  1.1745
  122MOL    C1529297   0.253   2.430   2.304  0.4072  0.6168 -0.5904
  122MOL    C1629298   0.142   2.423   2.420 -0.8325 -0.0080  0.3945
  122MOL    C1729299   0.303   2.580   2.300  0.1858 -0.6047  0.7464
  122MOL    O1829300   0.257   2.673   2.367  0.4289 -0.5351  0.2594
  122MOL    O1929301   0.411   2.593   2.221 -0.4486  0.1466  0.2197
  122MOL    H2029302   0.453   2.370   2.265 -1.3496  3.2719  0.5055
  122MOL    H2129303   0.353   2.233   2.294 -0.9649  0.5428  1.0678
  122MOL    H2229304   0.095   2.326   2.436  0.2063 -0.4160  1.0405
  122MOL    H2329305   0.063   2.498   2.410 -0.2884  0.5890  0.5126
  122MOL    H2429306   0.191   2.434   2.517  0.1864 -0.2047 -0.0932
  122MOL    H2529307   0.474   2.660   2.242  0.9679 -1.2957  0.6614
  122MOL    C2629308   0.170   2.393   2.174 -0.6544  0.2010 -0.3103
  122MOL    C2729309   0.229   2.369   2.027  0.4782 -0.5578  0.5026
  122MOL    C2829310   0.103   2.339   1.935 -0.0774 -0.2171 -0.6636
  122MOL    C2929311   0.310   2.486   1.974  0.1103 -0.2935  0.6237
  122MOL    O3029312   0.429   2.489   1.965 -0.1357  0.7260  0.1841
  122MOL    O3129313   0.229   2.587   1.934 -0.4570 -0.1610 -0.1414
  122MOL    H3229314   0.119   2.301   2.203 -1.5856  0.7308 -0.2670
  122MOL    H3329315   0.083   2.457   2.165 -0.9511 -0.0670  0.5859
  122MOL    H3429316   0.025   2.415   1.942  0.2134  0.0429 -0.2457
  122MOL    H3529317   0.064   2.243   1.968 -0.0108  1.0467  3.3019
  122MOL    H3629318   0.125   2.323   1.829  2.3609 -0.9712 -0.0844
  122MOL    H3729319   0.282   2.640   1.876 -1.8415 -0.8967 -2.1534
  122MOL    C3829320   0.318   2.238   2.029  0.4708 -0.4668 -0.2948
  122MOL    C3929321   0.365   2.152   1.901 -0.3302 -0.4836 -0.5969
  122MOL    C4029322   0.411   2.236   1.777 -0.3826 -0.4644  0.0557
  122MOL    C4129323   0.502   2.081   1.944  0.7665  0.1894  0.3218
  122MOL    O4229324   0.573   2.121   2.036  0.2638  0.0758  0.1132
  122MOL    O4329325   0.539   1.988   1.849 -0.1934 -0.3329  0.1421
  122MOL    H4429326   0.410   2.263   2.082 -0.9156 -0.4269  2.1402
  122MOL    H4529327   0.268   2.183   2.108 -1.0498  1.5667  0.2225
  122MOL    H4629328   0.341   2.306   1.733  3.3037  2.2077 -1.8039
  122MOL    H4729329   0.448   2.166   1.702 -2.4397 -0.7414 -0.7438
  122MOL    H4829330   0.494   2.301   1.805 -0.0154 -0.0647 -1.9117
  122MOL    H4929331   0.624   1.957   1.874 -0.1291  0.7200  1.2485
  122MOL    C5029332   0.264   2.053   1.856  0.2281 -0.3030 -0.1954
  122MOL    C5129333   0.203   1.938   1.935 -0.0516  0.8941 -0.0150
  122MOL    C5229334   0.296   1.888   2.046  0.6412  0.3927 -0.1610
  122MOL    C5329335   0.063   1.981   1.990 -1.1657  0.0165 -0.2889
  122MOL    O5429336   7.741   2.027   1.914  0.2581  0.4007  0.1471
  122MOL    O5529337   0.049   1.966   2.123  0.0230 -0.6295  0.4783
  122MOL    H5629338   0.186   2.113   1.809  0.0777  0.1604  0.6413
  122MOL    H5729339   0.313   2.005   1.771  0.8775 -0.3424  0.1996
  122MOL    H5829340   0.374   1.826   2.001  0.3795 -0.3996  0.4711
  122MOL    H5929341   0.250   1.821   2.118 -0.7559  0.1133 -1.3003
  122MOL    H6029342   0.344   1.965   2.106  1.0815  1.9190 -2.4093
  122MOL    H6129343   7.723   1.974   2.140  0.2312  1.4361  0.7384
  122MOL    C6229344   0.188   1.816   1.826 -0.1372  0.3632  0.2934
  122MOL    C6329345   0.121   1.679   1.861 -0.0039  0.2954 -0.9759
  122MOL    C6429346   0.171   1.606   1.986  0.4025  0.1133  0.3108
  122MOL    C6529347   7.729   1.695   1.871 -0.6731  0.9739  0.4836
  122MOL    O6629348   7.658   1.713   1.772 -0.3148 -0.0845 -0.5534
  122MOL    O6729349   7.678   1.694   1.997  0.4082  0.1651  0.8037
  122MOL    H6829350   0.123   1.857   1.749 -0.2777  0.6681  0.5713
  122MOL    H6929351   0.287   1.803   1.783 -0.1042  0.4300  0.3493
  122MOL    H7029352   0.280   1.602   1.986  0.3878 -0.6169 -1.7953
  122MOL    H7129353   0.120   1.511   2.003 -2.7974  1.5515 -1.0144
  122MOL    H7229354   0.127   1.647   2.077  1.0027 -0.4984  0.8900
  122MOL    H7329355   7.584   1.699   2.001  0.4921  3.5514 -0.0060
  122MOL    C7429356   0.134   1.589   1.730  0.8261 -0.3237  0.1287
  122MOL    C7529357   0.250   1.490   1.701 -0.2480  0.1590 -0.2507
  122MOL    C7629358   0.389   1.564   1.724 -0.4492 -0.0094  0.1453
  122MOL    C7729359   0.252   1.363   1.787  0.3143  0.3906 -0.1524
  122MOL    O7829360   0.150   1.327   1.847 -0.0174  0.0040 -0.8818
  122MOL    O7929361   0.364   1.287   1.781  0.4025 -0.3893 -0.3018
  122MOL    H8029362   0.051   1.519   1.738 -0.1919  0.8059 -0.5047
  122MOL    H8129363   0.119   1.658   1.647  1.7145  0.1300  0.3312
  122MOL    H8229364   0.396   1.644   1.651  1.1363  0.1169  0.4158
  122MOL    H8329365   0.470   1.492   1.709 -0.8547 -0.6449  0.9244
  122MOL    H8429366   0.403   1.606   1.824 -3.0764 -1.3401  1.1378
  122MOL    H8529367   0.355   1.211   1.837 -1.3883  0.6125  0.8325
  122MOL    C8629368   0.245   1.448   1.549 -0.2194 -0.2014  0.0009
  122MOL    C8729369   0.106   1.387   1.488  0.5201 -0.9079  0.3093
  122MOL    C8829370   0.039   1.274   1.565  0.2267  0.4096 -0.3218
  122MOL    C8929371   0.003   1.501   1.470 -0.2266 -0.4194 -0.2431
  122MOL    O9029372   7.667   1.513   1.527 -0.1449  0.1907  0.0423
  122MOL    O9129373   0.044   1.598   1.393 -0.8429  0.1860  0.6357
  122MOL    H9229374   0.290   1.531   1.495 -1.7761  1.9500  1.9410
  122MOL    H9329375   0.313   1.365   1.528  0.4993  0.4102 -0.1413
  122MOL    H9429376   7.763   1.317   1.656  2.3971  2.2878 -0.1328
  122MOL    H9529377   0.105   1.199   1.607  0.6305  0.5274 -0.7475
  122MOL    H9629378   7.713   1.238   1.521 -1.7445  2.4003  2.0484
  122MOL    H9729379   7.744   1.665   1.391 -1.0576 -0.0713 -2.0766
  122MOL    C9829380   0.138   1.345   1.333 -0.0814  0.5943 -0.4819
  122MOL    C9929381   0.165   1.197   1.283  0.0250 -0.0684 -0.4147
  122MOL   C10029382   0.029   1.125   1.285 -0.0955  0.5075  0.3226
  122MOL   C10129383   0.213   1.222   1.135 -0.1896 -0.3102 -0.3708
  122MOL   O10229384   0.331   1.228   1.106  0.1946 -0.2594 -0.2604
  122MOL   O10329385   0.110   1.246   1.045 -0.1281 -0.2268  0.7768
  122MOL   H10429386   0.049   1.381   1.283  0.0123  2.9931  0.9935
  122MOL   H10529387   0.213   1.414   1.295 -1.7872  2.4292 -0.5509
  122MOL   H10629388   7.713   1.192   1.266 -0.0723 -0.2839 -2.7743
  122MOL   H10729389   0.003   1.076   1.379 -0.5239 -0.5115 -0.3138
  122MOL   H10829390   0.008   1.050   1.208 -0.9102  0.7785  0.2812
  122MOL   H10929391   0.156   1.277   0.968 -0.8598  0.4590  0.6101
  122MOL   C11029392   0.278   1.134   1.362  0.3524 -0.4375 -0.3199
  122MOL   C11129393   0.326   0.981   1.353  0.2489 -0.2858 -0.2381
  122MOL   C11229394   0.302   0.914   1.215 -0.0201 -0.6994 -1.0535
  122MOL   C11329395   0.480   0.997   1.362 -0.4697  0.4946 -0.1486
  122MOL   O11429396   0.545   0.957   1.455 -0.3851  0.3746 -0.0894
  122MOL   O11529397   0.528   1.064   1.253 -0.5676 -0.0481 -0.0394
  122MOL   H11629398   0.357   1.208   1.351 -0.7865  0.8388  0.0212
  122MOL   H11729399   0.261   1.147   1.469 -0.9443  1.2265 -0.7122
  122MOL   H11829400   0.346   0.814   1.207 -0.6646 -1.0113 -0.7966
  122MOL   H11929401   0.342   0.971   1.132  0.0242 -2.2276 -2.1083
  122MOL   H12029402   0.194   0.898   1.208 -0.3641  0.1348  1.6503
  122MOL   H12129403   0.458   1.108   1.206  0.0665 -0.1252 -1.0684
  122MOL   C12229404   0.272   0.893   1.473 -0.5785  0.2133 -0.6374
  122MOL   C12329405   0.259   0.740   1.476 -0.0129  0.7795  0.3653
  122MOL   C12429406   0.147   0.689   1.378  0.2029  0.8802  0.6657
  122MOL   C12529407   0.378   0.648   1.444  0.4293 -0.1059 -0.3973
  122MOL   O12629408   0.486   0.679   1.396 -0.7111  0.0027 -0.0539
  122MOL   O12729409   0.359   0.524   1.495 -0.2099  0.0822  0.1870
  122MOL   H12829410   0.324   0.931   1.560  0.1083  2.5035 -1.9900
  122MOL   H12929411   0.169   0.925   1.486  0.3951  1.8823  3.8252
  122MOL   H13029412   0.058   0.752   1.377 -1.3989 -1.3187 -0.9361
  122MOL   H13129413   0.107   0.591   1.405  0.0642  1.2134  1.7306
  122MOL   H13229414   0.184   0.690   1.276 -0.7813 -1.0649  0.2644
  122MOL   H13329415   0.270   0.513   1.525 -1.9759  1.7329 -3.9357
  122MOL   C13429416   0.197   0.708   1.621  1.0016  0.0506  0.2991
  122MOL   C13529417   0.267   0.727   1.765 -0.0502 -0.3316  0.0230
  122MOL   C13629418   0.420   0.750   1.744  0.5997 -0.8173  0.3304
  122MOL   C13729419   0.224   0.853   1.831  0.1673 -0.4356  0.2054
  122MOL   O13829420   0.128   0.919   1.793  0.1044 -0.3827  0.0431
  122MOL   O13929421   0.298   0.895   1.938  0.1551 -0.3143  0.1746
  122MOL   H14029422   0.098   0.753   1.613  2.1289  2.3969 -1.0967
  122MOL   H14129423   0.182   0.600   1.614 -0.6717  0.2934  0.0304
  122MOL   H14229424   0.462   0.664   1.693 -1.9703 -1.2066 -1.2403
  122MOL   H14329425   0.471   0.768   1.838  0.9163 -0.3384  0.0718
  122MOL   H14429426   0.435   0.836   1.678 -1.5978 -0.8072 -0.1843
  122MOL   H14529427   0.261   0.967   1.987 -0.4554  1.2649 -2.5199
  122MOL   C14629428   0.250   0.597   1.857  0.0037  0.5758  0.2767
  122MOL   C14729429   0.130   0.571   1.952  1.0883  0.1123  0.0775
  122MOL   C14829430   0.160   0.636   2.092  0.5122  1.0235 -0.0854
  122MOL   C14929431   0.002   0.625   1.880 -0.3962  0.0059  0.1664
  122MOL   O15029432   7.728   0.600   1.764  0.5839  0.1809  0.1356
  122MOL   O15129433   7.696   0.684   1.973  0.5105  0.1363 -0.1143
  122MOL   H15229434   0.269   0.510   1.794 -2.1064  1.4248 -1.5681
  122MOL   H15329435   0.330   0.597   1.932  1.3169 -1.8924 -1.0638
  122MOL   H15429436   0.100   0.600   2.175 -1.4870 -0.2556 -2.0298
  122MOL   H15529437   0.155   0.745   2.092  2.4639  1.1178 -0.8473
  122MOL   H15629438   0.263   0.614   2.119 -1.0933 -2.6605  3.5179
  122MOL   H15729439   7.627   0.725   1.922  0.5484 -0.4296 -0.6218
  122MOL   C15829440   0.125   0.415   1.972  0.1558  0.2345 -0.3577
  122MOL   C15929441   0.055   0.335   2.095  0.4671  0.2439 -0.2486
  122MOL   C16029442   0.146   0.332   2.210 -0.1237 -0.1849 -0.2808
  122MOL   C16129443   7.682   0.405   2.123  0.4175  0.7787 -1.1404
  122MOL   O16229444   7.648   0.439   2.236  0.0293  0.4324 -0.1397
  122MOL   O16329445   7.600   0.405   2.014 -0.2897  0.2486  0.0522
  122MOL   H16429446   0.067   0.386   1.884  1.7956 -0.6470 -1.1735
  122MOL   H16529447   0.223   0.374   1.950 -0.5811 -0.8880 -1.6271
  122MOL   H16629448   0.230   0.270   2.178 -0.8742 -1.1892 -0.2935
  122MOL   H16729449   0.099   0.304   2.304  2.7732  2.2803  2.0043
  122MOL   H16829450   0.196   0.428   2.225 -0.2256 -0.4372  1.7559
  122MOL   H16929451   7.517   0.423   2.057  0.2799 -0.6789  1.5982
  122MOL   C17029452   0.035   0.186   2.048 -0.0548  0.1719 -0.8863
  122MOL   C17129453   7.741   0.068   2.141  0.3101  0.0779  0.5682
  122MOL   C17229454   7.607   0.108   2.205  0.0489 -0.5258  0.8068
  122MOL   C17329455   7.722   7.713   2.034  0.4072 -0.5525  0.0564
  122MOL   O17429456   7.626   7.638   2.033  0.1741 -0.0046  0.6091
  122MOL   O17529457   0.054   7.710   1.932 -0.0956  0.0204 -0.0514
  122MOL   H17629458   7.735   0.182   1.963 -1.5967 -1.4155  0.3578
  122MOL   H17729459   0.129   0.138   2.020  0.6718 -0.2956  2.1403
  122MOL   H17829460   7.541   0.167   2.141  0.7292  0.4279  0.9683
  122MOL   H17929461   7.634   0.169   2.292  1.4446 -1.4827  1.0528
  122MOL   H18029462   7.553   0.026   2.254 -0.2378 -0.7464  0.1204
  122MOL   H18129463   0.031   7.639   1.874 -0.8698  1.1062 -1.1082
  122MOL   C18229464   0.083   0.030   2.243  0.9178  0.8551  0.1528
  122MOL   C18329465   0.103   7.651   2.300 -0.0357  0.1737  0.4489
  122MOL   C18429466   7.733   7.587   2.328  0.3899 -0.3296 -0.2430
  122MOL   C18529467   0.187   7.559   2.209  0.6637 -0.1234 -0.4095
  122MOL   O18629468   0.261   7.602   2.122 -0.0837  0.0125 -0.4924
  122MOL   O18729469   0.160   7.422   2.218 -0.0494 -0.3894  0.0110
  122MOL   H18829470   0.179   0.061   2.202  2.2976 -0.5847  2.2107
  122MOL   H18929471   0.064   0.099   2.326 -3.8967  1.1773 -1.0569
  122MOL   H19029472   7.695   7.524   2.248  1.1881 -1.4093  0.2229
  122MOL   H19129473   7.650   7.651   2.356 -1.9783 -4.5227  2.7927
  122MOL   H19229474   7.742   7.511   2.405 -1.0104  0.8918  1.1689
  122MOL   H19329475   0.202   7.368   2.152  0.2979  0.1661 -0.2347
  122MOL   C19429476   0.179   7.652   2.445  0.0510  0.1259 -0.3331
  122MOL   C19529477   0.328   7.713   2.485  0.2039 -0.0795 -0.1727
  122MOL   C19629478   0.341   7.695   2.639  0.4539  1.0021  0.4679
  122MOL   C19729479   0.430   7.617   2.412  0.2689  0.4662  0.7750
  122MOL   O19829480   0.491   7.649   2.314 -0.4374 -0.3451  0.2507
  122MOL   O19929481   0.455   7.496   2.471 -0.2916 -0.1098  0.0711
  122MOL   H20029482   0.109   7.714   2.502 -0.5518 -1.3165  0.5349
  122MOL   H20129483   0.157   7.558   2.496  1.0513  0.1831  0.2221
  122MOL   H20229484   0.271   7.759   2.692 -1.2954 -0.4978  0.0460
  122MOL   H20329485   0.442   7.699   2.680  0.2841  0.3027  0.9781
  122MOL   H20429486   0.300   7.599   2.672 -1.4818  1.7138  0.2104
  122MOL   H20529487   0.534   7.458   2.437 -0.3466  0.5354 -0.7761
  122MOL   C20629488   0.345   0.088   2.435  0.1627  0.0510  0.7059
  122MOL   C20729489   0.447   0.193   2.504 -0.5882 -0.0417  0.4228
  122MOL   C20829490   0.395   0.239   2.641 -0.5619 -0.3346 -0.0159
  122MOL   C20929491   0.589   0.124   2.520 -0.2998 -0.0763  0.7568
  122MOL   O21029492   0.647   0.085   2.423  0.0067 -0.3304 -0.3914
  122MOL   O21129493   0.643   0.147   2.640 -0.1508 -0.2912  0.5959
  122MOL   H21229494   0.368   0.081   2.329 -1.5808 -0.6885  0.3648
  122MOL   H21329495   0.246   0.130   2.450 -0.3138 -0.6742 -0.3785
  122MOL   H21429496   0.290   0.270   2.640  0.3704  2.9099 -1.0457
  122MOL   H21529497   0.439   0.333   2.671 -1.7732  0.3304 -0.2874
  122MOL   H21629498   0.423   0.170   2.720 -0.3697  0.7449  0.8666
  122MOL   H21729499   0.732   0.120   2.622 -0.4082 -0.7913  0.0481
  122MOL   C21829500   0.456   0.308   2.398  0.1264 -0.2150 -0.2356
  122MOL   C21929501   0.531   0.442   2.425  0.6405 -0.3984  0.1395
  122MOL   C22029502   0.424   0.546   2.483 -0.2389  0.1564  0.2386
  122MOL   C22129503   0.656   0.438   2.515  0.3715 -0.3104 -0.3751
  122MOL   O22229504   0.661   0.483   2.627 -0.2479 -0.2868 -0.1000
  122MOL   O22329505   0.763   0.378   2.455  0.9743 -0.2786  0.2765
  122MOL   H22429506   0.517   0.262   2.320 -1.0702 -0.6494 -0.9201
  122MOL   H22529507   0.364   0.329   2.344  1.9153 -1.6220 -4.0101
  122MOL   H22629508   0.473   0.639   2.509  0.9247 -0.9034  1.9339
  122MOL   H22729509   0.389   0.514   2.582  0.1912 -1.1940 -0.0352
  122MOL   H22829510   0.337   0.571   2.421 -0.8124 -2.5758 -0.1111
  122MOL   H22929511   0.830   0.374   2.521 -1.4441 -0.9992  2.8025
  122MOL   C23029512   0.568   0.497   2.283 -0.0961 -0.2554 -0.2222
  122MOL   C23129513   0.632   0.628   2.260 -0.4351 -0.3220 -0.5283
  122MOL   C23229514   0.784   0.626   2.273  0.6340 -1.0681  0.6564
  122MOL   C23329515   0.595   0.670   2.111 -0.4495 -0.0976  0.5043
  122MOL   O23429516   0.658   0.632   2.015 -0.1828 -0.5257 -0.2544
  122MOL   O23529517   0.490   0.748   2.111  0.8563  0.8393 -0.7630
  122MOL   H23629518   0.641   0.429   2.238  0.2866 -0.1002  0.1680
  122MOL   H23729519   0.491   0.476   2.208 -0.1210  1.1236 -0.5846
  122MOL   H23829520   0.825   0.552   2.205  0.0669  1.2384 -2.2876
  122MOL   H23929521   0.820   0.607   2.374 -0.4448 -1.7568  0.9145
  122MOL   H24029522   0.826   0.724   2.251 -0.1173 -0.9139 -0.1084
  122MOL   H24129523   0.468   0.772   2.022 -0.3562  0.2121 -0.6400
  122MOL   H24229524   0.586   0.697   2.331  0.9820  2.6169 -2.3783
  123MOL     C129525   4.026   5.877   7.115 -0.0921  0.7871  0.0020
  123MOL     C229526   4.180   5.896   7.147 -0.3154  0.5907 -0.0096
  123MOL     C329527   4.193   6.002   7.256  1.0447 -0.4224 -0.2784
  123MOL     C429528   4.242   5.766   7.204 -0.2401 -0.0641  0.1702
  123MOL     O529529   4.354   5.765   7.261 -0.7600 -0.4685 -0.0747
  123MOL     O629530   4.162   5.651   7.194  0.8185  0.0555  0.6472
  123MOL     H729531   3.977   5.838   7.204 -1.5250  3.4780  0.4491
  123MOL     H829532   4.008   5.806   7.035 -0.4680  0.1812  0.6149
  123MOL     H929533   4.293   6.045   7.268  1.4567 -1.1950 -0.8692
  123MOL    H1029534   4.154   5.950   7.344 -0.8250  2.1245  0.4436
  123MOL    H1129535   4.137   6.093   7.234 -0.1934 -1.3250 -0.8703
  123MOL    H1229536   4.214   5.585   7.236 -0.5115 -2.8156 -2.0423
  123MOL    H1329537   3.975   5.970   7.088  0.4460  0.8168 -0.9373
  123MOL    C1429538   4.280   5.946   7.039 -0.0496  0.0477 -0.3474
  123MOL    C1529539   4.289   5.884   6.889  0.1149 -0.3557 -0.2631
  123MOL    C1629540   4.291   5.732   6.899 -0.0547 -0.3865 -0.0879
  123MOL    C1729541   4.160   5.914   6.811 -0.2753  0.0172 -0.6050
  123MOL    O1829542   4.071   5.830   6.792 -0.1007 -0.4109 -0.1344
  123MOL    O1929543   4.138   6.045   6.792  0.4866 -0.2653 -0.2511
  123MOL    H2029544   4.251   6.051   7.030  0.4881  0.0964 -1.6196
  123MOL    H2129545   4.382   5.947   7.078  0.1407 -0.6847 -0.8240
  123MOL    H2229546   4.209   5.690   6.958  0.0015  3.4748  2.9249
  123MOL    H2329547   4.380   5.698   6.951  0.4055 -0.4683 -0.9173
  123MOL    H2429548   4.282   5.677   6.805  1.7595 -2.3252  0.8424
  123MOL    H2529549   4.054   6.065   6.753 -0.0018 -2.6135 -0.4785
  123MOL    C2629550   4.423   5.939   6.815 -0.8408  0.4105 -0.0200
  123MOL    C2729551   4.491   5.865   6.684  0.3072 -0.5475 -0.1076
  123MOL    C2829552   4.561   5.727   6.722 -0.7355  0.2376 -0.7224
  123MOL    C2929553   4.383   5.822   6.578  1.1084 -0.0161 -0.3484
  123MOL    O3029554   4.378   5.711   6.524 -0.0579 -0.1061  0.6227
  123MOL    O3129555   4.292   5.921   6.545  0.3281  0.3361 -0.8584
  123MOL    H3229556   4.417   6.046   6.796 -3.2860  0.3907  0.5001
  123MOL    H3329557   4.511   5.933   6.879 -1.0707  0.6847  0.3243
  123MOL    H3429558   4.649   5.703   6.663  0.7512 -0.0465  1.5485
  123MOL    H3529559   4.491   5.644   6.732  0.0852 -0.6676 -2.3163
  123MOL    H3629560   4.598   5.738   6.824 -1.8347  0.4265 -0.3352
  123MOL    H3729561   4.243   5.876   6.478 -0.8936  1.7858 -0.9645
  123MOL    C3829562   4.585   5.964   6.610  0.0683  0.1229  0.0236
  123MOL    C3929563   4.729   5.996   6.658  0.0251 -0.3391 -0.0802
  123MOL    C4029564   4.825   5.889   6.601  0.2219  0.1098  0.4522
  123MOL    C4129565   4.755   6.130   6.583 -0.2166  0.7671 -0.1566
  123MOL    O4229566   4.824   6.138   6.485 -0.6787 -0.2178 -0.1468
  123MOL    O4329567   4.676   6.228   6.628 -0.0119  0.1256  0.1696
  123MOL    H4429568   4.582   5.936   6.505  1.4256 -3.4055  0.8285
  123MOL    H4529569   4.524   6.053   6.600  1.8193  1.2558 -0.8341
  123MOL    H4629570   4.840   5.813   6.677  1.2535  0.3975  0.5398
  123MOL    H4729571   4.922   5.938   6.591 -1.1767  2.6240 -1.6055
  123MOL    H4829572   4.781   5.838   6.515  2.5903  0.0713 -0.7692
  123MOL    H4929573   4.676   6.298   6.564 -2.3378  1.0143  1.0803
  123MOL    C5029574   4.754   6.011   6.817 -0.0164 -0.2228 -0.2953
  123MOL    C5129575   4.896   6.059   6.872 -0.4510 -0.0202 -0.6751
  123MOL    C5229576   5.019   5.986   6.811  0.0337 -0.1437  0.2208
  123MOL    C5329577   4.913   6.209   6.841  0.5991  0.5514 -0.1662
  123MOL    O5429578   5.002   6.253   6.770  0.2505 -0.2334  0.0612
  123MOL    O5529579   4.821   6.284   6.901  0.0642  0.7947  0.3212
  123MOL    H5629580   4.675   6.072   6.862 -0.2183 -0.8151  0.1673
  123MOL    H5729581   4.745   5.908   6.852 -0.9137  1.0376  3.3818
  123MOL    H5829582   5.096   5.950   6.879  0.4417 -0.8391 -0.5945
  123MOL    H5929583   5.065   6.024   6.720 -0.4407 -0.0698  0.0087
  123MOL    H6029584   4.996   5.883   6.782  0.7305  0.1319 -1.3710
  123MOL    H6129585   4.829   6.369   6.861  1.1822  0.0292 -1.1480
  123MOL    C6229586   4.914   6.039   7.023 -0.0804 -0.0610 -0.1147
  123MOL    C6329587   5.023   6.113   7.120  0.2580 -0.4920  0.4782
  123MOL    C6429588   4.941   6.236   7.180  0.8959 -0.0460 -0.2461
  123MOL    C6529589   5.052   6.015   7.230 -0.2971  0.4223  1.5404
  123MOL    O6629590   5.042   6.036   7.347  0.1934 -0.0436  0.2562
  123MOL    O6729591   5.093   5.894   7.183  0.2823 -0.4098 -0.2932
  123MOL    H6829592   4.811   6.040   7.057 -0.8473 -1.6278 -2.3115
  123MOL    H6929593   4.919   5.931   7.036  2.3812 -0.0238 -0.3678
  123MOL    H7029594   4.995   6.293   7.256  2.4554 -0.9352 -0.6531
  123MOL    H7129595   4.840   6.208   7.210  0.9434 -0.8327 -0.8097
  123MOL    H7229596   4.921   6.308   7.101  0.4066  0.6442  0.4971
  123MOL    H7329597   5.105   5.832   7.253  1.8523 -0.0544 -0.2432
  123MOL    C7429598   5.157   6.155   7.055 -0.1750 -0.2129 -0.3448
  123MOL    C7529599   5.242   6.282   7.090 -0.2018  0.0353 -0.4154
  123MOL    C7629600   5.163   6.407   7.041 -0.4904  0.0061 -0.3842
  123MOL    C7729601   5.276   6.288   7.244  0.1211  0.1747 -0.1903
  123MOL    O7829602   5.318   6.192   7.302 -0.3051 -0.1628  0.4546
  123MOL    O7929603   5.245   6.402   7.301  0.3243 -0.2419 -0.8158
  123MOL    H8029604   5.230   6.075   7.066  0.2487  0.2801  0.4904
  123MOL    H8129605   5.151   6.149   6.946 -1.4391  0.6657 -0.3330
  123MOL    H8229606   5.089   6.377   6.967 -0.7118 -0.2059 -0.0792
  123MOL    H8329607   5.232   6.479   6.997 -0.5082  1.1980  1.4913
  123MOL    H8429608   5.100   6.459   7.112  2.0176  1.7678  0.6124
  123MOL    H8529609   5.270   6.391   7.392  0.3799 -1.8540 -0.9961
  123MOL    C8629610   5.375   6.281   7.005 -0.4794  0.0628 -1.0425
  123MOL    C8729611   5.510   6.354   7.041 -0.2281  0.4168  0.5827
  123MOL    C8829612   5.581   6.269   7.157  0.5396  0.6536  0.8931
  123MOL    C8929613   5.606   6.331   6.914 -0.2456  0.0822 -0.3568
  123MOL    O9029614   5.698   6.243   6.911  0.0169  0.2414  0.2526
  123MOL    O9129615   5.582   6.423   6.817 -0.3417  0.3128  0.2647
  123MOL    H9229616   5.409   6.179   6.983  0.0672  0.3087 -1.3488
  123MOL    H9329617   5.343   6.311   6.905 -0.9513  2.2842 -0.2491
  123MOL    H9429618   5.568   6.316   7.255  0.5828  1.4933  0.5013
  123MOL    H9529619   5.689   6.267   7.147  0.8386  0.4443  3.7443
  123MOL    H9629620   5.545   6.166   7.162 -0.3209  0.8258 -1.2675
  123MOL    H9729621   5.647   6.401   6.752 -0.6608  3.8853 -1.3796
  123MOL    C9829622   5.489   6.512   7.067 -0.2429 -0.9729  0.0151
  123MOL    C9929623   5.604   6.607   7.123  0.2358  0.4401 -0.0585
  123MOL   C10029624   5.587   6.603   7.278  0.1912 -0.9967 -0.2994
  123MOL   C10129625   5.752   6.563   7.083  0.0328 -0.0734  0.9842
  123MOL   O10229626   5.828   6.515   7.166 -0.5082 -0.8453  0.0950
  123MOL   O10329627   5.799   6.592   6.953  0.7202 -0.4966 -0.1523
  123MOL   H10429628   5.464   6.551   6.968 -1.7252 -0.1341  0.6939
  123MOL   H10529629   5.394   6.526   7.120 -1.3449 -1.6960 -1.7056
  123MOL   H10629630   5.488   6.630   7.313  1.3838  2.2669  0.8067
  123MOL   H10729631   5.661   6.675   7.314 -1.0267  0.5019 -0.7654
  123MOL   H10829632   5.617   6.513   7.331  2.7856  0.3463  0.5918
  123MOL   H10929633   5.886   6.560   6.937  0.5604 -1.0802  0.1246
  123MOL   C11029634   5.577   6.747   7.056  0.2757  0.0344  0.0596
  123MOL   C11129635   5.628   6.887   7.112 -0.0878 -0.0923  0.3043
  123MOL   C11229636   5.540   6.928   7.237 -0.3183  0.3754  0.4352
  123MOL   C11329637   5.777   6.877   7.158 -0.6608 -0.1510  0.2423
  123MOL   O11429638   5.871   6.850   7.082  0.0007  0.3374  0.2331
  123MOL   O11529639   5.797   6.925   7.282  0.3304 -0.1731  0.3443
  123MOL   H11629640   5.616   6.739   6.954  1.1807  0.7612  0.3405
  123MOL   H11729641   5.469   6.759   7.057  0.0166 -2.1206 -0.4250
  123MOL   H11829642   5.538   6.858   7.321 -0.8397  3.1768  2.8410
  123MOL   H11929643   5.434   6.942   7.216 -0.1806  0.7811 -0.0111
  123MOL   H12029644   5.566   7.021   7.287 -0.2532  1.6363 -1.9007
  123MOL   H12129645   5.882   6.918   7.323  0.5447  1.5256  0.1962
  123MOL   C12229646   5.625   6.987   6.988  0.2891  0.7907 -0.5031
  123MOL   C12329647   5.546   7.122   6.987 -0.1324  0.5021  0.6642
  123MOL   C12429648   5.564   7.179   6.842  0.3052 -0.1447  0.0421
  123MOL   C12529649   5.397   7.081   6.999 -0.4061  0.5591 -0.2713
  123MOL   O12629650   5.350   6.986   6.939  0.5530  1.1560 -0.1225
  123MOL   O12729651   5.323   7.152   7.084 -0.5756  0.1888  0.2732
  123MOL   H12829652   5.724   7.003   6.946  1.2083  0.2078  1.4045
  123MOL   H12929653   5.583   6.927   6.907 -0.2005  1.1820 -0.5418
  123MOL   H13029654   5.540   7.107   6.764 -0.1858  1.2740 -1.1375
  123MOL   H13129655   5.665   7.213   6.819  0.3528  1.1090  1.9149
  123MOL   H13229656   5.494   7.262   6.847 -0.6593 -0.9625  0.1615
  123MOL   H13329657   5.235   7.116   7.084 -0.7935  0.6988 -0.5675
  123MOL   C13429658   5.585   7.236   7.088 -0.6956  0.7187 -0.0709
  123MOL   C13529659   5.717   7.316   7.077  0.1852  0.7800  0.2821
  123MOL   C13629660   5.695   7.422   6.963  0.2795 -0.8768  0.4979
  123MOL   C13729661   5.723   7.399   7.214 -0.0840  0.1818  0.3119
  123MOL   O13829662   5.806   7.386   7.306  0.2009 -0.0567  0.7234
  123MOL   O13929663   5.629   7.496   7.223 -0.6312 -0.2032  0.7795
  123MOL   H14029664   5.503   7.307   7.085 -0.2051  1.2632 -0.5322
  123MOL   H14129665   5.576   7.207   7.193 -0.5621 -0.4095 -0.3624
  123MOL   H14229666   5.738   7.519   6.988  0.7752 -1.6845  2.9295
  123MOL   H14329667   5.591   7.451   6.949  1.2261  1.7296 -1.6912
  123MOL   H14429668   5.745   7.392   6.871 -0.6194 -0.9809  0.0399
  123MOL   H14529669   5.641   7.532   7.310  1.7918  0.7144  0.1086
  123MOL   C14629670   5.848   7.227   7.056 -0.3755 -0.4281 -0.0454
  123MOL   C14729671   5.999   7.273   7.065  0.0146 -0.1637  0.2899
  123MOL   C14829672   6.071   7.199   6.952  0.2365 -0.2847  0.1154
  123MOL   C14929673   6.009   7.422   7.026 -0.0325  0.4201  0.7279
  123MOL   O15029674   6.042   7.511   7.104 -0.0343 -0.3112  0.2837
  123MOL   O15129675   5.991   7.447   6.892 -0.9122  0.4774 -0.0094
  123MOL   H15229676   5.835   7.146   7.127  1.2530 -0.0694  0.6988
  123MOL   H15329677   5.828   7.188   6.957 -2.0115 -0.5467  0.3229
  123MOL   H15429678   6.032   7.221   6.853  0.1418  0.4527  0.3125
  123MOL   H15529679   6.055   7.092   6.967 -0.4707 -0.1281  0.5015
  123MOL   H15629680   6.178   7.215   6.939 -0.0637  0.1854 -2.0199
  123MOL   H15729681   5.994   7.539   6.870  0.6744  0.9132  1.8247
  123MOL   C15829682   6.060   7.236   7.210  0.4042  0.1473  1.1291
  123MOL   C15929683   6.214   7.209   7.247  0.2712  0.0468 -0.4747
  123MOL   C16029684   6.252   7.084   7.164 -0.2557 -0.1092 -0.7469
  123MOL   C16129685   6.304   7.329   7.188  0.1483 -0.3568  0.2360
  123MOL   O16229686   6.321   7.356   7.070  0.3974 -0.2222  0.2999
  123MOL   O16329687   6.366   7.409   7.281  0.3855  0.4872 -0.5858
  123MOL   H16429688   6.018   7.309   7.280 -0.1415  0.7519  0.1840
  123MOL   H16529689   6.013   7.141   7.233 -0.8274  0.0330 -1.6918
  123MOL   H16629690   6.323   7.031   7.229 -0.1066  0.9966  0.0048
  123MOL   H16729691   6.303   7.101   7.069  0.9029  0.1859 -0.0800
  123MOL   H16829692   6.176   7.007   7.150 -0.9175  0.3907  0.0604
  123MOL   H16929693   6.417   7.479   7.243 -0.2450  0.8104 -0.8388
  123MOL   C17029694   6.230   7.190   7.401 -0.9999 -0.7729 -0.7713
  123MOL   C17129695   6.148   7.097   7.492 -0.4721 -0.0004 -0.1704
  123MOL   C17229696   6.011   7.155   7.506 -0.1906  0.9123 -0.4367
  123MOL   C17329697   6.146   6.957   7.427 -0.0136  0.1851 -0.6332
  123MOL   O17429698   6.043   6.901   7.387 -0.2683 -0.1288  0.2264
  123MOL   O17529699   6.260   6.904   7.418 -0.0708 -0.3156  0.4880
  123MOL   H17629700   6.336   7.168   7.414 -0.7349  1.0680  0.3922
  123MOL   H17729701   6.215   7.283   7.455  1.1899 -0.0663 -1.3279
  123MOL   H17829702   5.951   7.095   7.575  0.8520 -1.5306 -1.5915
  123MOL   H17929703   5.940   7.129   7.427 -1.3487  1.0606  0.5421
  123MOL   H18029704   6.003   7.258   7.542 -0.4694  1.2872 -1.5551
  123MOL   H18129705   6.251   6.822   7.373 -1.2343  0.0364  0.0710
  123MOL   C18229706   6.222   7.072   7.629 -0.3556  0.5745  0.0841
  123MOL   C18329707   6.229   7.171   7.755  0.8158  0.1960  0.0897
  123MOL   C18429708   6.255   7.320   7.712  0.0129  0.5506  0.2697
  123MOL   C18529709   6.090   7.171   0.067 -0.4062  0.3283 -0.0838
  123MOL   O18629710   6.012   7.076   0.065 -0.6848 -0.1057 -0.0232
  123MOL   O18729711   6.072   7.280   0.147 -0.4582 -0.6211  0.3169
  123MOL   H18829712   6.180   6.981   7.670  0.4120  0.3422  0.3771
  123MOL   H18929713   6.324   7.041   7.606 -0.6207  0.3366 -0.7717
  123MOL   H19029714   6.267   7.384   0.031  0.7224 -1.6731  1.8840
  123MOL   H19129715   6.177   7.361   7.649  1.0436  1.4677 -0.4207
  123MOL   H19229716   6.344   7.327   7.649 -1.1059 -1.7322 -1.6883
  123MOL   H19329717   5.991   7.270   0.195  0.4158 -1.8883  1.5879
  123MOL   C19429718   6.350   7.138   0.088  0.1742 -0.8196 -0.5568
  123MOL   C19529719   6.359   7.009   0.178  0.3756  0.6433 -0.6019
  123MOL   C19629720   6.253   7.021   0.290 -0.0698 -0.1933  0.2455
  123MOL   C19729721   6.334   6.883   0.091  0.2295 -0.0857 -0.3011
  123MOL   O19829722   6.249   6.797   0.117  0.3106 -0.3466 -0.5419
  123MOL   O19929723   6.434   6.882   7.763  0.0365  0.4796 -0.4757
  123MOL   H20029724   6.438   7.141   0.024  2.4315 -1.8209  2.3963
  123MOL   H20129725   6.360   7.228   0.149 -0.4710 -1.5691  0.6648
  123MOL   H20229726   6.220   7.122   0.314  0.0075 -0.6613  2.4134
  123MOL   H20329727   6.279   6.988   0.391 -2.3589 -1.3410  0.4924
  123MOL   H20429728   6.157   6.973   0.270 -0.4005  1.2896 -1.8890
  123MOL   H20529729   6.425   6.804   7.710  2.6751 -1.5744  1.9236
  123MOL   C20629730   6.507   7.005   0.250 -0.7354  0.0277 -0.3414
  123MOL   C20729731   6.577   6.879   0.321  0.9311  0.4251  0.1615
  123MOL   C20829732   6.598   6.759   0.220  0.2160 -0.4891 -0.4076
  123MOL   C20929733   6.717   6.942   0.358  0.0342 -0.2877  0.0162
  123MOL   O21029734   6.742   6.985   0.471 -0.7521 -0.0639 -0.0251
  123MOL   O21129735   6.810   6.918   0.262 -0.1890  0.7784 -0.3745
  123MOL   H21229736   6.571   7.032   0.166 -1.3580 -1.9799 -1.5014
  123MOL   H21329737   6.515   7.086   0.322 -1.3414  1.7067 -2.1226
  123MOL   H21429738   6.615   6.791   0.118 -0.2959 -2.0997 -1.0061
  123MOL   H21529739   6.512   6.693   0.212 -0.8390  0.6855  0.9728
  123MOL   H21629740   6.668   6.682   0.251  0.1758  0.3252  1.8241
  123MOL   H21729741   6.900   6.934   0.286  0.1445 -2.2316  0.5891
  123MOL   C21829742   6.498   6.831   0.449 -0.6762  0.6758 -0.4755
  123MOL   C21929743   6.538   6.706   0.548  0.5702  0.2921 -0.3451
  123MOL   C22029744   6.689   6.693   0.579  0.2222 -0.6008  0.2417
  123MOL   C22129745   6.477   6.732   0.686  0.3557  0.4499 -0.1916
  123MOL   O22229746   6.438   6.845   0.722 -0.6683  0.7568 -0.4397
  123MOL   O22329747   6.471   6.623   0.763  0.5032 -0.2147  0.4836
  123MOL   H22429748   6.492   6.926   0.502 -1.4562  0.2922  0.1369
  123MOL   H22529749   6.393   6.815   0.422 -1.1730 -0.1397  1.8195
  123MOL   H22629750   6.735   6.786   0.615  0.6892 -0.1723 -1.4186
  123MOL   H22729751   6.739   6.649   0.493  1.2609 -1.0340  1.0624
  123MOL   H22829752   6.714   6.614   0.649  0.7001 -1.3103 -0.7325
  123MOL   H22929753   6.435   6.665   0.840 -1.9668  0.6881 -1.0719
  123MOL   C23029754   6.495   6.565   0.495 -1.1761 -0.8332 -0.4522
  123MOL   C23129755   6.344   6.545   0.477  0.6068 -0.2454  0.6685
  123MOL   C23229756   6.299   6.520   0.332 -0.0526 -0.1801  0.2700
  123MOL   C23329757   6.292   6.433   0.569  0.1857  0.5036  0.5357
  123MOL   O23429758   6.237   6.447   0.681  0.0953  0.0948  0.4442
  123MOL   O23529759   6.338   6.313   0.521  0.7624 -0.3832  0.6221
  123MOL   H23629760   6.544   6.560   0.398  2.2765 -1.3158  1.2450
  123MOL   H23729761   6.535   6.479   0.550 -0.4110 -0.3973 -0.3280
  123MOL   H23829762   6.197   6.484   0.320 -0.4030  1.4436 -1.8493
  123MOL   H23929763   6.363   6.450   0.277  0.1206  0.2043 -0.0221
  123MOL   H24029764   6.309   6.618   0.286 -1.7383 -0.3239 -0.4137
  123MOL   H24129765   6.300   6.241   0.567 -0.4994 -1.7555 -2.4332
  123MOL   H24229766   6.288   6.630   0.517  0.5466 -0.6447  1.4395
  124MOL     C129767   0.819   5.351   1.079 -0.2879  0.1576  0.1081
  124MOL     C229768   0.831   5.377   0.929  1.0497  0.3365  0.2314
  124MOL     C329769   0.807   5.237   0.856  0.1434  0.3712 -0.8517
  124MOL     C429770   0.730   5.477   0.867 -0.7794 -0.5459  0.0964
  124MOL     O529771   0.634   5.525   0.921  0.5296 -0.5243  0.2265
  124MOL     O629772   0.757   5.513   0.741  0.1008 -0.4962  0.2262
  124MOL     H729773   0.877   5.264   1.108 -0.0610  0.1120 -0.4819
  124MOL     H829774   0.716   5.354   1.114 -0.0932 -0.1388  0.7098
  124MOL     H929775   0.708   5.202   0.884  0.0871 -0.3375 -1.9089
  124MOL    H1029776   0.876   5.157   0.882  0.4977  0.9745  0.1160
  124MOL    H1129777   0.785   5.248   0.750  0.5870  2.8371 -0.7254
  124MOL    H1229778   0.685   5.571   0.724 -0.5219 -0.7791  1.7701
  124MOL    H1329779   0.864   5.440   1.125  2.0498  0.3401 -2.3821
  124MOL    C1429780   0.980   5.430   0.894 -0.3200  1.4843  0.3663
  124MOL    C1529781   1.050   5.563   0.941  0.1549 -0.4467 -0.4002
  124MOL    C1629782   0.952   5.679   0.961 -0.2451  0.1252 -0.0115
  124MOL    C1729783   1.130   5.550   1.077  0.0658 -0.8679 -0.5649
  124MOL    O1829784   1.179   5.645   1.132  0.2986 -0.0256  0.3054
  124MOL    O1929785   1.139   5.425   1.121 -0.1869 -0.3144 -0.7112
  124MOL    H2029786   1.047   5.349   0.923 -0.5323  0.2383 -2.4570
  124MOL    H2129787   0.979   5.427   0.785  0.9954  0.2400  0.3725
  124MOL    H2229788   0.908   5.718   0.869 -2.8372  0.4111  1.3382
  124MOL    H2329789   1.005   5.765   1.003 -0.5559  0.0798  0.4740
  124MOL    H2429790   0.875   5.669   1.037  1.5242 -1.3307  1.6579
  124MOL    H2529791   1.173   5.434   1.209 -0.9033 -0.7952 -0.3887
  124MOL    C2629792   1.139   5.615   0.819 -0.7155  0.3272  0.2605
  124MOL    C2729793   1.272   5.547   0.765 -0.4543  0.1514 -0.1525
  124MOL    C2829794   1.255   5.390   0.741 -0.1020  0.0651  0.3656
  124MOL    C2929795   1.297   5.608   0.629 -0.6185 -0.5146 -0.4358
  124MOL    O3029796   1.263   5.554   0.526  0.4184  0.1157  0.0636
  124MOL    O3129797   1.330   5.745   0.642 -0.4988 -0.5130  0.0554
  124MOL    H3229798   1.073   5.614   0.732  2.1258  0.4121 -1.9839
  124MOL    H3329799   1.154   5.722   0.835  0.4550  0.0600  0.9668
  124MOL    H3429800   1.257   5.336   0.835  2.8699 -3.2626 -1.4927
  124MOL    H3529801   1.332   5.355   0.672 -0.4689  2.4467 -1.3255
  124MOL    H3629802   1.167   5.370   0.680  1.3991 -1.0554 -1.4799
  124MOL    H3729803   1.329   5.799   0.564 -0.2677 -0.7174 -0.0893
  124MOL    C3829804   1.392   5.568   0.862 -0.4528  0.3504  0.2320
  124MOL    C3929805   1.541   5.539   0.841  0.0769  0.2107 -0.3089
  124MOL    C4029806   1.567   5.419   0.746 -0.1822  0.2129 -0.4914
  124MOL    C4129807   1.597   5.660   0.769 -0.3450  0.4902  0.2996
  124MOL    O4229808   1.642   5.654   0.651  0.4110 -0.4698  0.0428
  124MOL    O4329809   1.609   5.774   0.842 -0.1570 -0.5560  0.3559
  124MOL    H4429810   1.385   5.672   0.893 -0.9225  0.3081  0.2821
  124MOL    H4529811   1.364   5.505   0.946  2.2050 -1.6911 -0.3494
  124MOL    H4629812   1.525   5.426   0.645 -1.5455  2.2582  0.1780
  124MOL    H4729813   1.536   5.327   0.796  1.9384 -0.1169  0.2456
  124MOL    H4829814   1.675   5.407   0.746  0.1413  2.6199 -2.1094
  124MOL    H4929815   1.629   5.836   0.774 -3.7103 -1.1134 -1.3328
  124MOL    C5029816   1.615   5.534   0.982 -0.3372  0.6197 -0.0904
  124MOL    C5129817   1.629   5.410   1.076 -0.7064 -0.3493  0.3349
  124MOL    C5229818   1.491   5.356   1.104  0.0801 -0.3805 -0.2137
  124MOL    C5329819   1.715   5.302   1.005  0.2464  0.5583  0.7546
  124MOL    O5429820   1.671   5.187   0.980  0.0631  0.4397  0.4617
  124MOL    O5529821   1.837   5.345   0.967 -0.4065 -0.4048 -0.4029
  124MOL    H5629822   1.718   5.564   0.967  0.2456 -1.4165 -0.2511
  124MOL    H5729823   1.560   5.609   1.040  2.1052  1.7233  0.8495
  124MOL    H5829824   1.491   5.271   1.172  3.6926  1.0758  1.7341
  124MOL    H5929825   1.444   5.321   1.012 -2.8310 -1.1163  1.5105
  124MOL    H6029826   1.419   5.429   1.142 -0.1448 -0.0973 -1.1629
  124MOL    H6129827   1.894   5.283   0.923  0.2542  0.2872 -0.5401
  124MOL    C6229828   1.682   5.438   1.222  0.8541 -1.0837  0.3468
  124MOL    C6329829   1.781   5.558   1.267  0.6989  0.3488  0.0966
  124MOL    C6429830   1.818   5.525   1.405 -0.2048  0.5057 -0.6046
  124MOL    C6529831   1.912   5.550   1.182  0.1324 -0.0707  0.3915
  124MOL    O6629832   1.957   5.643   1.116 -0.4505 -0.0746  0.0064
  124MOL    O6729833   1.972   5.424   1.191  0.2948  0.4807  0.5079
  124MOL    H6829834   1.592   5.455   1.282  0.3608  0.2062 -0.7443
  124MOL    H6929835   1.718   5.344   1.266  1.0985 -1.4921 -0.7125
  124MOL    H7029836   1.905   5.460   1.419 -1.2781 -0.9458 -0.6151
  124MOL    H7129837   1.738   5.487   1.468  1.7077  0.0268  1.5946
  124MOL    H7229838   1.866   5.614   1.445 -0.9536  0.9557 -0.7030
  124MOL    H7329839   2.045   5.409   1.134  0.7738  0.2595  1.1754
  124MOL    C7429840   1.717   5.701   1.261  0.7075  0.4120 -0.3617
  124MOL    C7529841   1.603   5.756   1.353 -0.2720 -0.0452 -0.2913
  124MOL    C7629842   1.469   5.695   1.317  0.6030  0.0122 -0.3707
  124MOL    C7729843   1.611   5.733   1.506  0.2091  0.4687 -0.1782
  124MOL    O7829844   1.535   5.655   1.572 -0.0910  0.2939  0.2897
  124MOL    O7929845   1.726   5.789   1.559  0.2079 -0.1476  0.0218
  124MOL    H8029846   1.802   5.763   1.291 -0.3379  2.3843 -1.3876
  124MOL    H8129847   1.712   5.732   1.157  0.9429  2.0459  0.0863
  124MOL    H8229848   1.454   5.702   1.209  0.0737  0.8241 -0.2478
  124MOL    H8329849   1.395   5.764   1.358 -1.1087 -2.5246  0.9433
  124MOL    H8429850   1.456   5.597   1.362 -1.0939  1.0988  1.6209
  124MOL    H8529851   1.746   5.772   1.650 -1.0427  0.5057  0.4319
  124MOL    C8629852   1.600   5.918   1.329  0.1216 -0.3116 -0.4768
  124MOL    C8729853   1.563   6.002   1.196  0.5336  0.1890 -0.7001
  124MOL    C8829854   1.678   6.004   1.080 -0.7848  0.4651 -0.3982
  124MOL    C8929855   1.431   5.955   1.134  1.0001 -0.6241  0.3899
  124MOL    O9029856   1.417   5.904   1.022  0.0612  0.3635 -0.2763
  124MOL    O9129857   1.326   5.954   1.221  0.3073 -0.0731 -0.0721
  124MOL    H9229858   1.533   5.953   1.408 -1.9694 -0.9411 -1.9239
  124MOL    H9329859   1.700   5.953   1.356  0.8476 -3.0843  0.6381
  124MOL    H9429860   1.700   5.902   1.050  1.2610  0.3376  1.3543
  124MOL    H9529861   1.774   6.045   1.113 -0.0131 -1.9729  0.4949
  124MOL    H9629862   1.653   6.052   0.986 -1.8024 -1.8547 -1.3452
  124MOL    H9729863   1.258   5.924   1.162  0.3416 -0.5383  0.1241
  124MOL    C9829864   1.529   6.154   1.241  0.1265 -0.2279  0.2212
  124MOL    C9929865   1.630   6.268   1.266  0.0425 -0.0783  0.0400
  124MOL   C10029866   1.735   6.224   1.371 -0.3695  1.0677 -0.2369
  124MOL   C10129867   1.704   6.305   1.134 -0.2544  0.5678 -0.8424
  124MOL   O10229868   1.661   6.282   1.024 -0.1391  0.4197 -0.8153
  124MOL   O10329869   1.822   6.373   1.157  0.6212  0.0857  0.1239
  124MOL   H10429870   1.469   6.204   1.165  1.4558  1.6184  0.3407
  124MOL   H10529871   1.466   6.148   1.330  0.8133 -0.0382  0.7238
  124MOL   H10629872   1.787   6.309   1.415 -0.1728  0.9821 -0.3007
  124MOL   H10729873   1.815   6.160   1.335 -1.1133  0.3664 -0.6634
  124MOL   H10829874   1.687   6.170   1.452  3.0366  1.2923  2.0226
  124MOL   H10929875   1.873   6.373   1.077  0.4772 -0.6877  0.0265
  124MOL   C11029876   1.564   6.399   1.332  0.6460  0.2690  0.2801
  124MOL   C11129877   1.479   6.501   1.252  0.8786  0.1538 -0.2654
  124MOL   C11229878   1.571   6.604   1.176  0.6025 -0.0760  0.3650
  124MOL   C11329879   1.386   6.437   1.149  0.0357  0.0608 -0.9010
  124MOL   O11429880   1.383   6.460   1.027  0.0492  0.1464  0.2257
  124MOL   O11529881   1.295   6.360   1.214  1.1763  0.3838  0.4106
  124MOL   H11629882   1.502   6.353   1.409  0.2365 -1.3170 -0.9799
  124MOL   H11729883   1.641   6.461   1.379 -0.0138  0.6577  0.8485
  124MOL   H11829884   1.518   6.679   1.117  1.4215  0.0842 -0.1715
  124MOL   H11929885   1.636   6.557   1.101  0.2543  0.0440 -0.0141
  124MOL   H12029886   1.639   6.651   1.246  0.4523 -0.2914  0.6555
  124MOL   H12129887   1.228   6.329   1.155  0.9279  2.0994 -0.2431
  124MOL   C12229888   1.387   6.574   1.350  0.6936  0.1060 -0.0824
  124MOL   C12329889   1.430   6.690   1.444  0.1361 -0.5125  0.5822
  124MOL   C12429890   1.546   6.661   1.532 -0.3220  0.1677 -0.2566
  124MOL   C12529891   1.448   6.822   1.358 -0.5888  0.6186  0.6143
  124MOL   O12629892   1.387   6.849   1.258 -0.1392 -0.3226 -0.6420
  124MOL   O12729893   1.544   6.901   1.408 -0.1060 -0.2409 -0.1533
  124MOL   H12829894   1.307   6.606   1.283  2.8742  1.6682 -2.0095
  124MOL   H12929895   1.352   6.496   1.417  0.0222  0.8436  0.4317
  124MOL   H13029896   1.565   6.743   1.602  1.8638 -1.0016  0.5429
  124MOL   H13129897   1.641   6.648   1.480 -1.2165 -1.9361 -1.4145
  124MOL   H13229898   1.532   6.567   1.584 -1.4531  1.1579  1.2933
  124MOL   H13329899   1.553   6.957   1.332  0.8394 -2.1356 -1.4747
  124MOL   C13429900   1.294   6.700   1.528  0.9572 -0.7389  0.6662
  124MOL   C13529901   1.236   6.832   1.610  0.1853  0.5921  0.0828
  124MOL   C13629902   1.353   6.902   1.685 -0.4145 -0.3114  0.3482
  124MOL   C13729903   1.183   6.937   1.502 -0.5939 -0.1631 -0.7985
  124MOL   O13829904   1.130   6.911   1.394  0.1070  0.0665 -0.2019
  124MOL   O13929905   1.208   7.067   1.535 -0.1829  0.0357 -0.3337
  124MOL   H14029906   1.212   6.679   1.459 -0.5203  4.2759  0.6804
  124MOL   H14129907   1.295   6.621   1.603 -1.5666  0.7153  2.3202
  124MOL   H14229908   1.395   6.828   1.754  0.8464  0.4788  0.4409
  124MOL   H14329909   1.321   6.989   1.742  0.2252 -0.1995  0.5399
  124MOL   H14429910   1.436   6.933   1.623 -2.0161 -0.9464 -2.1938
  124MOL   H14529911   1.192   7.104   1.450 -1.5382  1.1489  0.3904
  124MOL   C14629912   1.119   6.800   1.711  0.1921  0.2163  0.5091
  124MOL   C14729913   0.972   6.746   1.676  0.2344  0.6281 -0.1185
  124MOL   C14829914   0.876   6.858   1.623  0.2488  0.2260 -0.2739
  124MOL   C14929915   0.989   6.639   1.562 -0.0752  0.6717  0.3466
  124MOL   O15029916   1.034   6.528   1.594 -0.3389 -0.4766 -0.7009
  124MOL   O15129917   0.964   6.696   1.438  0.3636  0.7014  0.0653
  124MOL   H15229918   1.163   6.724   1.775  0.0220 -0.7872 -0.5539
  124MOL   H15329919   1.102   6.879   1.785  4.6790 -0.5896  2.5845
  124MOL   H15429920   0.923   6.915   1.543  0.4790 -2.5651 -2.1669
  124MOL   H15529921   0.843   6.923   1.704  1.8536  0.6422  0.0497
  124MOL   H15629922   0.784   6.826   1.575 -0.0912 -0.3154  0.7176
  124MOL   H15729923   1.024   6.660   1.375  0.7679  0.8112  0.3901
  124MOL   C15829924   0.921   6.686   1.803 -0.2883 -0.3270 -0.6420
  124MOL   C15929925   0.783   6.615   1.828 -0.4495 -0.4242  0.3341
  124MOL   C16029926   0.796   6.531   1.962  0.1736 -0.7368 -0.7626
  124MOL   C16129927   0.680   6.728   1.852 -0.6235 -0.1988 -0.1820
  124MOL   O16229928   0.615   6.785   1.760 -0.2622  0.0711  0.7376
  124MOL   O16329929   0.654   6.767   1.988 -0.5391 -0.1293  0.3263
  124MOL   H16429930   0.995   6.606   1.816 -0.8014 -0.9132 -1.3163
  124MOL   H16529931   0.933   6.757   1.884 -1.4803  0.4026 -1.1038
  124MOL   H16629932   0.865   6.585   2.027  0.2235  0.6446 -1.9434
  124MOL   H16729933   0.834   6.432   1.935 -2.2972 -1.9945  0.2761
  124MOL   H16829934   0.701   6.523   2.013 -1.2024 -0.4854 -3.1927
  124MOL   H16929935   0.599   6.843   1.996 -0.1446  0.1771  0.1515
  124MOL   C17029936   0.742   6.520   1.710 -0.3112 -0.2297 -0.0814
  124MOL   C17129937   0.605   6.456   1.696  0.6679 -0.2045  0.2422
  124MOL   C17229938   0.518   6.534   1.593 -0.1680 -0.4228  0.6648
  124MOL   C17329939   0.645   6.325   1.625 -0.2570  0.1890 -0.0059
  124MOL   O17429940   0.641   6.318   1.497 -0.1626  0.2936  0.1056
  124MOL   O17529941   0.686   6.227   1.703 -0.1141 -0.4534 -0.3781
  124MOL   H17629942   0.743   6.581   1.620 -2.3596  0.5183  0.3723
  124MOL   H17729943   0.827   6.452   1.697 -0.6181 -1.2534  2.7795
  124MOL   H17829944   0.441   6.468   1.552  1.1142 -1.2107 -0.5151
  124MOL   H17929945   0.561   6.572   1.500 -2.8379  0.1755 -0.3715
  124MOL   H18029946   0.465   6.621   1.629  2.5722  2.4678 -2.0034
  124MOL   H18129947   0.722   6.161   1.646 -1.0129 -0.1027 -1.3678
  124MOL   C18229948   0.526   6.437   1.832 -0.3123 -0.2865  0.3778
  124MOL   C18329949   0.378   6.370   1.843  0.7461  0.0314  0.7044
  124MOL   C18429950   0.365   6.239   1.755  0.6170 -0.4333  0.3690
  124MOL   C18529951   0.374   6.317   1.989  0.9601  0.0782  0.8506
  124MOL   O18629952   0.327   6.215   2.027  0.7786  0.1334 -0.5792
  124MOL   O18729953   0.438   6.393   2.077  0.0435  0.0118  0.2273
  124MOL   H18829954   0.589   6.381   1.901  0.3977  1.3067  1.0249
  124MOL   H18929955   0.527   6.532   1.885 -0.1242 -0.7989  1.3065
  124MOL   H19029956   0.350   6.255   1.648 -1.9572 -0.6756  0.6672
  124MOL   H19129957   0.275   6.180   1.774  0.8044 -0.1550  2.1917
  124MOL   H19229958   0.459   6.186   1.770  1.9523  1.2356 -1.8536
  124MOL   H19329959   0.439   6.349   2.161 -1.3425 -0.9221 -0.2177
  124MOL   C19429960   0.265   6.478   1.811  0.1856  0.3855 -0.3034
  124MOL   C19529961   0.113   6.467   1.847 -0.3471  0.3405  0.5780
  124MOL   C19629962   0.092   6.462   2.005  0.1025 -0.1704 -0.4579
  124MOL   C19729963   0.037   6.596   1.799 -0.1288 -0.2876  0.3473
  124MOL   O19829964   7.749   6.675   1.876 -0.2531  0.2713 -0.0936
  124MOL   O19929965   0.040   6.619   1.664  0.2530 -0.5869  0.2924
  124MOL   H20029966   0.302   6.572   1.852 -1.9772 -0.1058  2.9858
  124MOL   H20129967   0.273   6.505   1.705  0.4466 -0.4728 -0.5023
  124MOL   H20229968   0.131   6.543   2.067 -0.5405  0.7676 -1.2591
  124MOL   H20329969   0.134   6.369   2.044  0.1143 -0.4072 -1.0329
  124MOL   H20429970   7.754   6.445   2.026  0.1375  0.5624  0.3508
  124MOL   H20529971   0.082   6.550   1.614 -2.2927 -2.1384  0.2310
  124MOL   C20629972   0.056   6.328   1.794 -0.0016  0.0239  0.2733
  124MOL   C20729973   7.673   6.296   1.753 -0.1484 -0.2372 -0.5956
  124MOL   C20829974   7.582   6.341   1.865 -0.2658 -0.7311  1.0194
  124MOL   C20929975   7.647   6.367   1.613 -0.1362 -0.0336 -0.0791
  124MOL   O21029976   7.729   6.360   1.524  0.3311 -0.3234 -0.4559
  124MOL   O21129977   7.520   6.419   1.604 -0.5367  0.0137  0.9507
  124MOL   H21229978   0.114   6.312   1.703  0.4210  2.8173  0.0151
  124MOL   H21329979   0.086   6.254   1.868  1.6678  0.6944  0.2918
  124MOL   H21429980   7.579   6.446   1.891  3.7535 -0.3698  0.2506
  124MOL   H21529981   7.603   6.284   1.955 -2.2254 -2.4114  0.4555
  124MOL   H21629982   7.475   6.321   1.850 -0.3833  0.8494 -0.3168
  124MOL   H21729983   7.507   6.463   1.522  1.9522  2.6216  1.8981
  124MOL   C21829984   7.664   6.138   1.727 -0.4443  0.2778 -0.0566
  124MOL   C21929985   7.541   6.057   1.702 -0.6955  0.1792  0.2062
  124MOL   C22029986   7.492   6.018   1.848  0.5691  0.2197  0.0984
  124MOL   C22129987   7.432   6.131   1.626 -0.0203 -0.0623 -0.0618
  124MOL   O22229988   7.328   6.172   1.680 -0.0432 -0.4372 -0.0557
  124MOL   O22329989   7.456   6.142   1.489 -0.3600  0.0386 -0.4533
  124MOL   H22429990   7.732   6.122   1.644  1.1398  0.3551  1.2013
  124MOL   H22529991   7.708   6.094   1.816 -3.0727 -0.0084  1.1513
  124MOL   H22629992   7.386   5.995   1.838  0.1244  2.3943 -0.4178
  124MOL   H22729993   7.485   6.108   1.910 -0.3754 -0.5397  1.1155
  124MOL   H22829994   7.542   5.933   1.894  0.9623  1.3209  1.7624
  124MOL   H22929995   7.390   6.208   1.470 -1.5959 -0.0902  2.9777
  124MOL   C23029996   7.596   5.926   1.633  0.6221  0.4166 -0.1974
  124MOL   C23129997   7.496   5.816   1.591 -0.1005  0.1281  0.4120
  124MOL   C23229998   7.544   5.731   1.466 -0.9749 -0.5050  0.8626
  124MOL   C23329999   7.458   5.721   1.705 -0.1053  0.8096  0.5768
  124MOL   O23430000   7.538   5.655   1.771 -0.4001 -0.2972 -0.1435
  124MOL   O23530001   7.323   5.730   1.724 -0.9678 -0.5328  0.0391
  124MOL   H23630002   7.641   5.952   1.537 -2.2283 -0.6526 -1.8869
  124MOL   H23730003   7.681   5.885   1.688  0.2042  0.7563  0.7210
  124MOL   H23830004   7.493   5.636   1.452  0.2582 -1.1277  0.4939
  124MOL   H23930005   7.649   5.700   1.470  0.1078  2.8026 -0.2200
  124MOL   H24030006   7.524   5.788   1.376 -0.5871 -2.2049 -0.3072
  124MOL   H24130007   7.296   5.673   1.795 -0.7704  0.9360  1.3220
  124MOL   H24230008   7.407   5.875   1.566  0.5032 -0.2173 -2.6417
  125MOL     C130009   0.445   3.041   0.767 -0.0660  0.3781  0.0023
  125MOL     C230010   0.591   3.019   0.724 -0.0448  0.0448 -0.0089
  125MOL     C330011   0.597   3.006   0.568 -0.3612 -0.3267 -0.2271
  125MOL     C430012   0.677   3.141   0.759 -0.1061 -0.4343  0.1387
  125MOL     O530013   0.763   3.185   0.683 -0.2830 -0.1915 -0.0432
  125MOL     O630014   0.638   3.198   0.874  0.1224 -0.2616  0.6046
  125MOL     H730015   0.377   2.960   0.742 -1.3897  1.6523 -0.6027
  125MOL     H830016   0.402   3.134   0.729  2.5546  2.1954  1.3330
  125MOL     H930017   0.536   2.920   0.539 -0.3907 -0.2899 -0.2749
  125MOL    H1030018   0.701   2.986   0.543 -0.0581  0.1638  0.6202
  125MOL    H1130019   0.556   3.097   0.522 -0.7249  0.1631  1.0498
  125MOL    H1230020   0.707   3.260   0.892 -0.5518  1.3282 -1.9251
  125MOL    H1330021   0.440   3.060   0.874  0.7977 -1.4714  0.3779
  125MOL    C1430022   0.658   2.887   0.773 -0.3366 -0.1633 -0.6138
  125MOL    C1530023   0.629   2.815   0.910 -0.5378 -0.0716  0.4690
  125MOL    C1630024   0.640   2.916   1.030  0.0173  0.4874  0.3448
  125MOL    C1730025   0.482   2.758   0.910 -0.2799 -0.2799 -0.2181
  125MOL    O1830026   0.424   2.718   0.813 -0.2380  0.0306  0.0992
  125MOL    O1930027   0.423   2.759   1.035 -0.1626 -0.7997  0.2523
  125MOL    H2030028   0.638   2.802   0.707  1.1326  1.2982 -2.9835
  125MOL    H2130029   0.766   2.902   0.772 -0.0673 -1.7589  1.2029
  125MOL    H2230030   0.556   2.985   1.033 -1.9180 -1.5326 -3.1505
  125MOL    H2330031   0.721   2.989   1.025 -1.0197  1.5238 -1.7411
  125MOL    H2430032   0.639   2.873   1.130  0.2632  0.7214  0.4486
  125MOL    H2530033   0.336   2.721   1.025 -1.2368  1.7413 -0.5496
  125MOL    C2630034   0.734   2.696   0.906  0.5952 -0.6393 -0.2589
  125MOL    C2730035   0.779   2.614   1.038  0.2374 -0.2598 -0.1116
  125MOL    C2830036   0.878   2.695   1.117  0.7529 -0.5026 -0.0905
  125MOL    C2930037   0.653   2.565   1.119  0.3897  0.2071  0.4317
  125MOL    O3030038   0.637   2.594   1.236 -0.2851 -0.4979  0.0187
  125MOL    O3130039   0.566   2.498   1.044  0.3821  0.0138  0.3280
  125MOL    H3230040   0.677   2.618   0.855 -0.1260 -1.8690  2.3276
  125MOL    H3330041   0.830   2.720   0.860  1.6626  2.7511  3.3948
  125MOL    H3430042   0.971   2.713   1.063  0.9615 -1.2933  0.0067
  125MOL    H3530043   0.890   2.659   1.219 -1.9595 -0.4854  0.2669
  125MOL    H3630044   0.839   2.794   1.139  1.5488  0.2558 -1.9779
  125MOL    H3730045   0.489   2.474   1.093  0.5055 -1.7829 -0.3483
  125MOL    C3830046   0.848   2.490   0.977 -0.2291  0.6433  0.3649
  125MOL    C3930047   0.910   2.372   1.058 -0.0923 -0.0988 -0.0140
  125MOL    C4030048   0.988   2.418   1.178  0.0605  0.0060  0.7842
  125MOL    C4130049   0.795   2.276   1.113 -0.1884 -0.0242 -0.0750
  125MOL    O4230050   0.771   2.244   1.228 -0.3887  0.7937  0.0379
  125MOL    O4330051   0.715   2.233   1.009  0.5068  0.1707 -0.4786
  125MOL    H4430052   0.778   2.440   0.910 -0.7058  1.7908  0.0060
  125MOL    H4530053   0.919   2.530   0.904 -0.9471 -1.0474 -1.3007
  125MOL    H4630054   1.064   2.493   1.160 -1.8685  1.3670 -1.9407
  125MOL    H4730055   1.044   2.339   1.228  2.3066  0.2483 -1.3037
  125MOL    H4830056   0.927   2.460   1.259  1.4539  0.5641  1.5587
  125MOL    H4930057   0.647   2.172   1.031  0.3607 -0.0731 -1.5726
  125MOL    C5030058   0.999   2.294   0.948 -0.5507  0.3757 -0.1858
  125MOL    C5130059   1.053   2.146   0.966  0.1521 -0.8243  0.4642
  125MOL    C5230060   1.151   2.130   0.859 -0.3339  0.2923  0.1468
  125MOL    C5330061   1.134   2.135   1.100  0.8486 -0.4371  0.7513
  125MOL    O5430062   1.256   2.159   1.108  0.3857  0.0373 -0.3276
  125MOL    O5530063   1.048   2.113   1.205 -0.1065  0.4445 -0.2071
  125MOL    H5630064   0.945   2.296   0.854  1.0652 -0.5263 -1.1744
  125MOL    H5730065   1.091   2.349   0.927 -0.0641  0.7796  2.7793
  125MOL    H5830066   1.108   2.105   0.762  1.2275  0.9242 -0.7282
  125MOL    H5930067   1.219   2.046   0.869 -0.1318  0.4200 -0.1374
  125MOL    H6030068   1.214   2.217   0.839  0.3365 -0.4567 -1.1088
  125MOL    H6130069   1.092   2.116   1.288  2.0194 -0.7512 -1.2620
  125MOL    C6230070   0.948   2.038   0.944  0.0454 -0.6324  0.6805
  125MOL    C6330071   0.971   1.876   0.919 -0.5812 -0.1602  0.1395
  125MOL    C6430072   1.083   1.829   1.013 -0.1957  0.5878 -0.0312
  125MOL    C6530073   0.840   1.789   0.954 -0.0012 -0.2989 -0.7606
  125MOL    O6630074   0.823   1.698   1.029 -0.1704  0.4258 -0.6075
  125MOL    O6730075   0.734   1.835   0.886 -0.2638  0.4018 -0.1063
  125MOL    H6830076   0.877   2.036   1.027  1.2402 -2.3711  1.6997
  125MOL    H6930077   0.877   2.077   0.871  1.1912  1.2682  0.5540
  125MOL    H7030078   1.184   1.858   0.985  0.2888  0.4161  1.4725
  125MOL    H7130079   1.093   1.720   1.021  1.3956  0.6184 -1.3925
  125MOL    H7230080   1.078   1.854   1.119 -1.4736 -0.5852  0.2158
  125MOL    H7330081   0.663   1.773   0.895  0.2542  0.1398  2.7433
  125MOL    C7430082   1.030   1.847   0.770  0.2606 -0.0690  0.0090
  125MOL    C7530083   0.996   1.715   0.687 -0.7081 -0.4969 -0.1794
  125MOL    C7630084   1.011   1.592   0.781 -0.6975  0.1726  0.5346
  125MOL    C7730085   0.848   1.720   0.637  0.7361  0.6897  0.5068
  125MOL    O7830086   0.787   1.826   0.612  0.1690  0.0451 -0.3097
  125MOL    O7930087   0.799   1.603   0.594 -0.5847  0.5794 -0.0670
  125MOL    H8030088   0.993   1.933   0.716  0.9140 -0.5874 -1.2796
  125MOL    H8130089   1.137   1.869   0.769  0.1330  0.5407 -0.8705
  125MOL    H8230090   0.925   1.589   0.848 -0.9723  1.1659  0.2309
  125MOL    H8330091   1.110   1.601   0.827 -1.1946  0.8996  1.4909
  125MOL    H8430092   1.012   1.493   0.735 -0.6520 -0.0394  0.9855
  125MOL    H8530093   0.706   1.613   0.579 -1.1755 -2.8214  0.9244
  125MOL    C8630094   1.089   1.684   0.557 -0.4391  0.4022 -0.2186
  125MOL    C8730095   1.155   1.785   0.455  0.4013  0.1621  0.0903
  125MOL    C8830096   1.258   1.869   0.537  0.1529  0.6059  0.0922
  125MOL    C8930097   1.223   1.705   0.355 -0.6151 -0.1141 -0.1655
  125MOL    O9030098   1.341   1.721   0.330  0.6473  0.3459 -0.3700
  125MOL    O9130099   1.133   1.626   0.291  0.1912  0.1169 -0.2824
  125MOL    H9230100   1.168   1.623   0.601 -0.5590  0.9094  0.7288
  125MOL    H9330101   1.033   1.607   0.504  1.9563 -2.1292  0.8035
  125MOL    H9430102   1.316   1.932   0.470 -0.6679  1.9441  0.6301
  125MOL    H9530103   1.322   1.812   0.606 -0.2605 -1.3871 -1.1272
  125MOL    H9630104   1.210   1.954   0.585 -0.1402  2.2509 -2.9933
  125MOL    H9730105   1.175   1.554   0.246 -0.9045 -0.6360 -0.1474
  125MOL    C9830106   1.053   1.877   0.386  0.2168  0.3802 -0.0734
  125MOL    C9930107   1.088   1.999   0.293  0.0231  0.3818  0.0780
  125MOL   C10030108   1.215   1.984   0.204 -0.0920  0.1320  0.0698
  125MOL   C10130109   0.970   2.024   0.194 -0.0518  0.0306 -0.1040
  125MOL   O10230110   0.988   2.038   0.071  0.2343  0.3159 -0.8104
  125MOL   O10330111   0.848   2.030   0.254 -0.3131  0.0843  0.0715
  125MOL   H10430112   0.980   1.810   0.340 -0.3286  0.4611  0.6553
  125MOL   H10530113   0.986   1.909   0.466 -0.6337  1.4270 -1.1720
  125MOL   H10630114   1.225   2.046   0.115  0.3432 -0.2097 -0.1214
  125MOL   H10730115   1.215   1.889   0.150  1.7741 -0.5773  1.2665
  125MOL   H10830116   1.302   1.982   0.270 -1.4392 -1.0081  1.8544
  125MOL   H10930117   0.790   2.013   0.181 -2.4755 -1.0418  1.9714
  125MOL   C11030118   1.118   2.126   0.391 -0.7480  0.6478 -0.1244
  125MOL   C11130119   1.082   2.276   0.382  0.4368  0.1416  0.4707
  125MOL   C11230120   1.154   2.346   0.501  0.0278  0.6515  0.3452
  125MOL   C11330121   1.143   2.331   0.251 -0.7508  0.3050  0.0265
  125MOL   O11430122   1.072   2.363   0.154  0.2552 -0.4751  0.0909
  125MOL   O11530123   1.277   2.332   0.247  0.2501  0.1486 -0.4479
  125MOL   H11630124   1.081   2.099   0.489  1.4379  1.6296  0.9941
  125MOL   H11730125   1.226   2.139   0.402 -0.5686 -1.0130  0.2601
  125MOL   H11830126   1.154   2.455   0.504 -0.8614  0.7233 -1.7783
  125MOL   H11930127   1.253   2.306   0.525 -0.0469 -0.1575 -0.6622
  125MOL   H12030128   1.096   2.342   0.593 -2.1054 -0.9052 -1.0396
  125MOL   H12130129   1.305   2.378   0.170 -1.4453  0.3105 -0.9750
  125MOL   C12230130   0.925   2.294   0.388  0.0670 -0.1878 -0.2200
  125MOL   C12330131   0.848   2.412   0.452 -0.8840 -0.0867  0.5047
  125MOL   C12430132   0.862   2.403   0.609 -0.5082 -0.6710  0.0833
  125MOL   C12530133   0.897   2.547   0.393 -0.0013 -0.0784  0.6952
  125MOL   O12630134   0.951   2.640   0.457 -0.0357  0.5880 -0.6172
  125MOL   O12730135   0.876   2.561   0.259  0.1579 -0.3296 -0.4019
  125MOL   H12830136   0.884   2.290   0.287 -2.3781  0.0915  0.7548
  125MOL   H12930137   0.880   2.215   0.448 -1.7405  0.8198 -0.2269
  125MOL   H13030138   0.908   2.484   0.664 -1.2411 -0.2666  0.1127
  125MOL   H13130139   0.890   2.303   0.643  1.0092 -0.1291  0.4303
  125MOL   H13230140   0.772   2.413   0.670 -0.2809 -2.0680  0.6706
  125MOL   H13330141   0.827   2.491   0.220  0.5325 -0.0398 -1.4191
  125MOL   C13430142   0.700   2.386   0.420 -0.5376 -0.6285  0.0765
  125MOL   C13530143   0.571   2.446   0.479  0.2996  0.3077 -0.3793
  125MOL   C13630144   0.597   2.592   0.524  0.3397 -0.1166 -0.7185
  125MOL   C13730145   0.467   2.452   0.359 -0.2569  0.0072  0.4573
  125MOL   O13830146   0.470   2.374   0.264  0.3005  0.0264  0.5216
  125MOL   O13930147   0.364   2.545   0.377  0.2498  0.2547  0.0824
  125MOL   H14030148   0.694   2.405   0.312  1.1122  0.6649  0.1987
  125MOL   H14130149   0.690   2.279   0.437 -4.1491 -0.2625  0.4561
  125MOL   H14230150   0.696   2.588   0.569  0.5871 -0.9147 -1.3103
  125MOL   H14330151   0.513   2.645   0.568  0.1531 -0.5017 -0.6126
  125MOL   H14430152   0.609   2.655   0.436  1.3398 -0.5517 -0.9062
  125MOL   H14530153   0.301   2.523   0.310  1.7114  0.4789 -1.4028
  125MOL   C14630154   0.514   2.369   0.602 -0.1056  0.2021 -0.0580
  125MOL   C14730155   0.477   2.219   0.604  0.1780  0.1745 -0.0173
  125MOL   C14830156   0.441   2.150   0.473 -0.1626  0.0124  0.4731
  125MOL   C14930157   0.593   2.131   0.660  0.6811 -0.1298 -0.2463
  125MOL   O15030158   0.683   2.178   0.731  0.1853 -0.2333  0.2907
  125MOL   O15130159   0.575   1.998   0.639 -0.0983  0.8510  0.5573
  125MOL   H15230160   0.578   2.395   0.687 -0.2574 -0.2410  0.1939
  125MOL   H15330161   0.420   2.421   0.620 -0.8813 -1.1092 -0.2934
  125MOL   H15430162   0.362   2.206   0.424 -0.6241 -1.1588 -0.1402
  125MOL   H15530163   0.399   2.052   0.496 -1.7438  0.2783 -1.2012
  125MOL   H15630164   0.523   2.137   0.403 -0.8112  2.0827 -0.7025
  125MOL   H15730165   0.645   1.948   0.678  0.9588  0.6495 -1.5174
  125MOL   C15830166   0.364   2.188   0.706 -0.6096 -0.1413  0.1468
  125MOL   C15930167   0.232   2.274   0.733  0.1659  0.3429 -0.4011
  125MOL   C16030168   0.269   2.386   0.835  0.0979 -0.1837  0.4013
  125MOL   C16130169   0.174   2.337   0.603  0.4535 -0.1691 -0.3340
  125MOL   O16230170   0.171   2.458   0.586 -0.4704 -0.2699  0.7124
  125MOL   O16330171   0.127   2.249   0.524  0.1174  0.3427 -0.4422
  125MOL   H16430172   0.335   2.083   0.693 -0.0266 -0.5448  1.9394
  125MOL   H16530173   0.412   2.183   0.804  1.0185  1.5533 -0.5404
  125MOL   H16630174   0.215   2.479   0.816  1.1748  0.9494  2.7103
  125MOL   H16730175   0.371   2.422   0.821  0.2092 -0.9177 -0.7301
  125MOL   H16830176   0.248   2.352   0.936 -0.0702 -0.5258  0.2506
  125MOL   H16930177   0.099   2.287   0.442 -0.2410  3.0009  0.8643
  125MOL   C17030178   0.135   2.173   0.812  0.3842 -0.5157  0.0287
  125MOL   C17130179   7.745   2.193   0.846  0.0298 -0.4184  0.1239
  125MOL   C17230180   7.712   2.079   0.937  0.7757  0.9540 -0.1483
  125MOL   C17330181   7.717   2.323   0.916  0.0534 -0.2805 -0.4571
  125MOL   O17430182   7.744   2.438   0.871  0.1080  0.2006  0.2812
  125MOL   O17530183   7.655   2.310   1.035 -0.6592  0.1809  0.6201
  125MOL   H17630184   0.143   2.080   0.756 -1.0177 -0.7040  0.1277
  125MOL   H17730185   0.187   2.151   0.906 -0.3370  0.6354  0.7182
  125MOL   H17830186   7.720   1.978   0.898 -1.3974  0.4550  0.6125
  125MOL   H17930187   7.604   2.068   0.946  0.8959 -0.7137 -0.7185
  125MOL   H18030188   7.765   2.076   1.033  1.2076  0.9920 -0.3858
  125MOL   H18130189   7.623   2.394   1.065 -1.4437 -0.5542  1.9363
  125MOL   C18230190   7.643   2.169   0.721 -0.0630  0.3198  0.1994
  125MOL   C18330191   7.496   2.234   0.690  0.3067 -0.0466 -0.0199
  125MOL   C18430192   7.393   2.175   0.797  0.6354 -0.0833  0.5837
  125MOL   C18530193   7.495   2.386   0.700 -0.0451 -0.6040 -0.2049
  125MOL   O18630194   7.413   2.457   0.762 -0.4327 -0.8510 -0.3643
  125MOL   O18730195   7.589   2.445   0.621 -0.2046 -0.1190  0.3999
  125MOL   H18830196   7.691   2.202   0.629 -0.1661 -1.1008 -0.3752
  125MOL   H18930197   7.621   2.062   0.714 -0.1327  0.2866  0.8616
  125MOL   H19030198   7.291   2.199   0.768  1.3198  2.2641 -0.0381
  125MOL   H19130199   7.399   2.210   0.900  0.4358 -0.5774  0.7643
  125MOL   H19230200   7.385   2.066   0.796  1.1544 -0.1280  0.8840
  125MOL   H19330201   7.584   2.539   0.624  0.8867 -0.0635  0.6017
  125MOL   C19430202   7.446   2.188   0.547 -0.5279 -0.4700 -0.0375
  125MOL   C19530203   7.349   2.263   0.451 -0.1982  0.4458 -0.1152
  125MOL   C19630204   7.217   2.288   0.528  0.6371  0.0687 -0.2131
  125MOL   C19730205   7.402   2.397   0.407  0.5535 -0.3079  0.2910
  125MOL   O19830206   7.335   2.500   0.416  0.2845 -0.1193 -0.1652
  125MOL   O19930207   7.531   2.395   0.357  1.1973  0.1263  0.1694
  125MOL   H20030208   7.536   2.175   0.487  0.9874 -1.5482  2.3869
  125MOL   H20130209   7.417   2.084   0.563 -1.3067 -0.4413 -1.1759
  125MOL   H20230210   7.186   2.190   0.563  0.7041 -1.1331 -3.2931
  125MOL   H20330211   7.136   2.318   0.460  0.7631 -0.7277 -0.7137
  125MOL   H20430212   7.226   2.352   0.615 -0.4978 -1.4734  1.0560
  125MOL   H20530213   7.559   2.486   0.355  0.1164  0.4487 -1.5209
  125MOL   C20630214   7.335   2.158   0.335  0.6292 -0.2528  0.0814
  125MOL   C20730215   7.232   2.180   0.220  0.9911 -0.0008  0.1522
  125MOL   C20830216   7.256   2.064   0.123  0.1329 -0.0177  0.2769
  125MOL   C20930217   7.079   2.157   0.264 -0.2954  0.9157 -0.0532
  125MOL   O21030218   6.992   2.241   0.258 -0.0274  0.4591  0.0921
  125MOL   O21130219   7.073   2.039   0.337 -0.3778 -0.4989  0.1962
  125MOL   H21230220   7.434   2.151   0.291  1.1242  1.0366  0.9823
  125MOL   H21330221   7.318   2.056   0.369  2.0660 -1.0285 -1.4540
  125MOL   H21430222   7.269   1.968   0.174  2.1822 -0.1847 -0.4965
  125MOL   H21530223   7.348   2.081   0.067 -0.3754  1.0342 -0.2561
  125MOL   H21630224   7.178   2.052   0.049 -1.2655  2.1917  1.3391
  125MOL   H21730225   6.984   2.011   0.355 -1.0723  1.0476 -0.7453
  125MOL   C21830226   7.255   2.315   0.152  0.5496  0.5161  0.2286
  125MOL   C21930227   7.215   2.358   7.766 -0.0012 -0.5082  0.9480
  125MOL   C22030228   7.304   2.279   7.665 -0.3189  0.0377 -0.1886
  125MOL   C22130229   7.065   2.336   7.745 -0.5283  0.3774 -0.5667
  125MOL   O22230230   7.019   2.236   7.683  0.1548  0.6021 -0.2050
  125MOL   O22330231   6.979   2.418   0.049  0.2122  0.1152 -0.6152
  125MOL   H22430232   7.207   2.387   0.218 -0.6437  0.1440 -0.2285
  125MOL   H22530233   7.362   2.336   0.152  0.6734  0.1516 -2.8597
  125MOL   H22630234   7.304   2.318   7.563  2.5446 -1.9126 -0.9853
  125MOL   H22730235   7.258   2.181   7.651 -0.1194 -0.4046  2.0748
  125MOL   H22830236   7.404   2.267   7.706  0.6116  3.3601 -1.3114
  125MOL   H22930237   6.890   2.389   0.062  0.9694 -2.1099 -0.2582
  125MOL   C23030238   7.242   2.508   7.744  0.3911 -0.2520  0.2715
  125MOL   C23130239   7.186   2.594   7.626  0.2257 -0.2924 -0.5146
  125MOL   C23230240   7.240   2.736   7.646 -0.2997 -0.0576 -0.0960
  125MOL   C23330241   7.213   2.544   7.481  0.0685 -0.8942 -0.3558
  125MOL   O23430242   7.307   2.576   7.411 -0.0575 -0.2183  0.1174
  125MOL   O23530243   7.118   2.455   7.437 -0.3175 -1.1570  0.7535
  125MOL   H23630244   7.215   2.560   0.068 -1.8830 -0.6761 -0.1500
  125MOL   H23730245   7.351   2.516   7.741  0.2356  2.1919  0.3762
  125MOL   H23830246   7.218   2.785   7.551 -0.6195 -0.3316 -0.1650
  125MOL   H23930247   7.349   2.727   7.654 -0.1455  2.4592  1.1216
  125MOL   H24030248   7.189   2.792   7.724 -0.9445  0.8820 -1.1716
  125MOL   H24130249   7.140   2.414   7.355  1.2489 -0.5440  0.8532
  125MOL   H24230250   7.079   2.597   7.646  0.2354 -2.1964  0.0031
  126MOL     C130251   4.504   2.047   2.573 -0.0474  0.0817 -0.1000
  126MOL     C230252   4.468   1.953   2.692 -0.3769  0.1045 -0.1310
  126MOL     C330253   4.324   1.980   2.734  0.2326  0.3231 -0.7997
  126MOL     C430254   4.477   1.802   2.638 -0.1362  0.5410 -0.7011
  126MOL     O530255   4.384   1.731   2.614 -0.0225 -0.3538  0.0494
  126MOL     O630256   4.603   1.771   2.601 -0.1640 -0.2508  0.1408
  126MOL     H730257   4.612   2.045   2.560 -0.0004  4.5836 -1.3393
  126MOL     H830258   4.480   2.151   2.599  1.3012  0.0278  1.4381
  126MOL     H930259   4.252   1.974   2.653 -0.2272  1.3809 -0.4828
  126MOL    H1030260   4.307   2.085   2.758 -0.3203  0.3406 -1.2606
  126MOL    H1130261   4.281   1.918   2.813 -1.1202  0.4504 -1.4161
  126MOL    H1230262   4.593   1.681   2.572 -0.7310 -0.0519 -0.2925
  126MOL    H1330263   4.455   2.022   2.479 -3.4644  0.9086  1.3573
  126MOL    C1430264   4.569   1.997   2.802  0.3261  1.1199  0.0750
  126MOL    C1530265   4.600   1.905   2.933  0.0904  0.3967  0.1262
  126MOL    C1630266   4.480   1.816   2.979  0.1037  0.5574  0.0549
  126MOL    C1730267   4.724   1.814   2.906  0.4125  0.1561  0.3677
  126MOL    O1830268   4.793   1.808   2.805  0.2239  0.2217  0.3430
  126MOL    O1930269   4.758   1.734   3.013 -0.6610  0.1184 -0.4243
  126MOL    H2030270   4.663   2.035   2.760  0.8001 -0.6226 -0.4859
  126MOL    H2130271   4.515   2.085   2.835 -2.9448 -1.2769  1.3775
  126MOL    H2230272   4.453   1.736   2.910 -2.0001  1.0975  0.1945
  126MOL    H2330273   4.393   1.880   2.993  0.3457  0.9884 -0.4294
  126MOL    H2430274   4.489   1.774   3.080 -0.7924  2.1831  0.8267
  126MOL    H2530275   4.840   1.694   2.989  0.2598  1.2632  0.7403
  126MOL    C2630276   4.644   1.991   3.051 -0.0917  0.0140 -0.4094
  126MOL    C2730277   4.761   2.103   3.050 -0.1848  0.1366  1.1270
  126MOL    C2830278   4.885   2.072   2.952 -0.1980 -0.2977  0.5684
  126MOL    C2930279   4.701   2.241   3.002 -0.5505 -0.1442 -0.3382
  126MOL    O3030280   4.580   2.257   2.996 -0.0877 -0.0026  0.3301
  126MOL    O3130281   4.793   2.331   2.958 -0.3510 -0.5203 -0.4822
  126MOL    H3230282   4.553   2.038   3.088 -1.3401 -2.0883 -0.7357
  126MOL    H3330283   4.670   1.920   3.130  0.4215 -0.4257 -0.9699
  126MOL    H3430284   4.971   2.139   2.953 -0.0974 -0.4262  0.5339
  126MOL    H3530285   4.843   2.073   2.851  0.2124  1.9139  0.3866
  126MOL    H3630286   4.937   1.976   2.960 -0.6110 -0.4226  1.7763
  126MOL    H3730287   4.750   2.408   2.925  0.1430 -0.4455 -0.9552
  126MOL    C3830288   4.806   2.126   3.203 -0.2266  0.1443 -0.3520
  126MOL    C3930289   4.936   2.064   3.272 -0.3652 -0.3022  1.1052
  126MOL    C4030290   4.931   1.908   3.261 -0.2015 -0.2816 -0.1770
  126MOL    C4130291   5.069   2.121   3.220  0.0909  0.8357 -0.1606
  126MOL    O4230292   5.160   2.048   3.173  0.2288 -0.0037 -0.6658
  126MOL    O4330293   5.073   2.260   3.223 -0.4566  0.2309 -0.3139
  126MOL    H4430294   4.800   2.233   3.225 -1.8080  0.4538 -2.1708
  126MOL    H4530295   4.722   2.084   3.258  0.0603 -1.9065 -1.4349
  126MOL    H4630296   4.836   1.867   3.296 -1.2552 -1.2636 -3.9223
  126MOL    H4730297   5.018   1.864   3.311 -0.2905 -0.8142 -0.4889
  126MOL    H4830298   4.944   1.888   3.155  2.1132  2.2114 -0.4095
  126MOL    H4930299   5.141   2.293   3.166 -1.1725  0.7950 -0.8455
  126MOL    C5030300   4.925   2.108   3.426  0.1868 -0.7707  0.4220
  126MOL    C5130301   4.992   2.041   3.557 -0.4687  0.5398 -0.5283
  126MOL    C5230302   4.961   2.140   3.659  0.2944 -0.2554  0.3192
  126MOL    C5330303   4.915   1.907   3.583  0.0290  1.4612 -0.1935
  126MOL    O5430304   4.970   1.798   3.560 -0.5063 -0.2110  0.3663
  126MOL    O5530305   4.786   1.915   3.610 -0.8960  0.0093  1.1289
  126MOL    H5630306   4.930   2.217   3.426 -1.0427 -0.6285 -4.3526
  126MOL    H5730307   4.819   2.101   3.451  0.0511  3.3250  1.2861
  126MOL    H5830308   5.022   2.230   3.662 -1.7425  1.1449  0.7372
  126MOL    H5930309   4.970   2.100   3.760  3.9672 -1.1744 -0.2962
  126MOL    H6030310   4.856   2.169   3.652  0.3067 -0.6496 -1.8140
  126MOL    H6130311   4.752   1.827   3.617  0.2297 -0.2283  4.4146
  126MOL    C6230312   5.148   2.022   3.542  0.2521 -0.3819 -0.1111
  126MOL    C6330313   5.249   1.970   3.657 -0.0349  0.5409 -0.6540
  126MOL    C6430314   5.206   2.019   3.800 -0.0783 -0.3381  0.4096
  126MOL    C6530315   5.257   1.809   3.665 -0.1181 -0.6186  0.3777
  126MOL    O6630316   5.253   1.736   3.765  0.3023 -0.0014 -0.1299
  126MOL    O6730317   5.269   1.753   3.544  0.4697 -0.3569  0.2508
  126MOL    H6830318   5.161   1.965   3.451 -3.0515 -2.1825  0.4653
  126MOL    H6930319   5.181   2.122   3.513  1.2054 -0.3224  1.1465
  126MOL    H7030320   5.279   1.986   3.874  0.6984 -1.7529 -0.9650
  126MOL    H7130321   5.112   1.985   3.841 -2.0501  2.1814 -1.8218
  126MOL    H7230322   5.209   2.128   3.808 -3.9630  0.0746 -2.1894
  126MOL    H7330323   5.273   1.661   3.566 -0.8748 -0.3465  0.5810
  126MOL    C7430324   5.394   2.031   3.638  0.0257  0.0454  0.5993
  126MOL    C7530325   5.500   1.994   3.524  0.1830 -0.1502  0.2937
  126MOL    C7630326   5.570   1.854   3.549  0.5115  0.2553 -0.5433
  126MOL    C7730327   5.426   1.999   3.389 -0.9449  0.2284 -0.6108
  126MOL    O7830328   5.423   1.901   3.315 -0.3975 -0.2349  0.4552
  126MOL    O7930329   5.379   2.124   3.358  0.0694  0.4562 -0.2939
  126MOL    H8030330   5.371   2.137   3.637 -0.9077 -0.1579  0.2344
  126MOL    H8130331   5.438   2.003   3.734 -1.8101 -4.4213  0.2659
  126MOL    H8230332   5.609   1.843   3.650 -1.1496  1.0949  0.2080
  126MOL    H8330333   5.650   1.829   3.479 -1.4147 -3.1419 -1.6091
  126MOL    H8430334   5.520   1.760   3.525 -0.6127  0.5612  0.5632
  126MOL    H8530335   5.338   2.111   3.274  1.7544  0.5469 -1.1719
  126MOL    C8630336   5.607   2.105   3.535 -0.2969 -0.1201  0.4603
  126MOL    C8730337   5.744   2.123   3.450 -0.2475  0.3485 -0.4382
  126MOL    C8830338   5.728   2.101   3.298 -0.6924  0.1108  0.9502
  126MOL    C8930339   5.770   2.276   3.475  0.0885 -0.2398  0.0953
  126MOL    O9030340   5.746   2.328   3.584  0.0307 -0.0138  0.4937
  126MOL    O9130341   5.784   2.347   3.365  0.3548  0.1324  0.1124
  126MOL    H9230342   5.543   2.193   3.535 -1.5811 -1.0369 -0.4483
  126MOL    H9330343   5.633   2.098   3.641 -1.1226  0.6493  0.7104
  126MOL    H9430344   5.714   1.996   3.273  0.5949 -0.2481  1.6555
  126MOL    H9530345   5.815   2.139   3.243 -0.0746 -1.2016  1.0134
  126MOL    H9630346   5.635   2.151   3.269 -1.8839 -1.1115  2.6020
  126MOL    H9730347   5.801   2.438   3.385 -2.7058  0.7142  0.1888
  126MOL    C9830348   5.854   2.030   3.515 -0.2473 -0.8879  0.5846
  126MOL    C9930349   6.007   2.073   3.517 -0.6418  0.1669 -0.5918
  126MOL   C10030350   6.037   2.194   3.618  0.6301  0.5251  0.4321
  126MOL   C10130351   6.079   1.945   3.564  1.0087 -0.5633 -0.5547
  126MOL   O10230352   6.120   1.930   3.676 -0.2594 -0.0721  0.7194
  126MOL   O10330353   6.082   1.848   3.471  0.1351 -0.2708  0.5378
  126MOL   H10430354   5.821   2.016   3.618  2.1558 -1.0398  1.3609
  126MOL   H10530355   5.846   1.930   3.473 -1.3106 -0.4080 -0.3892
  126MOL   H10630356   5.976   2.173   3.707  0.8942 -1.1899  0.2315
  126MOL   H10730357   6.014   2.293   3.579  2.2118  0.9873  0.6422
  126MOL   H10830358   6.141   2.196   3.651  1.6810  0.8007 -2.7241
  126MOL   H10930359   6.129   1.774   3.506 -1.1441 -1.0637  0.6247
  126MOL   C11030360   6.061   2.116   3.375  0.2055  0.7075  0.0761
  126MOL   C11130361   6.208   2.138   3.325 -0.1168  0.5218  0.0149
  126MOL   C11230362   6.195   2.237   3.209 -0.4084 -0.5418 -0.0003
  126MOL   C11330363   6.285   2.196   3.446 -0.3297  0.6146  0.1826
  126MOL   O11430364   6.299   2.320   3.451  0.0610 -0.0908  0.8584
  126MOL   O11530365   6.350   2.111   3.524  0.0684 -0.2408 -0.4690
  126MOL   H11630366   6.029   2.040   3.303 -1.4206  0.9573  0.5382
  126MOL   H11730367   6.008   2.207   3.349 -0.2262 -0.5207 -3.8134
  126MOL   H11830368   6.287   2.275   3.163 -0.8120  1.5909  0.8677
  126MOL   H11930369   6.139   2.326   3.239  0.1717 -0.7325  1.6629
  126MOL   H12030370   6.127   2.192   3.136  2.1332 -1.8683 -1.6323
  126MOL   H12130371   6.390   2.145   3.603 -1.3906 -0.7325  0.5047
  126MOL   C12230372   6.269   2.000   3.283  0.7675  0.2679  0.3965
  126MOL   C12330373   6.388   1.981   3.176  0.0569 -0.1796 -0.0422
  126MOL   C12430374   6.322   1.999   3.039 -0.6070  0.2232  0.3877
  126MOL   C12530375   6.500   2.080   3.213  0.0128 -0.7505  0.2985
  126MOL   O12630376   6.576   2.063   3.302  0.0711 -0.0742  0.4318
  126MOL   O12730377   6.508   2.186   3.132 -0.0611 -0.0585 -0.2074
  126MOL   H12830378   6.312   1.950   3.370  0.8422  1.2993  0.9685
  126MOL   H12930379   6.195   1.922   3.266  1.2692  0.3311 -2.1996
  126MOL   H13030380   6.266   2.092   3.029 -3.3996 -1.4218  0.3119
  126MOL   H13130381   6.261   1.911   3.021  0.8458 -0.4777 -1.2600
  126MOL   H13230382   6.395   2.002   2.958 -0.6883  0.4429  0.3245
  126MOL   H13330383   6.582   2.236   3.162  0.0337 -1.4668  1.9817
  126MOL   C13430384   6.437   1.824   3.177 -0.1840  0.7143 -0.0274
  126MOL   C13530385   6.513   1.746   3.067  0.3536  0.1273 -0.2245
  126MOL   C13630386   6.403   1.711   2.957 -1.1861  0.0596 -0.1591
  126MOL   C13730387   6.632   1.822   3.006 -0.4628 -0.1963  0.1824
  126MOL   O13830388   6.653   1.823   2.887  0.2931 -0.0554 -0.1904
  126MOL   O13930389   6.711   1.881   3.097 -0.0059  0.4684  0.4513
  126MOL   H14030390   6.501   1.820   3.265 -0.2574  0.3247  0.0086
  126MOL   H14130391   6.353   1.765   3.212 -0.3283  0.2528 -1.1358
  126MOL   H14230392   6.436   1.623   2.902 -0.1889 -0.2844  0.9540
  126MOL   H14330393   6.395   1.790   2.882  1.2642  0.5010  0.0029
  126MOL   H14430394   6.307   1.689   3.004 -1.4134  0.1312 -0.5837
  126MOL   H14530395   6.789   1.917   3.056  0.5196 -3.1165 -1.9097
  126MOL   C14630396   6.574   1.615   3.141  0.6065  0.3973 -0.7545
  126MOL   C14730397   6.512   1.521   3.253  0.2483  0.5497 -0.4150
  126MOL   C14830398   6.528   1.596   3.385 -0.0246 -0.0298 -0.7099
  126MOL   C14930399   6.365   1.496   3.223  0.5966  0.2646  0.6101
  126MOL   O15030400   6.278   1.516   3.307  0.1862 -0.0849 -0.1881
  126MOL   O15130401   6.344   1.450   3.098  0.0389  0.1084 -0.3909
  126MOL   H15230402   6.596   1.553   3.054  1.8681 -0.5305  0.2005
  126MOL   H15330403   6.669   1.650   3.182 -0.3530  1.3167  0.7411
  126MOL   H15430404   6.566   1.526   3.459  0.4795 -1.0078 -1.8860
  126MOL   H15530405   6.435   1.641   3.421  0.3402  0.3943 -0.2948
  126MOL   H15630406   6.604   1.674   3.390  0.1916 -0.3178  0.5892
  126MOL   H15730407   6.250   1.448   3.094 -0.1010  2.1039  0.9423
  126MOL   C15830408   6.588   1.387   3.234  0.3167  0.0587  0.8774
  126MOL   C15930409   6.561   1.248   3.319 -0.5388 -0.4784  0.8906
  126MOL   C16030410   6.693   1.166   3.307 -0.1399  0.0316 -0.3251
  126MOL   C16130411   6.540   1.282   3.466  0.2278  0.4226 -0.7052
  126MOL   O16230412   6.625   1.253   3.549  0.0389  0.3810  0.3505
  126MOL   O16330413   6.420   1.331   3.493  0.4997 -0.3360  0.1815
  126MOL   H16430414   6.584   1.368   3.127 -0.9004  0.2861  0.8759
  126MOL   H16530415   6.693   1.414   3.247  0.5468 -0.5295  0.3128
  126MOL   H16630416   6.692   1.084   3.380 -0.5308 -1.4815 -1.9920
  126MOL   H16730417   6.780   1.220   3.345  0.6023 -0.0453 -1.8931
  126MOL   H16830418   6.737   1.126   3.216  0.8301 -0.1097  0.2002
  126MOL   H16930419   6.429   1.332   3.587 -1.6699 -0.1655  0.4037
  126MOL   C17030420   6.428   1.176   3.256 -0.2410  0.0665 -0.3526
  126MOL   C17130421   6.361   1.044   3.290  0.0163  0.4751 -0.5144
  126MOL   C17230422   6.248   1.027   3.186  0.1587  0.4235  0.9518
  126MOL   C17330423   6.466   0.930   3.271  0.3254 -0.1578  0.6652
  126MOL   O17430424   6.506   0.860   3.365  0.0741  0.1329  0.5111
  126MOL   O17530425   6.484   0.896   3.144  0.4560 -0.1627  0.3406
  126MOL   H17630426   6.346   1.244   3.280 -1.6739 -1.7981  0.1523
  126MOL   H17730427   6.447   1.180   3.149  1.1594  1.2260 -0.0826
  126MOL   H17830428   6.222   0.922   3.168  0.1952  0.6595 -0.5804
  126MOL   H17930429   6.285   1.062   3.090 -1.5693 -2.2023 -0.7568
  126MOL   H18030430   6.165   1.093   3.211  0.0025  0.3250  0.6942
  126MOL   H18130431   6.529   0.814   3.151 -1.9360 -1.4258  1.5542
  126MOL   C18230432   6.300   1.043   3.433  0.6956 -0.1812 -0.0187
  126MOL   C18330433   6.178   0.951   3.486 -0.4465  0.0341 -0.5242
  126MOL   C18430434   6.041   1.023   3.443  0.1412  0.1342  0.2885
  126MOL   C18530435   6.166   0.800   3.449  0.8390  0.6780  0.0884
  126MOL   O18630436   6.253   0.730   3.393  0.2836 -0.2317  0.0551
  126MOL   O18730437   6.042   0.757   3.488 -0.3376  0.0637 -0.3717
  126MOL   H18830438   6.381   1.050   3.506  1.8013  0.0148 -1.2394
  126MOL   H18930439   6.264   1.144   3.451 -0.2498 -0.2065 -1.6780
  126MOL   H19030440   6.058   1.126   3.412 -1.2514  0.1964 -0.2757
  126MOL   H19130441   5.972   1.024   3.528 -0.1616 -2.8480  0.1237
  126MOL   H19230442   5.993   0.971   3.361 -1.1028 -1.5720  2.0549
  126MOL   H19330443   6.030   0.664   3.474  1.3374 -0.1029 -0.7726
  126MOL   C19430444   6.186   0.964   3.648  0.5344  0.0686  0.5662
  126MOL   C19530445   6.285   0.888   3.751 -0.3111 -0.4523  0.2123
  126MOL   C19630446   6.286   0.976   3.878  0.4492 -0.3279 -0.8987
  126MOL   C19730447   6.230   0.750   3.803  0.3800 -0.3351  0.6017
  126MOL   O19830448   6.168   0.738   3.905 -0.3207  0.6170 -0.1650
  126MOL   O19930449   6.262   0.647   3.725 -0.3000  0.1074  0.2945
  126MOL   H20030450   6.206   1.070   3.659 -0.9492  0.5275 -0.9069
  126MOL   H20130451   6.083   0.956   3.683 -0.0293 -1.0048 -1.2691
  126MOL   H20230452   6.362   0.940   3.948  1.4416 -0.0602 -1.8282
  126MOL   H20330453   6.188   0.969   3.926  1.6314  0.3406  1.6915
  126MOL   H20430454   6.310   1.081   3.858 -0.7066 -0.2334 -1.8510
  126MOL   H20530455   6.236   0.568   3.770 -1.2130  0.3788  0.2630
  126MOL   C20630456   6.434   0.887   3.694  0.5981 -0.0617  0.5793
  126MOL   C20730457   6.561   0.799   3.731 -0.4575  0.5175  0.0061
  126MOL   C20830458   6.583   0.809   3.881  0.0082 -0.2015  0.7213
  126MOL   C20930459   6.537   0.648   3.688 -0.1309  0.1089  0.0511
  126MOL   O21030460   6.541   0.553   3.768 -0.4841 -0.4044 -0.1828
  126MOL   O21130461   6.523   0.626   3.560  0.0235  0.4942  0.2605
  126MOL   H21230462   6.415   0.861   3.590 -0.1158  0.7718  0.4976
  126MOL   H21330463   6.460   0.993   3.698 -1.1022  0.4562 -0.9522
  126MOL   H21430464   6.589   0.910   3.920  0.2989 -0.3873  1.1590
  126MOL   H21530465   6.678   0.767   3.915  0.6732  1.4777  0.9894
  126MOL   H21630466   6.511   0.744   3.932 -1.4830  1.0124  0.2008
  126MOL   H21730467   6.500   0.699   3.505  2.6227 -0.1913 -1.8381
  126MOL   C21830468   6.684   0.866   3.649 -0.3626  0.1438  0.1766
  126MOL   C21930469   6.825   0.791   3.621  0.3561  0.4982  0.8044
  126MOL   C22030470   6.815   0.680   3.502  0.4070 -1.3515 -0.4573
  126MOL   C22130471   6.913   0.910   3.571 -0.1998 -0.0145 -0.5086
  126MOL   O22230472   6.939   0.929   3.454 -0.6344 -0.5241  0.1716
  126MOL   O22330473   6.941   0.998   3.670 -0.3119 -0.4760  0.1990
  126MOL   H22430474   6.638   0.897   3.555  0.5801  1.5250  0.1520
  126MOL   H22530475   6.704   0.957   3.706  2.4864 -0.5500  0.3401
  126MOL   H22630476   6.906   0.679   3.442  1.0219  1.6157  0.3134
  126MOL   H22730477   6.733   0.691   3.432  0.4912 -0.3135 -0.4050
  126MOL   H22830478   6.796   0.577   3.532 -1.8133 -0.8027  0.1258
  126MOL   H22930479   6.987   1.076   3.643  0.6512 -1.3889 -0.8715
  126MOL   C23030480   6.898   0.726   3.744 -0.0179  0.3104 -0.3301
  126MOL   C23130481   7.035   0.667   3.735  0.4689  0.1274 -0.2659
  126MOL   C23230482   7.100   0.671   3.877 -0.2005  0.1345 -0.1338
  126MOL   C23330483   7.029   0.522   3.696 -0.3013  0.5572 -0.2945
  126MOL   O23430484   6.993   0.434   3.777  0.2224 -0.3946 -0.1335
  126MOL   O23530485   7.055   0.493   3.567  0.2579  0.6933  0.2144
  126MOL   H23630486   6.892   0.801   3.823 -0.6857  0.8462 -0.8823
  126MOL   H23730487   6.824   0.650   3.769  0.8069 -0.2082  0.5430
  126MOL   H23830488   7.037   0.629   3.955 -0.6778 -0.0091 -0.5936
  126MOL   H23930489   7.115   0.772   3.914  0.8775  0.4477 -1.3873
  126MOL   H24030490   7.194   0.619   3.858  0.3124  1.2377 -0.6657
  126MOL   H24130491   7.052   0.402   3.542 -0.9560  0.6353  0.5206
  126MOL   H24230492   7.105   0.716   3.668  0.3435 -0.1494 -0.6025
  127MOL     C130493   1.890   4.767   2.986 -1.0249  0.1699 -0.0352
  127MOL     C230494   1.953   4.628   3.025  0.3174 -0.2346  0.2682
  127MOL     C330495   2.083   4.651   3.102  0.3428  0.0955  0.4385
  127MOL     C430496   1.859   4.558   3.133  0.0229  0.1616 -0.7605
  127MOL     O530497   1.895   4.474   3.217  0.3258 -0.0513  0.1608
  127MOL     O630498   1.733   4.619   3.136  0.2964  0.5030  0.0700
  127MOL     H730499   1.898   4.840   3.067 -1.2381  0.9667 -0.7212
  127MOL     H830500   1.783   4.768   2.964 -0.5572 -0.1252 -2.4154
  127MOL     H930501   2.059   4.701   3.196 -1.0257 -1.7350  1.0758
  127MOL    H1030502   2.142   4.718   3.039  1.0877  0.0019  1.0224
  127MOL    H1130503   2.148   4.566   3.122 -0.2571 -0.8996 -1.7714
  127MOL    H1230504   1.689   4.583   3.211  0.9036  1.7086  1.0324
  127MOL    H1330505   1.944   4.814   2.904 -1.1898 -0.4512 -0.5000
  127MOL    C1430506   2.002   4.534   2.914 -0.1038  0.2120  0.2199
  127MOL    C1530507   1.926   4.495   2.778  0.0110 -0.5266  0.0841
  127MOL    C1630508   1.775   4.474   2.818  0.4679  0.6559 -0.7113
  127MOL    C1730509   1.929   4.611   2.678  0.5584  0.3265  0.9489
  127MOL    O1830510   2.011   4.704   2.668  0.4195  1.0079  0.1111
  127MOL    O1930511   1.812   4.615   2.602 -0.2682 -0.2033  0.5730
  127MOL    H2030512   2.095   4.579   2.877  0.5413 -1.4075 -0.1683
  127MOL    H2130513   2.036   4.446   2.968  2.1837  1.9866  1.7701
  127MOL    H2230514   1.768   4.427   2.916 -2.0621 -0.4045 -1.3542
  127MOL    H2330515   1.715   4.426   2.740  0.0242  0.5814 -0.3311
  127MOL    H2430516   1.714   4.564   2.828  0.8627  0.8536 -0.0646
  127MOL    H2530517   1.805   4.697   2.555 -1.8994 -1.7358 -2.0149
  127MOL    C2630518   1.969   4.361   2.709 -0.0461  0.3559 -0.5613
  127MOL    C2730519   2.126   4.330   2.669  0.9861 -0.6453 -0.4799
  127MOL    C2830520   2.181   4.430   2.561 -0.1988 -0.2131 -0.3514
  127MOL    C2930521   2.216   4.332   2.793 -0.2204  0.3461  0.6939
  127MOL    O3030522   2.224   4.238   2.869  0.6215  0.4425  0.3370
  127MOL    O3130523   2.290   4.448   2.801 -0.1855  0.0117 -0.5549
  127MOL    H3230524   1.929   4.286   2.777  3.8414  0.1506  1.6478
  127MOL    H3330525   1.910   4.342   2.619 -0.1767  0.1220 -0.4275
  127MOL    H3430526   2.125   4.417   2.469 -0.1267 -1.3670 -0.2469
  127MOL    H3530527   2.287   4.411   2.539 -0.1195 -0.8846  0.5412
  127MOL    H3630528   2.169   4.534   2.589 -0.1381 -0.2217 -0.2909
  127MOL    H3730529   2.340   4.432   2.879 -2.6802 -0.6472  0.9542
  127MOL    C3830530   2.118   4.187   2.618  0.5883 -0.1308  0.8151
  127MOL    C3930531   2.230   4.106   2.533  0.7304  0.0498 -0.2600
  127MOL    C4030532   2.370   4.112   2.606 -0.1622  0.6627  0.1076
  127MOL    C4130533   2.169   3.962   2.539  0.1643  0.0147  0.7701
  127MOL    O4230534   2.074   3.929   2.470 -0.1163  0.3244  0.6757
  127MOL    O4330535   2.226   3.881   2.627 -0.0845 -0.0066  0.3094
  127MOL    H4430536   2.079   4.130   2.702 -3.0530  1.9822  0.6564
  127MOL    H4530537   2.035   4.182   2.547  1.7709 -0.4495 -0.5882
  127MOL    H4630538   2.357   4.086   2.712 -2.1503  0.8435 -0.0716
  127MOL    H4730539   2.398   4.217   2.603 -0.1038  0.6345 -0.2610
  127MOL    H4830540   2.452   4.047   2.575  0.6101  1.1940  1.0215
  127MOL    H4930541   2.178   3.800   2.635 -0.8300  0.3165 -0.8231
  127MOL    C5030542   2.225   4.153   2.377 -0.0450  0.4454 -0.1023
  127MOL    C5130543   2.332   4.111   2.267  0.4476  0.6161  0.9926
  127MOL    C5230544   2.248   4.128   2.130  0.4867 -0.1087  0.7508
  127MOL    C5330545   2.448   4.207   2.274  0.3189 -0.0704 -0.1252
  127MOL    O5430546   2.492   4.257   2.378 -0.0325 -0.4439 -0.6290
  127MOL    O5530547   2.506   4.240   2.159  0.1040  0.3106 -0.2992
  127MOL    H5630548   2.124   4.137   2.342 -0.1451  0.4873  0.1632
  127MOL    H5730549   2.236   4.261   2.370  1.6536  0.2927 -0.0311
  127MOL    H5830550   2.303   4.157   2.040 -2.8269 -0.5312 -1.5200
  127MOL    H5930551   2.174   4.207   2.140 -3.6331 -3.2383 -2.9124
  127MOL    H6030552   2.184   4.041   2.121  0.4301 -0.1326  1.3757
  127MOL    H6130553   2.571   4.304   2.185  2.1541 -2.0299  0.6426
  127MOL    C6230554   2.383   3.965   2.281 -0.0670 -0.6752  0.0048
  127MOL    C6330555   2.486   3.881   2.194  0.1248 -0.3536  0.3641
  127MOL    C6430556   2.437   3.873   2.044  0.6069 -0.6641 -0.5606
  127MOL    C6530557   2.623   3.938   2.200 -0.3841  0.1175 -0.4468
  127MOL    O6630558   2.666   4.000   2.102 -0.5024  0.1527 -0.4156
  127MOL    O6730559   2.680   3.914   2.322  0.2786 -0.1710  0.2204
  127MOL    H6830560   2.427   3.954   2.380 -0.5008 -2.9734 -0.0334
  127MOL    H6930561   2.300   3.896   2.296 -1.7054  1.2555  0.0148
  127MOL    H7030562   2.517   3.825   1.987  1.9829  0.5008  0.3474
  127MOL    H7130563   2.422   3.966   1.989 -0.6765  1.0410  2.5671
  127MOL    H7230564   2.357   3.800   2.051 -0.4131  0.5743  0.9553
  127MOL    H7330565   2.761   3.962   2.331  0.7010 -1.1629  1.8367
  127MOL    C7430566   2.492   3.731   2.265 -0.1894 -0.3059 -0.3954
  127MOL    C7530567   2.554   3.598   2.208 -0.4049  0.2991  0.9824
  127MOL    C7630568   2.454   3.536   2.105  0.3279  0.2270  0.1252
  127MOL    C7730569   2.688   3.634   2.133  0.5957 -0.4111  0.4212
  127MOL    O7830570   2.694   3.625   2.016  0.1797  0.2796 -0.0375
  127MOL    O7930571   2.790   3.670   2.211  0.5175  0.5343  0.7002
  127MOL    H8030572   2.529   3.740   2.367 -0.1370  1.1237 -0.5220
  127MOL    H8130573   2.394   3.699   2.299 -0.0995  1.2000  1.3807
  127MOL    H8230574   2.351   3.554   2.134 -0.6797  1.0738 -3.6863
  127MOL    H8330575   2.461   3.428   2.091  0.9045  0.2482  0.2229
  127MOL    H8430576   2.450   3.567   2.000 -0.5993 -1.0811 -0.2287
  127MOL    H8530577   2.855   3.703   2.151 -0.9729  0.0834 -1.2299
  127MOL    C8630578   2.584   3.496   2.333  0.2104 -0.1391 -0.1820
  127MOL    C8730579   2.650   3.349   2.323 -0.1750 -0.0236 -0.3473
  127MOL    C8830580   2.769   3.339   2.224 -0.2506 -0.5162  0.2904
  127MOL    C8930581   2.717   3.321   2.459 -0.3377  0.4200  1.2102
  127MOL    O9030582   2.838   3.298   2.476 -0.4936 -0.0095 -0.3983
  127MOL    O9130583   2.625   3.320   2.557  0.8229 -0.4839 -0.3896
  127MOL    H9230584   2.625   3.562   2.409  2.3140 -0.1340 -1.2734
  127MOL    H9330585   2.487   3.478   2.380  0.5329 -3.3168 -0.6522
  127MOL    H9430586   2.847   3.415   2.226  0.4753 -1.2821  1.5973
  127MOL    H9530587   2.735   3.351   2.121  3.1945 -1.4329 -1.0327
  127MOL    H9630588   2.831   3.251   2.243 -1.0323 -0.4450  3.4995
  127MOL    H9730589   2.663   3.309   2.642  1.1749 -1.6340 -0.6811
  127MOL    C9830590   2.539   3.225   2.298 -0.0773 -0.1467  0.6337
  127MOL    C9930591   2.577   3.077   2.257  0.1110 -0.2091  0.2353
  127MOL   C10030592   2.627   3.082   2.109  0.0455  0.7213  0.7459
  127MOL   C10130593   2.672   3.017   2.358 -0.3321 -0.2748  0.4805
  127MOL   O10230594   2.786   2.970   2.334 -0.1250 -0.1033 -0.3181
  127MOL   O10330595   2.614   3.024   2.479  0.5772  0.2773 -0.4251
  127MOL   H10430596   2.478   3.223   2.388 -0.8346  2.0825  0.2204
  127MOL   H10530597   2.466   3.264   2.228 -0.0876 -4.5731 -1.9994
  127MOL   H10630598   2.598   3.168   2.049  2.9975  1.4998  0.3419
  127MOL   H10730599   2.589   3.002   2.046  0.9935 -0.8835  2.1551
  127MOL   H10830600   2.736   3.086   2.112  0.0549  0.3073  1.1528
  127MOL   H10930601   2.647   2.963   2.542 -1.2753 -0.2033  0.1243
  127MOL   C11030602   2.437   3.009   2.256 -0.0952  0.0453  0.0373
  127MOL   C11130603   2.422   2.851   2.249  0.0873 -0.1399  0.2077
  127MOL   C11230604   2.513   2.777   2.148  0.1408 -0.1261  0.2235
  127MOL   C11330605   2.447   2.778   2.386  0.6014 -0.7403  0.2997
  127MOL   O11430606   2.520   2.689   2.405  1.0032  0.1570  0.3607
  127MOL   O11530607   2.380   2.837   2.479 -0.3436 -0.0639 -0.3968
  127MOL   H11630608   2.389   3.030   2.352  1.6279 -1.1213  1.1764
  127MOL   H11730609   2.367   3.060   2.190 -1.6078 -0.3463  1.2831
  127MOL   H11830610   2.512   2.669   2.157  0.5420 -0.2219 -0.8289
  127MOL   H11930611   2.618   2.798   2.169  0.4658 -3.0650  1.6470
  127MOL   H12030612   2.484   2.803   2.046  0.5759  2.3557  0.6978
  127MOL   H12130613   2.406   2.822   2.569  2.1998  3.7375 -0.4011
  127MOL   C12230614   2.269   2.829   2.217 -0.1051 -0.1160 -0.4884
  127MOL   C12330615   2.196   2.794   2.078  0.4582  0.2946 -0.1974
  127MOL   C12430616   2.243   2.894   1.971  0.6595  0.6352  0.0490
  127MOL   C12530617   2.234   2.648   2.043 -0.1872  1.0632 -0.0647
  127MOL   O12630618   2.264   2.558   2.124 -0.3471  0.6445  0.3837
  127MOL   O12730619   2.212   2.622   1.913  0.4408  0.0756  0.5217
  127MOL   H12830620   2.236   2.750   2.284 -0.7745  1.0780  0.6178
  127MOL   H12930621   2.211   2.904   2.272 -0.5114 -0.0071 -1.0571
  127MOL   H13030622   2.181   2.983   1.958  0.2699  0.1754 -1.3662
  127MOL   H13130623   2.257   2.858   1.869 -2.3110  0.3630 -0.3072
  127MOL   H13230624   2.333   2.944   2.008 -0.6194  1.5452  2.0241
  127MOL   H13330625   2.237   2.532   1.898  0.9171  0.1616  0.7948
  127MOL   C13430626   2.040   2.809   2.101 -0.3566 -0.2343 -0.1552
  127MOL   C13530627   1.920   2.775   2.009 -0.1174  0.0363  0.4990
  127MOL   C13630628   1.937   2.858   1.884 -0.0752 -0.5739 -0.3510
  127MOL   C13730629   1.916   2.629   1.974  0.1036  1.0014 -0.0374
  127MOL   O13830630   1.955   2.546   2.054 -0.2944 -0.0982  0.3850
  127MOL   O13930631   1.843   2.607   1.863  0.3608  0.1198 -0.2913
  127MOL   H14030632   2.020   2.757   2.194 -0.1227 -0.9390 -0.4938
  127MOL   H14130633   2.029   2.915   2.127  0.3676  0.2603 -1.8104
  127MOL   H14230634   1.849   2.873   1.822  0.3074  1.0995 -0.5199
  127MOL   H14330635   2.016   2.810   1.826  0.9391 -0.5156  0.9374
  127MOL   H14430636   1.978   2.957   1.905 -0.8186 -0.5263  0.9008
  127MOL   H14530637   1.818   2.515   1.862  0.3825  0.0484  2.1727
  127MOL   C14630638   1.774   2.800   2.067  0.2199 -0.8311  0.5158
  127MOL   C14730639   1.741   2.922   2.164 -0.5447  0.0170 -0.4262
  127MOL   C14830640   1.590   2.909   2.185 -0.4929  0.1317  0.1604
  127MOL   C14930641   1.808   2.885   2.298  0.3966 -0.2136 -0.1863
  127MOL   O15030642   1.889   2.955   2.352  0.0931  0.4260  0.2489
  127MOL   O15130643   1.772   2.761   2.347  0.0496  0.1026 -0.3835
  127MOL   H15230644   1.714   2.814   1.977  2.2469  1.9400 -0.5022
  127MOL   H15330645   1.733   2.705   2.101  0.0327 -1.2163 -0.7811
  127MOL   H15430646   1.551   2.989   2.249 -0.2523 -1.6798  2.6527
  127MOL   H15530647   1.553   2.820   2.235  1.3503 -1.2790 -0.9065
  127MOL   H15630648   1.533   2.919   2.093  0.3729 -1.2544 -0.5419
  127MOL   H15730649   1.821   2.746   2.427 -0.8667  0.7602  0.3173
  127MOL   C15830650   1.784   3.063   2.105 -0.1641 -0.0745 -0.1586
  127MOL   C15930651   1.705   3.197   2.118  0.2240  0.7173  0.1123
  127MOL   C16030652   1.573   3.191   2.033 -0.5345  0.1357  0.1501
  127MOL   C16130653   1.662   3.233   2.261 -0.1826 -0.1050  0.2024
  127MOL   O16230654   1.690   3.166   2.363 -0.1386  0.6133  0.8682
  127MOL   O16330655   1.583   3.340   2.265 -0.0635  0.4040  0.5618
  127MOL   H16430656   1.874   3.085   2.163 -0.3067  2.0228 -0.6676
  127MOL   H16530657   1.798   3.055   1.998 -0.7828 -2.5471 -0.0828
  127MOL   H16630658   1.530   3.291   2.028  0.5591  0.5935 -0.2893
  127MOL   H16730659   1.492   3.129   2.072 -0.3717 -0.5405 -0.5669
  127MOL   H16830660   1.590   3.158   1.930  1.6479 -0.1045  0.5756
  127MOL   H16930661   1.548   3.339   2.353 -3.3456  0.0709 -0.6533
  127MOL   C17030662   1.784   3.315   2.058 -1.5152  0.0166 -0.5894
  127MOL   C17130663   1.930   3.363   2.119  0.4289  0.7382  1.2538
  127MOL   C17230664   2.042   3.267   2.061 -0.0641  0.0427 -0.7381
  127MOL   C17330665   1.954   3.508   2.065 -0.7911  0.5233 -0.3905
  127MOL   O17430666   2.045   3.546   1.994  0.0617 -0.3331 -0.1325
  127MOL   O17530667   1.861   3.594   2.111  0.1776 -0.3643 -0.1451
  127MOL   H17630668   1.801   3.301   1.951  3.2213  2.7511 -0.3621
  127MOL   H17730669   1.722   3.405   2.066  0.0691  1.1222 -0.4577
  127MOL   H17830670   2.045   3.180   2.127 -0.4455  0.6828  0.1267
  127MOL   H17930671   2.139   3.316   2.046 -0.4524  0.0276 -3.6994
  127MOL   H18030672   2.011   3.230   1.963  2.1523 -3.0565 -0.3551
  127MOL   H18130673   1.859   3.684   2.083 -3.0708  0.3726  2.1016
  127MOL   C18230674   1.938   3.352   2.276  1.0250  0.1693  0.1240
  127MOL   C18330675   2.053   3.414   2.363  0.8338 -0.3268  0.1078
  127MOL   C18430676   2.196   3.366   2.321  0.4983  0.0137 -0.1931
  127MOL   C18530677   2.053   3.566   2.371  0.0733 -0.3555  0.0338
  127MOL   O18630678   2.141   3.639   2.321  0.1221 -0.1218  0.2654
  127MOL   O18730679   1.940   3.615   2.425 -0.3815 -0.4415  0.5254
  127MOL   H18830680   1.854   3.409   2.317  2.7620  1.3741  2.1143
  127MOL   H18930681   1.922   3.248   2.303  2.2473 -0.5932 -1.9703
  127MOL   H19030682   2.194   3.257   2.315  1.1703  0.0167 -0.5053
  127MOL   H19130683   2.278   3.404   2.381  0.7068 -0.3237 -0.2643
  127MOL   H19230684   2.219   3.410   2.224 -1.1125  0.3758 -0.4388
  127MOL   H19330685   1.951   3.709   2.422  1.1995 -0.6284  0.2637
  127MOL   C19430686   2.038   3.362   2.507 -0.3384  0.1588 -0.2413
  127MOL   C19530687   2.121   3.406   2.642  0.5893 -0.1998  0.1226
  127MOL   C19630688   2.268   3.452   2.620 -0.0031  0.3063  0.1119
  127MOL   C19730689   2.051   3.535   2.704  0.1455  0.1294  0.0381
  127MOL   O19830690   2.101   3.643   2.699 -0.7789 -0.3275  0.2194
  127MOL   O19930691   1.925   3.518   2.754  0.5012 -0.5196  0.2557
  127MOL   H20030692   1.931   3.349   2.521 -0.2017 -0.9096 -0.1242
  127MOL   H20130693   2.057   3.255   2.495 -0.9715  0.1948 -1.6483
  127MOL   H20230694   2.277   3.545   2.564  0.0447  1.1934  1.5871
  127MOL   H20330695   2.339   3.377   2.583  0.7598  0.1180  1.9345
  127MOL   H20430696   2.312   3.480   2.716  1.0397  2.1030 -0.8663
  127MOL   H20530697   1.879   3.435   2.755 -0.6747  0.0885 -1.0934
  127MOL   C20630698   2.107   3.289   2.751  0.2563  1.2124 -0.0458
  127MOL   C20730699   2.197   3.167   2.754  0.5295 -0.9877  0.2580
  127MOL   C20830700   2.203   3.112   2.613 -0.1415 -0.3570  0.3714
  127MOL   C20930701   2.338   3.208   2.807 -0.5194 -0.4990 -0.2101
  127MOL   O21030702   2.434   3.214   2.738  0.0102 -0.1538 -0.1865
  127MOL   O21130703   2.331   3.250   2.936 -0.0669 -0.0115 -0.4459
  127MOL   H21230704   2.118   3.335   2.849  1.2621  2.7630 -0.8535
  127MOL   H21330705   2.006   3.248   2.749  0.6538  0.1748  1.2425
  127MOL   H21430706   2.106   3.080   2.575  0.0303 -0.1850 -0.2258
  127MOL   H21530707   2.264   3.022   2.605  0.2440 -0.1573  0.9946
  127MOL   H21630708   2.254   3.174   2.539 -1.1174 -1.2857 -1.1008
  127MOL   H21730709   2.410   3.294   2.964  0.6618 -1.5170 -0.0463
  127MOL   C21830710   2.136   3.060   2.856  0.1052  0.1888  1.5121
  127MOL   C21930711   2.195   2.912   2.877 -0.0797  0.0958  0.1717
  127MOL   C22030712   2.122   2.825   2.766  0.4798  0.0824  0.0654
  127MOL   C22130713   2.347   2.899   2.863 -0.0839 -0.1108  0.5392
  127MOL   O22230714   2.401   2.852   2.768 -0.3627 -0.1536  0.1103
  127MOL   O22330715   2.406   2.945   2.974 -0.3266 -0.1028  0.8988
  127MOL   H22430716   2.114   3.110   2.950  0.0700  1.4673  0.8376
  127MOL   H22530717   2.030   3.048   2.831  0.3330  0.6390  0.2684
  127MOL   H22630718   2.126   2.717   2.784 -1.1422 -0.0888 -0.5329
  127MOL   H22730719   2.169   2.833   2.668 -0.8053  0.7604 -0.5012
  127MOL   H22830720   2.015   2.840   2.757  0.9340  3.2008 -0.7781
  127MOL   H22930721   2.500   2.953   2.965 -0.4552  1.3688  0.6236
  127MOL   C23030722   2.146   2.869   3.024  0.2012 -0.4193  0.3073
  127MOL   C23130723   2.174   2.729   3.076 -0.1578  0.6016 -0.3401
  127MOL   C23230724   2.182   2.719   3.236  0.5130  0.4545 -0.1636
  127MOL   C23330725   2.065   2.629   3.032 -0.5054 -0.0985 -0.3446
  127MOL   O23430726   1.961   2.667   2.987  0.3904  0.2607  0.2438
  127MOL   O23530727   2.108   2.506   3.036 -0.5047 -0.0614  0.1611
  127MOL   H23630728   2.187   2.930   3.105 -0.7655  2.4349 -1.2822
  127MOL   H23730729   2.038   2.885   3.024  0.5048  1.9291  2.1577
  127MOL   H23830730   2.086   2.741   3.282  0.1030  3.0184 -2.0848
  127MOL   H23930731   2.244   2.792   3.287 -0.6136  0.8144  0.6974
  127MOL   H24030732   2.211   2.617   3.260 -1.6651 -0.6343 -1.9634
  127MOL   H24130733   2.034   2.452   3.013 -2.0471  1.3142  1.7020
  127MOL   H24230734   2.274   2.707   3.041 -0.0998  0.8779 -0.3458
  128MOL     C130735   6.103   3.416   3.450  0.0147  0.4144  1.3790
  128MOL     C230736   6.159   3.511   3.340  0.1213  0.6782 -0.4936
  128MOL     C330737   6.218   3.422   3.228 -0.1923 -0.2295  0.0273
  128MOL     C430738   6.036   3.587   3.289 -0.3880  0.3830 -0.5147
  128MOL     O530739   5.920   3.570   3.330 -0.0270  0.0936  0.5705
  128MOL     O630740   6.060   3.681   3.192 -0.1854  0.0546 -0.1609
  128MOL     H730741   6.030   3.340   3.423  2.0042 -0.4527 -1.8935
  128MOL     H830742   6.059   3.466   3.537  1.0700  0.1801  2.0582
  128MOL     H930743   6.247   3.487   3.146 -0.8980 -0.1591 -0.1655
  128MOL    H1030744   6.156   3.346   3.180 -0.7263 -0.0435  0.4193
  128MOL    H1130745   6.308   3.377   3.268 -0.4102 -1.6799 -1.0952
  128MOL    H1230746   6.149   3.701   3.170  0.0344 -0.6515  0.0777
  128MOL    H1330747   6.183   3.355   3.492  1.4480  0.7518 -0.7549
  128MOL    C1430748   6.275   3.597   3.407  0.3054  0.4011  0.3995
  128MOL    C1530749   6.261   3.708   3.511  1.0381  0.1020  0.2447
  128MOL    C1630750   6.120   3.769   3.511  0.1037  0.3163 -0.4214
  128MOL    C1730751   6.291   3.642   3.649  0.5491 -0.1392  0.3882
  128MOL    O1830752   6.357   3.534   3.666  0.2110  0.2422 -0.6011
  128MOL    O1930753   6.257   3.722   3.752  0.1630 -0.5390  0.0936
  128MOL    H2030754   6.354   3.528   3.437  0.4980 -1.8160 -4.6338
  128MOL    H2130755   6.324   3.653   3.326  1.3078  0.7429  1.2328
  128MOL    H2230756   6.046   3.690   3.524 -0.2665  0.3708 -2.0794
  128MOL    H2330757   6.093   3.818   3.417  0.8560  0.5964 -0.4955
  128MOL    H2430758   6.113   3.841   3.592 -0.8884 -1.0308  0.7010
  128MOL    H2530759   6.286   3.696   3.838  0.9112 -0.0920 -0.0169
  128MOL    C2630760   6.351   3.833   3.479 -0.0579  0.9525  0.2120
  128MOL    C2730761   6.505   3.857   3.468 -0.1789  0.5009 -0.2451
  128MOL    C2830762   6.548   3.839   3.613  0.1859  0.1433 -0.0537
  128MOL    C2930763   6.559   3.753   3.369 -0.2501 -0.3840 -0.1104
  128MOL    O3030764   6.571   3.770   3.245  0.8479 -0.0902 -0.1991
  128MOL    O3130765   6.593   3.637   3.430  0.4667 -0.2960 -0.2906
  128MOL    H3230766   6.313   3.871   3.384 -3.1265 -0.7361  0.7023
  128MOL    H3330767   6.322   3.914   3.547 -2.3329  1.6477 -1.5156
  128MOL    H3430768   6.538   3.744   3.666 -1.2031  0.2009 -0.2157
  128MOL    H3530769   6.502   3.919   3.671 -0.2568 -0.3523  0.2834
  128MOL    H3630770   6.655   3.849   3.635 -0.3753 -1.0213  3.6422
  128MOL    H3730771   6.625   3.569   3.372  1.6390 -0.5691  0.6616
  128MOL    C3830772   6.528   4.006   3.416 -0.5279  0.2816 -0.2666
  128MOL    C3930773   6.667   4.073   3.375  0.0293 -0.2577  0.1074
  128MOL    C4030774   6.787   4.012   3.455  0.6048  0.9609  0.3659
  128MOL    C4130775   6.715   4.078   3.225  0.1860 -0.2018  0.7646
  128MOL    O4230776   6.645   4.032   3.136 -0.0299  0.3727 -0.0780
  128MOL    O4330777   6.834   4.135   3.202 -0.4339 -0.5971  0.4797
  128MOL    H4430778   6.466   4.021   3.328 -0.4558  0.0864 -0.3515
  128MOL    H4530779   6.475   4.068   3.489 -1.0246 -0.5163  0.0548
  128MOL    H4630780   6.787   4.024   3.563  2.3932 -0.7987  0.5828
  128MOL    H4730781   6.877   4.069   3.433  1.8462 -0.6636  1.0853
  128MOL    H4830782   6.805   3.909   3.425 -1.1957  0.4727  0.8650
  128MOL    H4930783   6.864   4.145   3.114  1.5688  1.0960  1.3294
  128MOL    C5030784   6.659   4.225   3.424 -0.4932 -0.3168 -0.6094
  128MOL    C5130785   6.584   4.345   3.347 -0.0420  1.1328  0.4171
  128MOL    C5230786   6.666   4.411   3.234 -0.1862 -0.4053  0.4332
  128MOL    C5330787   6.453   4.288   3.289 -0.4107  0.0871 -0.4980
  128MOL    O5430788   6.348   4.260   3.349  0.2043 -0.1081 -0.4630
  128MOL    O5530789   6.464   4.261   3.155  0.5907  0.6434 -0.2914
  128MOL    H5630790   6.614   4.215   3.523  1.6844 -0.1281  0.4208
  128MOL    H5730791   6.757   4.265   3.449 -0.2965 -1.1945  0.0428
  128MOL    H5830792   6.606   4.487   3.183  1.4712  0.2731 -0.5408
  128MOL    H5930793   6.719   4.345   3.166  0.2876  0.9081 -0.5059
  128MOL    H6030794   6.741   4.474   3.281 -0.3673  1.3865 -1.5487
  128MOL    H6130795   6.382   4.228   3.121  0.1246 -0.5136  1.8823
  128MOL    C6230796   6.545   4.447   3.463  0.4544 -0.0462 -0.2167
  128MOL    C6330797   6.477   4.595   3.451 -0.2671  0.6152  0.6153
  128MOL    C6430798   6.369   4.592   3.338  0.2862 -0.0784 -0.3085
  128MOL    C6530799   6.410   4.615   3.591  0.1055  0.2856  0.8848
  128MOL    O6630800   6.452   4.577   3.699  0.2852  0.2958  0.6161
  128MOL    O6730801   6.297   4.690   3.591 -0.2880 -0.0799  0.1221
  128MOL    H6830802   6.484   4.394   3.536  0.4929  0.0901 -0.0853
  128MOL    H6930803   6.635   4.463   3.522  1.4866  0.2954 -1.8448
  128MOL    H7030804   6.283   4.532   3.370  1.1517 -1.3512 -0.3295
  128MOL    H7130805   6.411   4.541   3.251 -0.5705  0.0344 -0.8040
  128MOL    H7230806   6.340   4.692   3.305  1.2460 -0.1998 -1.5586
  128MOL    H7330807   6.274   4.706   3.682 -2.1664 -1.4199 -0.0960
  128MOL    C7430808   6.590   4.694   3.413  0.4439 -0.3403  0.8078
  128MOL    C7530809   6.588   4.849   3.441 -0.3437  0.2960 -0.4407
  128MOL    C7630810   6.468   4.920   3.401  0.1037 -0.0506  0.3386
  128MOL    C7730811   6.617   4.871   3.592 -0.3336 -0.7933 -0.2847
  128MOL    O7830812   6.621   4.786   3.673 -0.5396  0.0708  0.0108
  128MOL    O7930813   6.645   5.000   3.624  0.1732  0.3106 -0.2791
  128MOL    H8030814   6.677   4.653   3.464  1.7260  0.1376 -0.9432
  128MOL    H8130815   6.612   4.670   3.309 -0.1066 -1.9173  1.0546
  128MOL    H8230816   6.436   4.885   3.302 -1.0357 -0.6694  0.9178
  128MOL    H8330817   6.483   5.027   3.390  0.6280 -0.3193 -1.9686
  128MOL    H8430818   6.379   4.909   3.463  0.1665 -1.1823  0.2436
  128MOL    H8530819   6.658   5.001   3.718  1.3769 -1.6595 -0.4107
  128MOL    C8630820   6.707   4.919   3.353  0.0583  0.0838  0.6365
  128MOL    C8730821   6.857   4.883   3.340  0.6831 -0.4392  0.3534
  128MOL    C8830822   6.907   4.816   3.474 -0.5555 -0.4821  0.3923
  128MOL    C8930823   6.879   4.771   3.237 -0.0282  0.3079 -0.2725
  128MOL    O9030824   6.785   4.717   3.175  0.3253  0.2144 -0.6942
  128MOL    O9130825   7.007   4.732   3.206 -0.2983  0.8378  0.0037
  128MOL    H9230826   6.664   4.928   3.254  1.7726 -1.8694 -0.3175
  128MOL    H9330827   6.706   5.021   3.392  2.8213  0.8676 -1.1722
  128MOL    H9430828   6.883   4.876   3.562 -1.1314 -0.0373 -0.0626
  128MOL    H9530829   7.016   4.810   3.479 -0.5044  0.8273  1.2407
  128MOL    H9630830   6.862   4.717   3.476 -1.9178  0.1061 -0.2169
  128MOL    H9730831   6.999   4.669   3.136  0.6113 -0.1589  0.7581
  128MOL    C9830832   6.949   5.010   3.302 -0.1729  0.0021  0.7037
  128MOL    C9930833   6.918   5.104   3.183 -0.5567  0.1498  0.1080
  128MOL   C10030834   6.908   5.025   3.053  0.5939  0.0404 -0.5269
  128MOL   C10130835   6.786   5.183   3.212  0.2422  0.0030  0.5243
  128MOL   O10230836   6.779   5.283   3.275 -0.0525  0.5092  0.7176
  128MOL   O10330837   6.688   5.139   3.135 -0.1769 -0.1281 -0.2093
  128MOL   H10430838   6.964   5.075   3.388  0.8688 -0.2677  0.7357
  128MOL   H10530839   7.048   4.970   3.277 -1.2241 -1.1080 -1.8734
  128MOL   H10630840   6.815   4.970   3.046  2.0348 -2.4828 -0.4953
  128MOL   H10730841   6.985   4.950   3.035 -0.0225 -0.8129  0.3277
  128MOL   H10830842   6.905   5.092   2.967 -0.3442 -0.7397 -1.1099
  128MOL   H10930843   6.611   5.193   3.148  0.4454  0.7305 -0.1099
  128MOL   C11030844   7.043   5.197   3.184 -0.4017  0.5544  0.0171
  128MOL   C11130845   7.079   5.317   3.080  0.5745 -0.2031 -0.6535
  128MOL   C11230846   7.152   5.428   3.168 -0.3945 -0.1558 -0.3268
  128MOL   C11330847   7.173   5.245   2.979  0.3662  0.1369  0.1560
  128MOL   O11430848   7.134   5.178   2.884  0.3683 -0.0132  0.1448
  128MOL   O11530849   7.302   5.244   3.014 -0.4700 -0.0025 -0.1359
  128MOL   H11630850   7.045   5.247   3.281  1.5153  1.1760 -0.3206
  128MOL   H11730851   7.134   5.138   3.195 -0.8323 -0.5357 -2.1092
  128MOL   H11830852   7.212   5.500   3.111  0.2072  1.0155  1.7432
  128MOL   H11930853   7.217   5.381   3.241 -0.9432 -1.2968 -0.5716
  128MOL   H12030854   7.077   5.482   3.226 -0.3836  0.5887 -0.9809
  128MOL   H12130855   7.358   5.198   2.953  1.1790  1.6357  0.1079
  128MOL   C12230856   6.953   5.371   2.998  0.8372  0.3317 -0.2261
  128MOL   C12330857   6.963   5.511   2.924  0.2975  0.2040  0.1306
  128MOL   C12430858   7.104   5.536   2.853 -0.0218 -0.0390 -0.3236
  128MOL   C12530859   6.851   5.502   2.817  0.2097 -0.2714 -0.5768
  128MOL   O12630860   6.734   5.490   2.843  0.3190 -0.2398 -0.2535
  128MOL   O12730861   6.899   5.501   2.687 -0.4969  0.8361  0.2446
  128MOL   H12830862   6.916   5.303   2.922  2.8607  1.7845 -2.5882
  128MOL   H12930863   6.867   5.392   3.063  1.3698 -0.7502  0.8475
  128MOL   H13030864   7.136   5.448   2.797 -3.0726 -0.6549 -1.1987
  128MOL   H13130865   7.183   5.571   2.919  0.1016  0.0608 -0.5207
  128MOL   H13230866   7.099   5.612   2.775  2.2934 -1.3660 -1.8349
  128MOL   H13330867   6.838   5.467   2.623  2.2699  0.0935 -2.1092
  128MOL   C13430868   6.938   5.623   3.034 -0.1843  0.1056 -0.2679
  128MOL   C13530869   6.899   5.773   2.997  0.6622  0.3470 -0.6964
  128MOL   C13630870   6.966   5.818   2.868 -0.3041  0.1660 -0.0307
  128MOL   C13730871   6.743   5.788   2.967 -0.0201  0.5246 -0.5625
  128MOL   O13830872   6.696   5.886   2.904 -0.1028 -0.1990  0.3501
  128MOL   O13930873   6.661   5.691   3.022  0.2021 -0.3264  0.4632
  128MOL   H14030874   6.877   5.585   3.116 -0.3008 -0.8789 -0.8051
  128MOL   H14130875   7.032   5.633   3.087  1.0635 -0.4039 -2.3144
  128MOL   H14230876   6.948   5.924   2.847  0.9332  0.3873  0.0020
  128MOL   H14330877   6.920   5.762   2.787  1.0755  0.0346 -0.7308
  128MOL   H14430878   7.075   5.808   2.867 -0.3590 -0.6220  1.0641
  128MOL   H14530879   6.582   5.689   2.970  1.4543  0.1249 -1.4890
  128MOL   C14630880   6.940   5.869   3.104  0.5248 -0.1419 -0.5238
  128MOL   C14730881   6.905   5.846   3.257 -0.9856  0.0168 -0.4203
  128MOL   C14830882   6.757   5.805   3.272 -0.3688  0.4877 -0.1344
  128MOL   C14930883   7.001   5.740   3.326  0.2471 -0.3739  0.0959
  128MOL   O15030884   6.968   5.642   3.388 -0.1633  0.4697  0.4089
  128MOL   O15130885   7.131   5.776   3.312  0.4338 -0.2686 -0.1503
  128MOL   H15230886   7.048   5.882   3.105  0.7758 -1.8861 -1.7814
  128MOL   H15330887   6.909   5.971   3.079  2.7439  0.9524  1.0545
  128MOL   H15430888   6.745   5.698   3.253  0.3571  0.4682 -0.5182
  128MOL   H15530889   6.695   5.874   3.216 -3.1764 -0.3819  1.8118
  128MOL   H15630890   6.722   5.816   3.375 -0.7993 -1.1659 -0.0782
  128MOL   H15730891   7.182   5.735   3.380  0.7001 -2.0789 -1.3862
  128MOL   C15830892   6.921   5.990   3.318  0.0607 -0.0154  0.0608
  128MOL   C15930893   6.939   6.034   3.471  0.5981  0.2305 -0.4021
  128MOL   C16030894   6.849   5.943   3.556  0.7455 -0.4887 -0.3299
  128MOL   C16130895   7.092   6.017   3.509  0.3018  0.2090 -0.1156
  128MOL   O16230896   7.128   5.912   3.564  0.0542  0.0974 -0.5601
  128MOL   O16330897   7.174   6.115   3.464  0.3444 -0.4432 -0.6743
  128MOL   H16430898   7.009   6.031   3.268 -0.5502  1.1153 -0.1060
  128MOL   H16530899   6.848   6.053   3.268 -1.3073 -0.5928  1.2852
  128MOL   H16630900   6.744   5.967   3.537  0.5400 -0.7183  0.4975
  128MOL   H16730901   6.872   5.937   3.663  1.6636  1.2873 -0.4142
  128MOL   H16830902   6.851   5.836   3.537  1.2231 -0.4808 -0.3198
  128MOL   H16930903   7.263   6.094   3.486  0.7275  1.1544 -0.6327
  128MOL   C17030904   6.896   6.182   3.484  0.8111  0.6728 -0.4916
  128MOL   C17130905   6.891   6.263   3.622 -0.1338 -0.6217 -0.0662
  128MOL   C17230906   7.013   6.240   3.723 -0.0448 -0.1609 -0.7692
  128MOL   C17330907   6.891   6.408   3.576 -0.7594  0.0979 -0.9186
  128MOL   O17430908   6.978   6.490   3.599  0.4021 -0.7161 -0.7552
  128MOL   O17530909   6.792   6.436   3.490 -0.1281  0.2884 -0.3834
  128MOL   H17630910   6.957   6.237   3.412 -0.4541  0.4131 -1.7950
  128MOL   H17730911   6.796   6.190   3.440  1.3600 -0.3915 -1.9643
  128MOL   H17830912   7.031   6.134   3.742 -0.2856 -0.0279  0.2249
  128MOL   H17930913   7.000   6.297   3.814  0.1348 -3.3111  1.3159
  128MOL   H18030914   7.107   6.281   3.686 -0.3731  0.1144 -1.3065
  128MOL   H18130915   6.729   6.366   3.501  1.6442 -1.2762 -0.0386
  128MOL   C18230916   6.761   6.212   3.702 -0.1231  0.0259 -0.0653
  128MOL   C18330917   6.671   6.303   3.792  0.2029  0.1084 -0.1756
  128MOL   C18430918   6.754   6.404   3.877  0.0323  0.3864  0.3520
  128MOL   C18530919   6.563   6.368   3.707 -0.1714 -0.7834  0.4301
  128MOL   O18630920   6.559   6.352   3.584  0.4951 -0.3761 -0.2666
  128MOL   O18730921   6.465   6.440   3.776 -0.1001 -0.4454 -0.3296
  128MOL   H18830922   6.696   6.159   3.632  1.3390 -1.8695 -0.0238
  128MOL   H18930923   6.800   6.130   3.762  1.2436  0.7504  0.0432
  128MOL   H19030924   6.836   6.361   3.934  2.0370  3.1471 -0.3475
  128MOL   H19130925   6.686   6.458   3.944 -0.7072 -1.8079  1.4349
  128MOL   H19230926   6.802   6.483   3.820  1.7386 -0.7953  0.1012
  128MOL   H19330927   6.411   6.503   3.731  1.2305  1.6711  0.8925
  128MOL   C19430928   6.597   6.220   3.911 -0.5129 -0.5247 -0.2978
  128MOL   C19530929   6.528   6.083   3.897  0.8549  0.4356  0.1216
  128MOL   C19630930   6.442   6.074   3.768  0.1290 -0.1230  1.0674
  128MOL   C19730931   6.639   5.972   3.891  0.6640 -0.7803 -0.3860
  128MOL   O19830932   6.646   5.889   3.799  0.5193  0.1450  0.9467
  128MOL   O19930933   6.716   5.978   3.998  0.0364  0.1687  0.0703
  128MOL   H20030934   6.664   6.216   3.998 -1.0463 -0.7363  0.1040
  128MOL   H20130935   6.535   6.299   3.954  0.3753  0.8300 -1.4642
  128MOL   H20230936   6.504   6.065   3.679 -0.5820  3.3255  0.1512
  128MOL   H20330937   6.385   6.167   3.758  0.9883  0.5009  1.9282
  128MOL   H20430938   6.388   5.980   3.773 -1.3303  0.5931 -0.5647
  128MOL   H20530939   6.793   5.924   3.989  0.3816  0.9783 -2.1503
  128MOL   C20630940   6.439   6.056   4.026 -0.6899 -0.0132 -0.7427
  128MOL   C20730941   6.292   6.104   4.061 -0.1645  0.0815  0.4493
  128MOL   C20830942   6.274   6.256   4.039  0.2795  0.0465 -0.4644
  128MOL   C20930943   6.200   6.019   3.976 -0.2856 -1.4461 -0.1387
  128MOL   O21030944   6.104   6.071   3.916  0.7138  0.2472  0.6911
  128MOL   O21130945   6.231   5.884   3.980 -0.2594 -0.4014  0.2415
  128MOL   H21230946   6.454   5.951   4.050  1.6471  0.5952  0.7254
  128MOL   H21330947   6.497   6.103   4.106  0.3681 -1.7384 -0.4779
  128MOL   H21430948   6.342   6.313   4.102  2.1610  0.2781 -2.6373
  128MOL   H21530949   6.177   6.296   4.068 -0.4489 -0.3733 -2.2946
  128MOL   H21630950   6.302   6.282   3.937  0.5390  2.7282  0.2409
  128MOL   H21730951   6.160   5.827   3.955 -0.2166  0.3022 -1.5166
  128MOL   C21830952   6.268   6.066   4.207  0.3558  0.2510  0.0315
  128MOL   C21930953   6.137   6.119   4.289 -0.7288 -0.4468  0.1566
  128MOL   C22030954   6.152   6.046   4.427  0.4350 -0.0696 -0.0531
  128MOL   C22130955   6.154   6.274   4.324  0.3354  0.5812  0.6910
  128MOL   O22230956   6.259   6.319   4.359 -0.5140  0.3296 -0.6847
  128MOL   O22330957   6.042   6.348   4.297  0.3574 -0.2515 -0.1259
  128MOL   H22430958   6.251   5.960   4.224  0.8648  0.0989 -0.3851
  128MOL   H22530959   6.350   6.086   4.275 -1.7549 -0.4826  2.8593
  128MOL   H22630960   6.074   6.078   4.496  1.7857  0.9820  1.0143
  128MOL   H22730961   6.239   6.080   4.483  0.3552 -2.7543  1.7997
  128MOL   H22830962   6.157   5.937   4.425 -2.0580 -0.2156  0.5364
  128MOL   H22930963   6.058   6.440   4.310  1.7102 -0.1152 -2.4378
  128MOL   C23030964   6.000   6.081   4.226  0.3994 -0.4965 -0.2397
  128MOL   C23130965   5.877   6.076   4.323  0.1527  0.5289  0.3285
  128MOL   C23230966   5.751   6.125   4.252  0.2668  0.3118 -0.0705
  128MOL   C23330967   5.841   5.937   4.385 -0.0287  0.1252 -0.1691
  128MOL   O23430968   5.891   5.895   4.492 -0.3123 -0.1424 -0.1498
  128MOL   O23530969   5.767   5.853   4.311  0.4536 -0.0994  0.2690
  128MOL   H23630970   5.982   6.149   4.143  0.2434 -1.2181 -0.8009
  128MOL   H23730971   6.001   5.979   4.188 -0.0930 -0.5292 -0.1662
  128MOL   H23830972   5.765   6.228   4.218 -0.6251  0.0419 -1.2798
  128MOL   H23930973   5.650   6.127   4.292  0.1310 -0.1898 -0.3979
  128MOL   H24030974   5.733   6.060   4.166 -0.3612  0.8355 -0.3398
  128MOL   H24130975   5.762   5.767   4.348  0.7113 -0.0063  0.5232
  128MOL   H24230976   5.893   6.136   4.413  1.0598 -3.2180  2.7787
  129MOL     C130977   3.937   3.941   1.722  0.3155 -0.1116 -0.2532
  129MOL     C230978   3.859   4.046   1.656 -0.5248 -0.5721  0.2413
  129MOL     C330979   3.762   3.982   1.556  0.5420  0.3810  0.5007
  129MOL     C430980   3.774   4.119   1.762  0.1376 -0.4515 -0.0026
  129MOL     O530981   3.656   4.095   1.785  0.2637  0.1572  0.2983
  129MOL     O630982   3.856   4.197   1.838  0.0830  0.0617  0.8218
  129MOL     H730983   3.997   3.888   1.649  2.2153 -0.5709  1.5891
  129MOL     H830984   3.867   3.875   1.774  2.1545 -2.7879 -1.0584
  129MOL     H930985   3.673   4.039   1.526  0.3985 -0.1871 -0.1650
  129MOL    H1030986   3.727   3.888   1.598 -1.0438  0.4111 -0.7045
  129MOL    H1130987   3.805   3.953   1.460  0.5265  2.5895 -0.2138
  129MOL    H1230988   3.800   4.229   1.907 -2.4057 -0.2953 -0.9713
  129MOL    H1330989   4.014   3.992   1.780 -0.4710 -0.7884  1.4071
  129MOL    C1430990   3.952   4.158   1.588 -0.6445  0.2648  0.5769
  129MOL    C1530991   4.020   4.146   1.442  0.3544 -0.6729  0.4868
  129MOL    C1630992   4.128   4.258   1.444  0.4220 -0.0889 -0.6098
  129MOL    C1730993   4.087   4.011   1.442 -0.0107  0.1215 -0.6082
  129MOL    O1830994   4.039   3.915   1.377  0.0160 -0.1513 -0.5247
  129MOL    O1930995   4.204   3.995   1.506  0.3487  0.7501  0.4790
  129MOL    H2030996   3.899   4.252   1.606 -0.6672  0.4022 -0.1742
  129MOL    H2130997   4.031   4.164   1.662  1.6421 -1.4113 -1.6673
  129MOL    H2230998   4.203   4.265   1.365 -0.2216  1.1524 -1.1267
  129MOL    H2330999   4.187   4.248   1.535  0.8831 -0.1922 -0.9168
  129MOL    H2431000   4.073   4.352   1.444 -0.6876 -0.7201  1.1868
  129MOL    H2531001   4.240   3.909   1.491  1.3575  1.1510  0.5430
  129MOL    C2631002   3.912   4.174   1.330 -0.4900 -0.1183  0.0215
  129MOL    C2731003   3.945   4.183   1.179 -1.1974  0.3524 -0.0790
  129MOL    C2831004   4.041   4.305   1.155  0.9022 -0.4326 -0.0160
  129MOL    C2931005   4.015   4.061   1.122 -0.4512 -0.2326  0.6812
  129MOL    O3031006   4.129   4.067   1.071  0.3149  0.1461 -0.4746
  129MOL    O3131007   3.937   3.946   1.112 -0.3530  0.2244 -0.2622
  129MOL    H3231008   3.833   4.098   1.331 -0.5614 -0.0726 -1.4861
  129MOL    H3331009   3.874   4.262   1.382  2.2054  0.2667  1.3767
  129MOL    H3431010   4.018   4.381   1.230 -0.6920 -1.3468  0.4667
  129MOL    H3531011   4.014   4.338   1.055 -0.9035  0.4302  0.7226
  129MOL    H3631012   4.147   4.283   1.155  0.9712 -0.1557 -1.9224
  129MOL    H3731013   3.992   3.870   1.100 -1.3462 -0.9446  2.1786
  129MOL    C3831014   3.804   4.186   1.106 -0.0589 -0.3283 -0.2827
  129MOL    C3931015   3.695   4.293   1.138 -0.5139 -0.0299  0.6204
  129MOL    C4031016   3.757   4.443   1.126  0.0065 -0.4302  0.3809
  129MOL    C4131017   3.590   4.273   1.032 -0.2162 -0.9239  0.3713
  129MOL    O4231018   3.547   4.360   0.955 -0.1717 -0.7874  0.6722
  129MOL    O4331019   3.544   4.144   1.033 -0.1144 -0.0407 -0.2877
  129MOL    H4431020   3.828   4.192   1.000  1.3811  0.1776  0.0590
  129MOL    H4531021   3.758   4.089   1.121  1.6241 -0.7587  2.5629
  129MOL    H4631022   3.814   4.466   1.216  0.7788  1.3152 -0.5329
  129MOL    H4731023   3.674   4.513   1.126 -1.4526 -2.1112  0.3033
  129MOL    H4831024   3.817   4.467   1.037  0.6427  1.0155  1.1860
  129MOL    H4931025   3.480   4.116   0.969  0.7801  1.2437 -1.7911
  129MOL    C5031026   3.625   4.272   1.280 -0.7768  0.0749  0.6648
  129MOL    C5131027   3.467   4.303   1.320  0.0928  0.0393  0.0727
  129MOL    C5231028   3.354   4.219   1.252  0.0110 -0.4350 -0.2261
  129MOL    C5331029   3.464   4.265   1.472  0.4488  0.9742  0.5152
  129MOL    O5431030   3.422   4.158   1.512 -0.4429  0.0680 -0.1989
  129MOL    O5531031   3.531   4.347   1.551 -0.4839  0.1005  0.0066
  129MOL    H5631032   3.639   4.165   1.293 -0.7486 -0.3838 -2.7414
  129MOL    H5731033   3.682   4.324   1.357  1.1476  0.3790 -0.9234
  129MOL    H5831034   3.265   4.236   1.311  0.8036  0.7342  0.6678
  129MOL    H5931035   3.380   4.114   1.260 -1.4001 -0.8439 -0.8059
  129MOL    H6031036   3.334   4.260   1.152 -1.2963  0.3542  0.3509
  129MOL    H6131037   3.535   4.325   1.643  1.3345  1.1378  0.1904
  129MOL    C6231038   3.437   4.457   1.308 -0.4356  0.5841  0.1621
  129MOL    C6331039   3.303   4.536   1.321  0.7588 -0.1398 -0.5877
  129MOL    C6431040   3.226   4.525   1.187 -0.2172  0.5622  0.3143
  129MOL    C6531041   3.201   4.490   1.427 -0.2287 -0.2067 -0.3883
  129MOL    O6631042   3.211   4.402   1.514 -0.2536  0.1203 -0.6803
  129MOL    O6731043   3.081   4.557   1.407 -0.0105  0.1039  0.4234
  129MOL    H6831044   3.518   4.505   1.363  0.2438 -3.5559  2.9733
  129MOL    H6931045   3.472   4.471   1.206 -2.1188 -1.0304 -0.6568
  129MOL    H7031046   3.287   4.532   1.098  0.5123 -1.6908  0.5904
  129MOL    H7131047   3.172   4.619   1.175  0.3455  0.5461 -2.4810
  129MOL    H7231048   3.162   4.438   1.168 -1.7333  1.6843  0.1702
  129MOL    H7331049   3.016   4.535   1.472 -2.7844  1.9273 -1.5586
  129MOL    C7431050   3.330   4.694   1.354  0.4784 -0.3524  0.5211
  129MOL    C7531051   3.422   4.742   1.472 -0.4469  0.1203 -0.3109
  129MOL    C7631052   3.400   4.649   1.597 -0.3769  0.6683  0.5162
  129MOL    C7731053   3.580   4.735   1.431  0.4256  0.8501  0.5805
  129MOL    O7831054   3.614   4.746   1.317 -0.5824 -0.4022 -0.5821
  129MOL    O7931055   3.668   4.717   1.531 -0.3256  0.3826  0.4993
  129MOL    H8031056   3.374   4.750   1.271  0.0136  0.4683  0.8179
  129MOL    H8131057   3.233   4.745   1.360  0.4906 -0.4337  1.4872
  129MOL    H8231058   3.298   4.644   1.637 -1.4604 -0.4194 -2.2576
  129MOL    H8331059   3.463   4.680   1.680 -1.1645  1.3869  0.8543
  129MOL    H8431060   3.431   4.549   1.567 -1.7978  1.1056 -2.5734
  129MOL    H8531061   3.755   4.696   1.501 -1.0037  0.0579 -1.3426
  129MOL    C8631062   3.371   4.885   1.500  0.8559 -0.2401 -0.4618
  129MOL    C8731063   3.436   4.998   1.594  0.3638 -0.6417 -0.7476
  129MOL    C8831064   3.436   4.945   1.736 -0.1550 -0.4462 -0.4792
  129MOL    C8931065   3.579   5.021   1.534 -0.2856 -0.8086 -1.0789
  129MOL    O9031066   3.679   5.011   1.607 -0.4749  0.5093  0.5484
  129MOL    O9131067   3.583   5.062   1.403 -0.3925 -0.2170 -0.0496
  129MOL    H9231068   3.370   4.935   1.403 -0.9930 -0.2782 -0.4788
  129MOL    H9331069   3.264   4.875   1.517  0.7651 -0.2170 -0.9962
  129MOL    H9431070   3.479   5.021   1.802 -0.4113 -0.2559 -0.5313
  129MOL    H9531071   3.511   4.867   1.748 -0.2595 -0.1445  2.6757
  129MOL    H9631072   3.334   4.920   1.765 -0.9127  1.8135 -1.0831
  129MOL    H9731073   3.675   5.080   1.396 -0.3050 -0.7083 -0.1722
  129MOL    C9831074   3.334   5.130   1.565 -0.3476 -0.3996  0.0055
  129MOL    C9931075   3.328   5.255   1.653  1.2194  0.3231  0.1808
  129MOL   C10031076   3.290   5.227   1.799 -0.2793 -0.3471 -0.4309
  129MOL   C10131077   3.468   5.325   1.654  0.1577  0.0394  0.5465
  129MOL   O10231078   3.494   5.438   1.614  0.1641  0.4826  0.3800
  129MOL   O10331079   3.559   5.251   1.727  0.3706  0.0160 -0.6834
  129MOL   H10431080   3.364   5.167   1.467  0.3686  1.7242  0.9866
  129MOL   H10531081   3.234   5.087   1.559 -0.1852 -0.8663  0.5577
  129MOL   H10631082   3.369   5.177   1.855  0.8111 -1.2512 -2.6780
  129MOL   H10731083   3.201   5.165   1.810 -0.5727  0.2835  0.7928
  129MOL   H10831084   3.261   5.313   1.859  2.4951  0.2039  0.1611
  129MOL   H10931085   3.643   5.293   1.722  0.9139 -1.2191 -2.5487
  129MOL   C11031086   3.213   5.352   1.605  0.5339  0.8014  0.6887
  129MOL   C11131087   3.175   5.384   1.454  0.2214 -0.1390  0.0801
  129MOL   C11231088   3.082   5.512   1.463  0.5279  0.0222 -0.2763
  129MOL   C11331089   3.304   5.427   1.377 -0.1514 -0.0392  0.2161
  129MOL   O11431090   3.374   5.346   1.311 -0.0573 -0.4367 -0.1496
  129MOL   O11531091   3.331   5.562   1.373 -1.1688  0.1396 -0.0517
  129MOL   H11631092   3.121   5.332   1.659  1.3510 -1.5007  1.2804
  129MOL   H11731093   3.251   5.442   1.654  0.7279  0.5637  0.9797
  129MOL   H11831094   3.047   5.548   1.366 -0.2335 -3.0886 -1.2190
  129MOL   H11931095   3.132   5.599   1.507 -1.4047 -0.0079  2.0711
  129MOL   H12031096   2.990   5.489   1.517  1.4114 -0.7781  0.9077
  129MOL   H12131097   3.403   5.571   1.313 -2.3311  0.2509 -1.4737
  129MOL   C12231098   3.100   5.267   1.390  1.1759 -0.2976 -0.2865
  129MOL   C12331099   3.009   5.270   1.259  0.4717  0.1771 -0.8236
  129MOL   C12431100   2.972   5.116   1.236 -0.0640 -0.4204  0.2387
  129MOL   C12531101   2.879   5.343   1.303 -0.1000 -0.4124  0.5280
  129MOL   O12631102   2.854   5.459   1.272 -0.0814  0.2072  0.0958
  129MOL   O12731103   2.793   5.267   1.374 -0.5164  0.0442  0.1455
  129MOL   H12831104   3.162   5.181   1.366  0.7646 -0.8875  0.7086
  129MOL   H12931105   3.028   5.231   1.464 -1.3461  3.0717 -0.9497
  129MOL   H13031106   2.912   5.072   1.316 -0.8464 -1.3367 -0.8358
  129MOL   H13131107   3.062   5.058   1.219 -1.5476 -2.6617 -0.2334
  129MOL   H13231108   2.911   5.100   1.147  0.4696  0.5841 -0.3167
  129MOL   H13331109   2.740   5.321   1.431 -0.6369  1.0080 -0.8729
  129MOL   C13431110   3.086   5.330   1.140  0.4767 -0.1551  0.2452
  129MOL   C13531111   3.023   5.355   0.992  0.1945  0.0520 -0.2774
  129MOL   C13631112   2.907   5.259   0.952 -0.0253  0.6528  0.3129
  129MOL   C13731113   2.968   5.494   0.977  0.9938 -0.1182 -0.8574
  129MOL   O13831114   2.846   5.515   0.954 -0.1165 -0.0729  0.3703
  129MOL   O13931115   3.058   5.594   0.964  0.7130 -0.4816  0.0037
  129MOL   H14031116   3.130   5.426   1.166  0.9178 -0.3920  0.3791
  129MOL   H14131117   3.168   5.259   1.136 -1.4154 -2.4628  0.7167
  129MOL   H14231118   2.815   5.268   1.011 -0.2169 -0.5337  0.2097
  129MOL   H14331119   2.938   5.154   0.951 -1.8650  0.0755  1.0675
  129MOL   H14431120   2.866   5.287   0.855  0.7600  1.9558  0.3469
  129MOL   H14531121   3.026   5.677   0.931  2.0229  1.0324  2.3892
  129MOL   C14631122   3.141   5.348   0.882  0.0014  0.6568  0.6072
  129MOL   C14731123   3.219   5.220   0.828 -0.3542  0.0853 -0.2667
  129MOL   C14831124   3.300   5.161   0.950 -0.1283 -0.0649  0.1974
  129MOL   C14931125   3.125   5.113   0.771 -0.1563  0.1407 -0.1381
  129MOL   O15031126   3.132   4.999   0.808  0.6166  0.2842  0.0132
  129MOL   O15131127   3.051   5.161   0.674 -0.3089 -0.0351  0.3977
  129MOL   H15231128   3.126   5.412   0.795  0.6356  0.6726  0.5090
  129MOL   H15331129   3.224   5.399   0.930  2.6179 -1.8404 -1.1420
  129MOL   H15431130   3.347   5.246   0.999 -0.0682  0.1481 -0.2246
  129MOL   H15531131   3.373   5.086   0.919 -1.8748 -2.2097  1.0832
  129MOL   H15631132   3.240   5.106   1.023  2.0293 -3.1342 -0.2630
  129MOL   H15731133   3.016   5.088   0.625  1.8172 -0.9833  0.2697
  129MOL   C15831134   3.317   5.277   0.716  0.4145 -0.2154  0.6935
  129MOL   C15931135   3.383   5.198   0.598  0.1341 -0.4114 -1.2288
  129MOL   C16031136   3.278   5.149   0.495 -0.0941 -0.5155 -0.2661
  129MOL   C16131137   3.473   5.305   0.518 -0.2562 -0.2459  0.8284
  129MOL   O16231138   3.439   5.359   0.413  0.6386 -0.1519  0.0873
  129MOL   O16331139   3.592   5.332   0.581  0.0017 -0.5027  0.0136
  129MOL   H16431140   3.250   5.341   0.658  1.3742  0.6048  0.4734
  129MOL   H16531141   3.395   5.342   0.757  0.8122  0.0879 -0.5295
  129MOL   H16631142   3.202   5.224   0.472 -0.3735 -0.6395  0.2463
  129MOL   H16731143   3.234   5.054   0.527  0.5584 -1.5325 -2.3039
  129MOL   H16831144   3.324   5.125   0.400  4.3269  2.1322  1.0678
  129MOL   H16931145   3.660   5.371   0.529  0.4621 -1.9661 -0.5208
  129MOL   C17031146   3.476   5.084   0.664  0.5251 -0.1909 -0.2955
  129MOL   C17131147   3.536   4.959   0.593 -0.0852  0.1383  0.3863
  129MOL   C17231148   3.434   4.845   0.562 -0.2539 -0.0465 -0.2566
  129MOL   C17331149   3.601   5.010   0.465 -0.1991  0.1421  0.5245
  129MOL   O17431150   3.714   5.049   0.453 -0.7431  0.2601 -0.5796
  129MOL   O17531151   3.516   5.007   0.362 -0.0778 -0.2766 -1.0053
  129MOL   H17631152   3.545   5.131   0.734  0.7249 -0.5534 -0.2482
  129MOL   H17731153   3.402   5.032   0.724 -0.1124  1.3063  0.2208
  129MOL   H17831154   3.486   4.778   0.494  2.0312  1.7315 -0.3189
  129MOL   H17931155   3.345   4.877   0.509  0.9157  1.1534 -1.5221
  129MOL   H18031156   3.393   4.800   0.653  2.0313 -2.5410 -0.4122
  129MOL   H18131157   3.568   5.029   0.287  0.8564 -0.8740 -0.5424
  129MOL   C18231158   3.658   4.903   0.678 -0.5742  0.3451  0.0805
  129MOL   C18331159   3.644   4.820   0.812  0.0191 -0.1156 -0.7058
  129MOL   C18431160   3.568   4.903   0.912 -0.1503 -0.5437  0.1971
  129MOL   C18531161   3.579   4.681   0.807  0.1210 -0.0747 -0.8314
  129MOL   O18631162   3.584   4.609   0.709  0.1590 -0.0341 -0.0820
  129MOL   O18731163   3.532   4.639   0.926  0.6363  0.6930  0.7142
  129MOL   H18831164   3.711   4.842   0.605 -3.0689 -0.4497 -1.1538
  129MOL   H18931165   3.726   4.987   0.686 -0.0650 -0.0632  0.1098
  129MOL   H19031166   3.618   4.999   0.901 -0.5282 -0.2621  0.9283
  129MOL   H19131167   3.577   4.865   1.013 -1.3285  1.6385  1.1661
  129MOL   H19231168   3.462   4.895   0.888  0.3407 -2.9710 -1.3418
  129MOL   H19331169   3.502   4.549   0.925 -0.4645  1.0521 -1.4389
  129MOL   C19431170   3.779   4.786   0.882 -0.3239  0.4256 -0.5031
  129MOL   C19531171   3.918   4.754   0.812  0.1709  0.4699  0.9032
  129MOL   C19631172   3.905   4.636   0.711  0.5676  0.5644  0.0944
  129MOL   C19731173   3.963   4.875   0.735  0.1943 -0.5060  0.4172
  129MOL   O19831174   3.944   4.991   0.776 -0.2287  0.6569 -0.0538
  129MOL   O19931175   4.023   4.851   0.615 -0.0161  0.1640 -0.2113
  129MOL   H20031176   3.808   4.870   0.945  1.8822 -1.2907  0.8624
  129MOL   H20131177   3.768   4.711   0.960 -0.4476 -0.6962 -1.5816
  129MOL   H20231178   4.002   4.605   0.670 -0.4530 -0.5843 -1.4852
  129MOL   H20331179   3.862   4.665   0.615 -0.0214  0.3693  0.2990
  129MOL   H20431180   3.854   4.554   0.760 -0.8063  1.4698  0.2155
  129MOL   H20531181   4.021   4.758   0.597  0.3638  0.1388 -0.1343
  129MOL   C20631182   4.036   4.704   0.907  0.7687  0.0169  0.7477
  129MOL   C20731183   4.108   4.779   1.021  0.1031  0.4067 -0.5624
  129MOL   C20831184   4.179   4.905   0.982 -0.3576  0.9485 -0.1086
  129MOL   C20931185   4.000   4.814   1.133 -0.1456 -0.4845  0.5954
  129MOL   O21031186   3.980   4.930   1.175 -0.1730 -0.1591  0.2415
  129MOL   O21131187   3.923   4.710   1.174  0.0863 -0.7976 -1.0093
  129MOL   H21231188   4.009   4.603   0.937  0.5151 -0.1815 -0.1450
  129MOL   H21331189   4.114   4.679   0.836  0.4805 -0.1248  0.4807
  129MOL   H21431190   4.116   4.994   0.981 -2.5329 -0.5459 -1.7188
  129MOL   H21531191   4.224   4.887   0.884 -1.6799 -2.0314 -0.2084
  129MOL   H21631192   4.248   4.931   1.062 -0.8593 -0.2578  0.7189
  129MOL   H21731193   3.847   4.758   1.202  0.8444  0.2310 -0.6657
  129MOL   C21831194   4.208   4.680   1.087 -0.1999  0.4872  0.3132
  129MOL   C21931195   4.332   4.609   1.021  0.0752  0.1668 -0.1601
  129MOL   C22031196   4.284   4.489   0.943  0.0307  0.7888  0.6034
  129MOL   C22131197   4.425   4.707   0.942 -0.6383 -0.5834  0.6805
  129MOL   O22231198   4.444   4.702   0.819 -0.7483  0.4130  0.3644
  129MOL   O22331199   4.469   4.809   1.024 -0.3035 -0.4958  0.1667
  129MOL   H22431200   4.269   4.738   1.157 -0.0249 -0.1393  0.6827
  129MOL   H22531201   4.153   4.603   1.141  0.0929 -0.6834 -1.0383
  129MOL   H22631202   4.229   4.514   0.852 -2.4545 -0.2606  1.7512
  129MOL   H22731203   4.218   4.420   0.996  1.9408 -1.0859  0.6029
  129MOL   H22831204   4.368   4.430   0.908  0.3552  0.7902  1.3630
  129MOL   H22931205   4.525   4.873   0.983  0.8388 -0.0608  2.3240
  129MOL   C23031206   4.424   4.556   1.146  0.4945  0.0222  0.3232
  129MOL   C23131207   4.545   4.460   1.115 -0.2452  0.0446  0.5478
  129MOL   C23231208   4.680   4.532   1.122 -0.3275 -0.1204  0.9075
  129MOL   C23331209   4.534   4.340   1.208  0.4726  0.8876  0.0777
  129MOL   O23431210   4.491   4.337   1.327 -0.1775 -0.1135  0.0166
  129MOL   O23531211   4.593   4.229   1.150 -0.0022 -0.0909 -0.2621
  129MOL   H23631212   4.461   4.638   1.208 -2.4976  0.3480  1.7438
  129MOL   H23731213   4.347   4.509   1.207 -1.0635 -0.3346 -1.8443
  129MOL   H23831214   4.692   4.605   1.042 -0.4731  0.7843  1.6979
  129MOL   H23931215   4.758   4.457   1.113 -2.5646 -2.4893  0.8701
  129MOL   H24031216   4.699   4.590   1.212  0.1261  0.7437  0.2680
  129MOL   H24131217   4.586   4.148   1.199  1.4464 -0.2934 -0.3708
  129MOL   H24231218   4.542   4.429   1.010  0.1255  0.8331  0.2988
  130MOL     C131219   3.514   5.813   5.192  0.3842 -0.2513 -0.2606
  130MOL     C231220   3.373   5.806   5.256  0.2504 -0.4864 -0.1363
  130MOL     C331221   3.313   5.660   5.248  0.0050 -0.0137  1.1467
  130MOL     C431222   3.384   5.846   5.400 -0.3082 -0.1939  0.1237
  130MOL     O531223   3.352   5.772   5.494 -0.1575 -0.0993 -0.3663
  130MOL     O631224   3.429   5.974   5.417 -0.3237 -0.3239  0.5198
  130MOL     H731225   3.497   5.805   5.084  0.5755 -1.1345 -0.2337
  130MOL     H831226   3.561   5.717   5.212 -2.0199 -1.5837 -0.7344
  130MOL     H931227   3.285   5.638   5.145  0.9924 -1.3809  1.1569
  130MOL    H1031228   3.218   5.643   5.299  0.3152 -0.8399  1.4635
  130MOL    H1131229   3.384   5.584   5.282 -0.8288 -0.5659  1.6877
  130MOL    H1231230   3.447   6.018   5.336 -1.2464  0.8178  0.9163
  130MOL    H1331231   3.576   5.900   5.213 -0.1189 -0.1109  0.6386
  130MOL    C1431232   3.286   5.905   5.172 -1.0169  0.1756  0.0019
  130MOL    C1531233   3.130   5.934   5.172  0.4473 -0.5345 -0.4837
  130MOL    C1631234   3.116   6.050   5.078  0.5519 -0.6314 -0.0224
  130MOL    C1731235   3.062   5.811   5.101 -0.0791 -0.0968  0.5313
  130MOL    O1831236   2.979   5.734   5.155  0.1801 -0.0047 -0.4964
  130MOL    O1931237   3.095   5.801   4.973 -0.2683 -0.2575  0.0511
  130MOL    H2031238   3.332   6.002   5.190  0.8216 -0.5063 -0.8749
  130MOL    H2131239   3.321   5.880   5.072  0.1906 -1.4431  0.8068
  130MOL    H2231240   3.010   6.066   5.059  0.4481 -0.5121  0.6390
  130MOL    H2331241   3.162   6.035   4.980  1.5058 -0.9086  0.4534
  130MOL    H2431242   3.166   6.141   5.112  0.6534  0.0146 -1.8626
  130MOL    H2531243   3.053   5.728   4.931 -1.7159  0.9362 -0.6226
  130MOL    C2631244   3.079   5.975   5.320  0.5314  0.2588  0.1233
  130MOL    C2731245   2.949   6.066   5.349 -0.3329 -0.3130  0.3399
  130MOL    C2831246   2.988   6.212   5.301 -0.0628  0.2370 -0.2235
  130MOL    C2931247   2.827   6.028   5.262 -0.0397  0.3090 -0.2845
  130MOL    O3031248   2.780   6.106   5.180  0.3302  0.2707 -0.6501
  130MOL    O3131249   2.777   5.909   5.298 -0.1839 -0.4168  0.0610
  130MOL    H3231250   3.073   5.884   5.379 -0.8766 -0.1247 -0.5799
  130MOL    H3331251   3.165   6.024   5.366  0.0035  1.1369  0.1835
  130MOL    H3431252   3.008   6.230   5.196  1.5896 -1.2586 -0.1849
  130MOL    H3531253   3.080   6.233   5.354 -0.7564  0.7666  0.7845
  130MOL    H3631254   2.919   6.288   5.338 -1.4099 -1.8534  1.7302
  130MOL    H3731255   2.699   5.892   5.248 -0.9279  0.5784  0.8602
  130MOL    C3831256   2.912   6.063   5.505 -0.0444 -0.5568  0.4077
  130MOL    C3931257   2.980   6.144   5.624  0.2016 -0.2549 -0.7336
  130MOL    C4031258   3.134   6.121   5.622 -0.1530  0.7310  0.4717
  130MOL    C4131259   2.937   6.295   5.614 -0.1321 -0.2506 -0.1968
  130MOL    O4231260   2.826   6.330   5.586  0.4527 -0.0310 -0.1400
  130MOL    O4331261   3.024   6.391   5.658  0.3270 -0.2731  0.5666
  130MOL    H4431262   2.805   6.078   5.516  0.0955  0.6957  0.0884
  130MOL    H4531263   2.916   5.956   5.526 -1.8657 -0.6411  0.3917
  130MOL    H4631264   3.185   6.179   5.700 -0.7571  2.6264 -0.5232
  130MOL    H4731265   3.173   6.166   5.531 -1.3441 -0.5621 -0.7120
  130MOL    H4831266   3.154   6.014   5.628  0.6387  0.8149 -0.5890
  130MOL    H4931267   2.981   6.474   5.641  2.0333  0.1745 -1.8638
  130MOL    C5031268   2.905   6.081   5.754 -0.1205 -0.0157  0.3222
  130MOL    C5131269   2.948   6.096   5.904 -0.4424  0.0133 -0.4530
  130MOL    C5231270   2.969   6.239   5.930 -1.1674 -0.9236 -0.2180
  130MOL    C5331271   2.827   6.055   5.991  0.1030  0.1482 -0.1091
  130MOL    O5431272   2.737   5.986   5.946  0.4441  0.2711 -0.4130
  130MOL    O5531273   2.822   6.108   6.118 -0.1956  0.7730  0.1587
  130MOL    H5631274   2.800   6.110   5.744  0.1317  0.2411 -1.6371
  130MOL    H5731275   2.903   5.972   5.742 -1.9189 -0.1593  1.5742
  130MOL    H5831276   3.063   6.269   5.886 -1.1377 -0.1617  0.3472
  130MOL    H5931277   2.976   6.260   6.037 -2.0714  0.3481 -0.3914
  130MOL    H6031278   2.888   6.292   5.879 -1.0932 -0.3021  0.3027
  130MOL    H6131279   2.746   6.075   6.163  1.7812 -1.7291  1.8281
  130MOL    C6231280   3.079   6.019   5.935  0.6368 -0.0267 -0.0466
  130MOL    C6331281   3.135   5.977   6.082  0.0234  0.3334  0.4074
  130MOL    C6431282   3.143   6.098   6.182  0.0130  0.4120 -0.3947
  130MOL    C6531283   3.055   5.866   6.158  0.2882 -0.1963 -0.2134
  130MOL    O6631284   2.962   5.795   6.112 -0.5337 -0.2362 -0.3346
  130MOL    O6731285   3.099   5.837   6.282  0.0197  0.2296 -0.3272
  130MOL    H6831286   3.072   5.923   5.884 -0.2104 -0.0449  0.1033
  130MOL    H6931287   3.159   6.067   5.879  1.1553  0.7587  1.3476
  130MOL    H7031288   3.215   6.078   6.261 -0.0399  0.8100 -0.2414
  130MOL    H7131289   3.047   6.130   6.222 -0.0730 -3.2948  2.6182
  130MOL    H7231290   3.190   6.180   6.128  1.8479 -0.8252 -0.7418
  130MOL    H7331291   3.062   5.759   6.321  1.2852  0.6677  1.8369
  130MOL    C7431292   3.282   5.929   6.076 -0.6127 -0.3779 -0.0241
  130MOL    C7531293   3.343   5.811   5.987 -0.3583 -0.1028 -0.3096
  130MOL    C7631294   3.265   5.686   6.015  0.2585  0.5267  0.1974
  130MOL    C7731295   3.350   5.844   5.833  0.1621  0.2500  0.4046
  130MOL    O7831296   3.348   5.957   5.793 -0.2949  0.0464  0.8151
  130MOL    O7931297   3.366   5.733   5.759  0.2633  0.3813  0.1095
  130MOL    H8031298   3.338   6.016   6.042  1.9191 -1.0985  2.1344
  130MOL    H8131299   3.315   5.910   6.178  0.1625  0.3575 -0.1260
  130MOL    H8231300   3.312   5.595   5.978  0.5148  1.6283 -2.3001
  130MOL    H8331301   3.173   5.686   5.957  0.1506 -0.8958  0.3568
  130MOL    H8431302   3.237   5.669   6.119  0.1099 -3.5287 -0.4371
  130MOL    H8531303   3.371   5.763   5.670  0.1888 -0.1521 -0.0778
  130MOL    C8631304   3.490   5.772   6.028 -0.2091 -0.4874  0.3829
  130MOL    C8731305   3.623   5.861   6.017  0.1161 -0.0941 -0.4087
  130MOL    C8831306   3.670   5.866   5.870 -0.5736 -0.4925 -0.3882
  130MOL    C8931307   3.587   6.005   6.071 -0.0824 -0.2607  0.7088
  130MOL    O9031308   3.565   6.025   6.190 -0.4415 -0.0534  0.1212
  130MOL    O9131309   3.569   6.104   5.974 -0.0802  0.4086 -0.5641
  130MOL    H9231310   3.486   5.738   6.132 -1.3932 -0.8927  0.2054
  130MOL    H9331311   3.502   5.680   5.971 -1.2263  1.7105 -3.5589
  130MOL    H9431312   3.672   5.763   5.833  0.3908 -0.1333 -1.3605
  130MOL    H9531313   3.767   5.913   5.865 -1.8663  2.2679 -0.3288
  130MOL    H9631314   3.617   5.924   5.795 -0.6038  1.1938  0.9060
  130MOL    H9731315   3.555   6.185   6.020  0.0529 -0.1505  0.4778
  130MOL    C9831316   3.734   5.811   6.117  0.3262  0.3225 -0.0262
  130MOL    C9931317   3.807   5.667   6.116 -0.9178 -0.5346  0.7878
  130MOL   C10031318   3.702   5.562   6.148 -0.1373  0.5473 -0.1584
  130MOL   C10131319   3.877   5.655   5.979  0.6295 -0.0588  0.0250
  130MOL   O10231320   3.947   5.745   5.940 -0.2425 -0.0832  0.1780
  130MOL   O10331321   3.836   5.558   5.902 -0.1860 -0.8049  0.1182
  130MOL   H10431322   3.807   5.891   6.120  0.9018 -0.1681 -0.6634
  130MOL   H10531323   3.692   5.826   6.216 -0.7926  2.7717 -0.8449
  130MOL   H10631324   3.752   5.468   6.173  0.8494  1.2255  0.4343
  130MOL   H10731325   3.640   5.542   6.061  0.7386  0.4348 -0.7657
  130MOL   H10831326   3.633   5.578   6.231 -1.2368  1.4377 -1.2246
  130MOL   H10931327   3.908   5.559   5.841 -0.3530 -0.9033 -0.0797
  130MOL   C11031328   3.920   5.682   6.223 -0.6748  0.4820 -0.1775
  130MOL   C11131329   4.001   5.559   6.282  0.5517  0.3002 -0.9044
  130MOL   C11231330   4.036   5.449   6.176 -0.0449  0.6527 -1.0169
  130MOL   C11331331   4.128   5.621   6.351  0.5074 -0.1615 -0.0175
  130MOL   O11431332   4.128   5.736   6.390  0.7557  0.2936 -0.0540
  130MOL   O11531333   4.238   5.539   6.359  0.0173  0.3852 -0.0623
  130MOL   H11631334   3.982   5.767   6.193  0.9077 -0.4754  0.3202
  130MOL   H11731335   3.871   5.736   6.305 -0.3635 -1.0584  1.0600
  130MOL   H11831336   4.132   5.470   6.130 -0.0717  1.0129 -0.9065
  130MOL   H11931337   3.954   5.435   6.104  0.2509 -0.2152 -1.1915
  130MOL   H12031338   4.042   5.352   6.225 -1.5671  0.9829 -0.1566
  130MOL   H12131339   4.287   5.594   6.418 -1.9902 -1.2945  3.3619
  130MOL   C12231340   3.917   5.488   6.392 -0.3188 -0.5287  0.1591
  130MOL   C12331341   3.966   5.426   6.529  0.3643  0.6903 -0.0511
  130MOL   C12431342   4.065   5.311   6.503  0.0603 -0.0111  0.3957
  130MOL   C12531343   4.035   5.528   6.626  0.3281  0.5322 -0.5112
  130MOL   O12631344   4.148   5.516   6.675 -0.8410 -0.3586  0.5389
  130MOL   O12731345   3.953   5.637   6.636 -0.8333 -0.0097 -0.1937
  130MOL   H12831346   3.847   5.567   6.421  3.3008  2.2411  1.8429
  130MOL   H12931347   3.856   5.418   6.336 -0.3277  1.0468 -1.8805
  130MOL   H13031348   4.150   5.330   6.437 -0.4474 -1.7783 -0.8143
  130MOL   H13131349   4.015   5.220   6.468  1.9399 -0.9271  0.0296
  130MOL   H13231350   4.113   5.280   6.596 -0.6737  2.7169  1.7367
  130MOL   H13331351   3.991   5.703   6.693 -1.5483  0.4440 -0.2377
  130MOL   C13431352   3.832   5.371   6.593 -0.2887 -0.2546 -0.8455
  130MOL   C13531353   3.810   5.294   6.719  0.1511  0.5536 -0.2483
  130MOL   C13631354   3.652   5.260   6.723 -0.2367 -0.1395 -0.4668
  130MOL   C13731355   3.890   5.164   6.723  0.4482  0.3365  0.1575
  130MOL   O13831356   3.987   5.139   6.792 -0.6197 -0.1169  0.4355
  130MOL   O13931357   3.840   5.084   6.628  0.7065  0.0476 -0.1191
  130MOL   H14031358   3.769   5.459   6.608 -0.7378 -0.5161 -1.1797
  130MOL   H14131359   3.788   5.317   6.510 -0.2918 -2.0216  0.2795
  130MOL   H14231360   3.616   5.200   6.640 -0.1838  1.7788 -1.9225
  130MOL   H14331361   3.596   5.353   6.715  0.1764  0.0776 -0.8448
  130MOL   H14431362   3.611   5.221   6.817  3.5267 -0.7918  1.0098
  130MOL   H14531363   3.882   5.000   6.638  0.0950  0.0189  2.4034
  130MOL   C14631364   3.850   5.380   6.845 -1.1310  0.2294 -0.0506
  130MOL   C14731365   3.792   5.350   7.003 -0.4054 -0.3734  0.1247
  130MOL   C14831366   3.772   5.202   7.045 -0.8485  0.2652 -0.0075
  130MOL   C14931367   3.903   5.402   7.094  0.2641 -0.5285 -0.8934
  130MOL   O15031368   3.976   5.333   7.158 -0.3296  0.4569  0.3713
  130MOL   O15131369   3.926   5.535   7.071  0.3178 -0.3226  1.0779
  130MOL   H15231370   3.957   5.371   6.862 -0.8842  3.5325  0.2990
  130MOL   H15331371   3.828   5.482   6.814 -0.5671 -0.1832 -1.8591
  130MOL   H15431372   3.864   5.147   7.027 -1.6387 -0.9561 -0.3660
  130MOL   H15531373   3.698   5.140   6.994  0.7860 -0.5767 -1.4096
  130MOL   H15631374   3.766   5.202   7.154  0.9929  1.4040  0.1193
  130MOL   H15731375   4.005   5.566   7.114  1.9390 -0.2878 -1.7727
  130MOL   C15831376   3.652   5.431   7.013  0.0978 -0.0415  0.0308
  130MOL   C15931377   3.542   5.417   7.128  0.1923  0.0389  0.2283
  130MOL   C16031378   3.494   5.266   7.139 -0.4783  0.6212  0.0909
  130MOL   C16131379   3.621   5.446   7.259  0.4790 -0.2945  0.8572
  130MOL   O16231380   3.642   5.361   7.346 -0.7175  0.8318  0.2638
  130MOL   O16331381   3.667   5.572   7.264 -0.6636  0.7158  0.3900
  130MOL   H16431382   3.681   5.536   7.016  0.6352 -0.1979  0.2252
  130MOL   H16531383   3.595   5.415   6.921 -1.6902 -0.6664  1.2132
  130MOL   H16631384   3.546   5.201   7.209 -0.8037 -0.5586 -0.7549
  130MOL   H16731385   3.504   5.213   7.045  0.1050 -0.0312  0.5158
  130MOL   H16831386   3.389   5.259   7.168  0.3296 -0.9286  2.8037
  130MOL   H16931387   3.728   5.560   7.335 -2.1381 -1.3900  1.3720
  130MOL   C17031388   3.420   5.515   7.113 -0.3739  0.2728  0.7020
  130MOL   C17131389   3.337   5.530   6.982  0.2934  0.2343  0.0062
  130MOL   C17231390   3.304   5.388   6.931  0.6381  0.6991  0.3325
  130MOL   C17331391   3.205   5.597   7.015 -0.5022  0.0953 -0.9975
  130MOL   O17431392   3.099   5.556   6.964  0.0867 -0.2745 -0.5291
  130MOL   O17531393   3.208   5.709   7.092 -0.4980 -0.1978  0.0658
  130MOL   H17631394   3.353   5.498   7.197  0.6738 -2.1706  1.0915
  130MOL   H17731395   3.465   5.610   7.143  0.0774 -0.1491  1.3758
  130MOL   H17831396   3.253   5.324   7.003 -3.1097  2.1455 -0.9298
  130MOL   H17931397   3.393   5.327   6.911  0.5590  0.7035 -0.0494
  130MOL   H18031398   3.243   5.395   6.840  0.4845  2.5407  0.5738
  130MOL   H18131399   3.126   5.753   7.107 -0.8269 -1.0869  0.9622
  130MOL   C18231400   3.422   5.633   6.892  0.7902  0.1490 -0.5034
  130MOL   C18331401   3.383   5.688   6.750  0.2341  0.3457  0.6895
  130MOL   C18431402   3.369   5.569   6.648 -0.2062  0.2540  0.0034
  130MOL   C18531403   3.261   5.783   6.750 -0.8082 -0.1883  0.5337
  130MOL   O18631404   3.157   5.765   6.683 -0.4484 -0.0631 -0.8916
  130MOL   O18731405   3.288   5.893   6.821  0.4246  0.1787 -0.7462
  130MOL   H18831406   3.456   5.714   6.956 -1.5019  1.2475 -0.6071
  130MOL   H18931407   3.515   5.583   6.864  2.6481  3.6133 -0.7726
  130MOL   H19031408   3.340   5.590   6.545 -0.0719  0.2191 -0.0421
  130MOL   H19131409   3.282   5.516   6.686  0.4879  0.3588  1.8147
  130MOL   H19231410   3.452   5.498   6.641 -0.3169  0.2487 -1.4062
  130MOL   H19331411   3.217   5.955   6.815 -1.3000 -1.5438  0.9804
  130MOL   C19431412   3.512   5.770   6.711  0.0691  0.3601 -0.2825
  130MOL   C19531413   3.542   5.851   6.569  0.5244 -0.4583  0.1681
  130MOL   C19631414   3.672   5.793   6.522 -0.2269  0.3653 -0.6531
  130MOL   C19731415   3.441   5.810   6.459 -0.4086  0.0841 -0.4608
  130MOL   O19831416   3.465   5.726   6.372  0.0100  0.1105  0.1049
  130MOL   O19931417   3.329   5.886   6.453 -0.2319 -0.0049  0.0519
  130MOL   H20031418   3.532   5.840   6.792  2.4806  0.8931 -1.2758
  130MOL   H20131419   3.594   5.700   6.725  0.8978  1.2865 -0.4701
  130MOL   H20231420   3.694   5.829   6.421 -1.8469 -0.4091 -1.2973
  130MOL   H20331421   3.670   5.685   6.507  1.8525  0.5833 -2.8336
  130MOL   H20431422   3.753   5.830   6.585 -0.5679  0.1138 -0.0624
  130MOL   H20531423   3.262   5.846   6.400 -1.6264  2.2209  0.0918
  130MOL   C20631424   3.561   6.006   6.579  0.4278  0.0151 -0.7088
  130MOL   C20731425   3.677   6.086   6.655 -0.5224  0.5971  0.2804
  130MOL   C20831426   3.690   6.027   6.797 -0.6648 -0.3482 -0.9249
  130MOL   C20931427   3.819   6.074   6.586 -0.8074 -0.4414  0.3441
  130MOL   O21031428   3.921   6.076   6.650 -0.0830  0.4198  0.6022
  130MOL   O21131429   3.822   6.059   6.450 -0.1672  0.2563  0.2556
  130MOL   H21231430   3.565   6.047   6.478 -2.8408  1.2285 -0.4079
  130MOL   H21331431   3.467   6.032   6.627  2.2610  1.5475  2.2151
  130MOL   H21431432   3.591   6.026   6.843  0.3887  0.5692  1.4471
  130MOL   H21531433   3.761   6.073   6.866  0.2685 -1.3243 -1.2181
  130MOL   H21631434   3.719   5.922   6.802 -1.5552 -0.5548  0.4023
  130MOL   H21731435   3.915   6.061   6.430 -0.1959  0.3665  0.1348
  130MOL   C21831436   3.635   6.233   6.687  0.0467 -0.3344 -0.3861
  130MOL   C21931437   3.635   6.343   6.574  0.2041 -0.0423 -0.5681
  130MOL   C22031438   3.559   6.470   6.631  0.1908 -0.2668  0.2630
  130MOL   C22131439   3.774   6.383   6.535  0.3638  0.2907  0.3035
  130MOL   O22231440   3.839   6.348   6.439 -0.4158  0.0519  0.3886
  130MOL   O22331441   3.830   6.449   6.639 -0.0326 -0.0276  0.1842
  130MOL   H22431442   3.532   6.236   6.721 -0.7087 -0.3364 -2.5936
  130MOL   H22531443   3.696   6.280   6.764 -0.0176  1.5040 -1.4315
  130MOL   H22631444   3.612   6.514   6.715  1.7759 -1.4610 -0.0918
  130MOL   H22731445   3.457   6.447   6.661  0.8612  0.4794  3.2137
  130MOL   H22831446   3.556   6.550   6.556  1.3223  0.9362  1.4856
  130MOL   H22931447   3.922   6.466   6.630  0.2593 -0.6229  1.8934
  130MOL   C23031448   3.548   6.297   6.455  0.0845  0.1893  0.2209
  130MOL   C23131449   3.472   6.392   6.355  0.2582 -0.1165  0.2448
  130MOL   C23231450   3.345   6.465   6.390 -0.1782 -0.4454 -0.5893
  130MOL   C23331451   3.565   6.489   6.276  0.0860  1.0124 -0.7697
  130MOL   O23431452   3.607   6.595   6.317  0.0756  0.0935  0.6471
  130MOL   O23531453   3.590   6.440   6.151  0.0741 -0.0909 -1.1079
  130MOL   H23631454   3.620   6.250   6.388  0.1027  1.2895 -0.5420
  130MOL   H23731455   3.463   6.234   6.482  0.9476 -0.5120  1.3774
  130MOL   H23831456   3.289   6.395   6.453 -1.9060  0.7740 -0.7259
  130MOL   H23931457   3.287   6.492   6.301  1.5908  1.9480 -1.0639
  130MOL   H24031458   3.364   6.555   6.448  0.6502 -1.0589  0.1040
  130MOL   H24131459   3.654   6.492   6.105 -0.8275  0.7281 -1.4567
  130MOL   H24231460   3.438   6.322   6.279 -1.0592  0.1479  0.5899
  131MOL     C131461   6.671   4.005   6.195 -0.1959 -0.9337  0.6559
  131MOL     C231462   6.702   4.142   6.259 -0.2417 -0.0251 -0.3621
  131MOL     C331463   6.654   4.148   6.402 -0.0452 -0.5091  0.5611
  131MOL     C431464   6.853   4.153   6.283 -0.4967  0.2646 -0.4004
  131MOL     O531465   6.919   4.051   6.293  0.1264 -0.2956  0.5589
  131MOL     O631466   6.895   4.280   6.299 -0.3662 -0.2028  0.0046
  131MOL     H731467   6.712   3.990   6.094 -0.1473  1.6875  0.2455
  131MOL     H831468   6.564   3.986   6.187 -0.5143  0.4711  1.3786
  131MOL     H931469   6.690   4.235   6.457  0.2369 -0.3018  0.0498
  131MOL    H1031470   6.690   4.066   6.464 -0.7001 -0.1947  1.3651
  131MOL    H1131471   6.546   4.142   6.406  0.0393 -3.0707  0.0011
  131MOL    H1231472   6.986   4.285   6.326 -0.4963 -2.1263  0.8751
  131MOL    H1331473   6.712   3.922   6.252 -0.8806 -0.8538  1.2669
  131MOL    C1431474   6.643   4.258   6.167  0.0850 -0.3068 -0.3127
  131MOL    C1531475   6.661   4.283   6.014 -0.7705  0.6231  0.4209
  131MOL    C1631476   6.808   4.260   5.981 -0.2359  0.1358  0.2550
  131MOL    C1731477   6.579   4.174   5.933  0.3822 -0.0898  0.3874
  131MOL    O1831478   6.629   4.101   5.846 -0.6196  0.0314  0.1486
  131MOL    O1931479   6.442   4.182   5.950  0.5020  0.1769  0.0567
  131MOL    H2031480   6.536   4.239   6.181 -0.0672  1.0546  0.5026
  131MOL    H2131481   6.660   4.355   6.214  2.2082 -0.5175 -0.6153
  131MOL    H2231482   6.850   4.166   6.017 -0.7455 -0.9617 -1.9277
  131MOL    H2331483   6.877   4.330   6.027  0.0397  0.6541 -0.9249
  131MOL    H2431484   6.830   4.254   5.875 -0.3534 -0.5640  0.2650
  131MOL    H2531485   6.420   4.220   6.033 -2.0650  1.9553 -1.3688
  131MOL    C2631486   6.615   4.430   5.992  0.0096 -0.6571 -0.5789
  131MOL    C2731487   6.597   4.506   5.856  0.6723  0.2195 -0.6774
  131MOL    C2831488   6.719   4.507   5.764  0.1228 -0.4960  0.0347
  131MOL    C2931489   6.485   4.434   5.771 -0.4169  0.4649  0.0368
  131MOL    O3031490   6.508   4.352   5.680  0.1976  0.0929 -0.0776
  131MOL    O3131491   6.360   4.443   5.820 -0.1455  0.0330  0.1396
  131MOL    H3231492   6.532   4.448   6.061 -0.2784  1.4789 -1.4226
  131MOL    H3331493   6.690   4.493   6.041 -0.5450 -2.6431  2.9854
  131MOL    H3431494   6.800   4.570   5.800 -2.1153  1.4547  1.7627
  131MOL    H3531495   6.680   4.540   5.667  2.1134 -0.2900 -0.7129
  131MOL    H3631496   6.771   4.412   5.750  1.4265  0.1229  0.6160
  131MOL    H3731497   6.350   4.516   5.880  0.8539  0.2155  0.0879
  131MOL    C3831498   6.554   4.660   5.892  0.2515  0.0792  0.6264
  131MOL    C3931499   6.536   4.784   5.788 -0.1519 -0.2240 -0.8404
  131MOL    C4031500   6.676   4.820   5.729 -0.4680  0.4073  0.5003
  131MOL    C4131501   6.444   4.755   5.672 -0.1601  0.1843 -0.1214
  131MOL    O4231502   6.466   4.791   5.555 -0.6095 -0.2263  0.1390
  131MOL    O4331503   6.336   4.694   5.718 -0.6305  0.5963  0.1883
  131MOL    H4431504   6.455   4.651   5.938 -0.1507 -0.8901 -0.4077
  131MOL    H4531505   6.608   4.689   5.982 -0.3199  0.2623  0.9139
  131MOL    H4631506   6.756   4.795   5.799 -1.5897  0.2152  1.7501
  131MOL    H4731507   6.678   4.927   5.708 -3.3273  0.6244  1.1847
  131MOL    H4831508   6.689   4.764   5.637 -1.1779  1.9766 -0.5830
  131MOL    H4931509   6.285   4.676   5.640  1.5692 -0.7887 -0.9501
  131MOL    C5031510   6.469   4.897   5.883 -0.0280 -0.0533  0.3124
  131MOL    C5131511   6.407   5.030   5.829 -0.3709 -0.4188 -0.3599
  131MOL    C5231512   6.500   5.091   5.722  0.9944 -0.3192  0.7521
  131MOL    C5331513   6.264   5.007   5.780 -0.2816 -0.6029  0.1917
  131MOL    O5431514   6.228   4.994   5.663  0.9164 -0.5873 -0.0596
  131MOL    O5531515   6.177   4.981   5.882 -0.0295  0.2214 -0.3409
  131MOL    H5631516   6.394   4.851   5.947 -0.0915  2.3783  2.0383
  131MOL    H5731517   6.541   4.923   5.960  1.2773  0.9616 -1.2246
  131MOL    H5831518   6.448   5.182   5.692 -0.5331 -1.0146  1.2512
  131MOL    H5931519   6.519   5.035   5.630  0.2490  1.7614 -0.7085
  131MOL    H6031520   6.598   5.118   5.760  0.4358  1.0171  1.2688
  131MOL    H6131521   6.086   4.957   5.869 -0.5066  1.1887  1.0585
  131MOL    C6231522   6.401   5.140   5.951 -0.2154  0.9685  0.4187
  131MOL    C6331523   6.372   5.288   5.941  0.5372 -0.2815 -0.6358
  131MOL    C6431524   6.494   5.371   5.882  0.2911  0.2103  0.2575
  131MOL    C6531525   6.245   5.325   5.861  0.6177 -0.2666  0.6125
  131MOL    O6631526   6.250   5.415   5.777 -0.5135  0.1052 -0.6166
  131MOL    O6731527   6.130   5.255   5.891  0.3893  0.2163 -0.3614
  131MOL    H6831528   6.333   5.101   6.027 -0.4180 -2.7636 -1.5745
  131MOL    H6931529   6.501   5.144   5.994  0.6110 -1.6612 -1.1343
  131MOL    H7031530   6.588   5.335   5.924  0.1964 -0.2725  0.0678
  131MOL    H7131531   6.487   5.476   5.910 -0.7361 -0.1332  1.3228
  131MOL    H7231532   6.515   5.363   5.776  2.5610  1.5164  0.5690
  131MOL    H7331533   6.054   5.277   5.839 -0.4948 -0.3485  0.6688
  131MOL    C7431534   6.340   5.345   6.088 -0.0311  0.1159 -0.3655
  131MOL    C7531535   6.430   5.315   6.217 -0.2419 -0.8976 -0.6152
  131MOL    C7631536   6.408   5.163   6.258  0.2733  0.0950 -0.0028
  131MOL    C7731537   6.581   5.344   6.199  0.4629  0.0291 -0.2055
  131MOL    O7831538   6.671   5.264   6.220  0.0437 -0.1059  0.4904
  131MOL    O7931539   6.597   5.471   6.166 -0.8161 -0.4584  0.0070
  131MOL    H8031540   6.344   5.454   6.082  2.0524  0.2094  1.8567
  131MOL    H8131541   6.240   5.309   6.110 -0.4693  0.9005 -1.0366
  131MOL    H8231542   6.306   5.129   6.237  0.3916 -1.3113  1.5641
  131MOL    H8331543   6.421   5.165   6.367  2.9389 -0.6424 -0.2719
  131MOL    H8431544   6.472   5.079   6.231 -0.3012 -1.2906  2.7388
  131MOL    H8531545   6.690   5.473   6.151 -0.9506 -0.6032 -0.9280
  131MOL    C8631546   6.372   5.403   6.333  0.0746 -0.2647  0.5749
  131MOL    C8731547   6.228   5.402   6.413 -0.7995  0.6251 -0.8216
  131MOL    C8831548   6.178   5.256   6.438 -0.0555  0.7540  0.1541
  131MOL    C8931549   6.250   5.455   6.554  0.8165 -0.3596 -0.5506
  131MOL    O9031550   6.294   5.393   6.648 -0.3543 -0.3896 -0.0394
  131MOL    O9131551   6.238   5.582   6.561  0.2243 -0.4273  0.2199
  131MOL    H9231552   6.438   5.383   6.417  1.6706  0.2013 -0.5638
  131MOL    H9331553   6.387   5.509   6.313 -1.2559 -0.4424 -1.5358
  131MOL    H9431554   6.256   5.196   6.485 -0.6068  0.5517  0.8291
  131MOL    H9531555   6.150   5.210   6.344 -3.1236  0.2027  1.2717
  131MOL    H9631556   6.091   5.253   6.504 -1.3182  0.0778 -1.5392
  131MOL    H9731557   6.248   5.600   6.653  2.5299 -1.2418  0.1634
  131MOL    C9831558   6.130   5.485   6.327 -0.3874 -0.3196  1.0609
  131MOL    C9931559   5.976   5.480   6.328  0.2742  0.4094 -0.0856
  131MOL   C10031560   5.924   5.588   6.225  0.3529  0.1344 -0.2031
  131MOL   C10131561   5.930   5.352   6.268 -0.8488  0.2001  0.5195
  131MOL   O10231562   5.864   5.260   6.318 -0.3500  0.5491 -0.6036
  131MOL   O10331563   5.962   5.336   6.138 -0.1790 -0.2121  0.4619
  131MOL   H10431564   6.169   5.586   6.332  0.7208 -0.4954 -2.6334
  131MOL   H10531565   6.161   5.455   6.227  0.6642 -1.6149  1.7681
  131MOL   H10631566   5.986   5.584   6.135 -1.2025  1.4035 -1.3700
  131MOL   H10731567   5.935   5.683   6.277 -0.0877  0.1855 -0.1997
  131MOL   H10831568   5.822   5.570   6.190  0.6006 -1.6333 -0.0862
  131MOL   H10931569   5.908   5.271   6.096  2.5216 -3.0662  1.2409
  131MOL   C11031570   5.930   5.518   6.475  0.1122  0.0654  0.2250
  131MOL   C11131571   5.780   5.516   6.538  0.0867 -0.2681 -0.2453
  131MOL   C11231572   5.674   5.558   6.437 -0.2854 -0.0673 -0.3253
  131MOL   C11331573   5.749   5.374   6.593  0.4459 -0.4925 -0.8970
  131MOL   O11431574   5.822   5.320   6.674 -0.3621 -0.0172  0.2152
  131MOL   O11531575   5.633   5.313   6.545 -0.1514 -0.1901  0.2468
  131MOL   H11631576   5.988   5.449   6.536  0.3015 -0.3514 -0.4151
  131MOL   H11731577   5.968   5.619   6.488  1.1875 -0.4290  1.0006
  131MOL   H11831578   5.692   5.661   6.407 -1.4743  0.3297  0.3110
  131MOL   H11931579   5.568   5.546   6.458 -0.3054 -0.9112 -0.9098
  131MOL   H12031580   5.691   5.505   6.343  1.9571  0.5678 -0.3200
  131MOL   H12131581   5.606   5.238   6.597 -2.5332  1.2984  1.2481
  131MOL   C12231582   5.783   5.608   6.668  0.1471 -0.0094  0.6884
  131MOL   C12331583   5.651   5.643   6.753 -0.0115  0.4715  0.7179
  131MOL   C12431584   5.543   5.524   6.763  0.2293 -0.6212  0.0882
  131MOL   C12531585   5.717   5.653   6.894 -0.2682  0.0415  0.2690
  131MOL   O12631586   5.696   5.579   6.987 -0.2297  0.2255  0.3137
  131MOL   O12731587   5.803   5.755   6.903  0.0760  0.1482 -0.0032
  131MOL   H12831588   5.850   5.554   6.734  1.5590 -2.4181 -2.5443
  131MOL   H12931589   5.842   5.698   6.650 -0.4251  0.0710 -0.8908
  131MOL   H13031590   5.484   5.509   6.673 -0.2370  2.0674 -0.0816
  131MOL   H13131591   5.480   5.560   6.844 -1.4595 -1.5762 -0.7665
  131MOL   H13231592   5.576   5.424   6.792 -2.2609 -1.0601  1.5539
  131MOL   H13331593   5.826   5.758   6.995  1.3109  2.2119 -0.3361
  131MOL   C13431594   5.594   5.773   6.705  0.0332 -0.5154  0.0024
  131MOL   C13531595   5.458   5.837   6.750  0.5689 -0.4556  0.4152
  131MOL   C13631596   5.333   5.757   6.701 -0.4391 -0.5985  0.5358
  131MOL   C13731597   5.461   5.854   6.908 -0.5000 -0.4497  0.3046
  131MOL   O13831598   5.551   5.918   6.961  0.1836  0.0757 -0.0669
  131MOL   O13931599   5.359   5.791   6.967 -0.5254  0.3320 -0.1550
  131MOL   H14031600   5.665   5.855   6.719 -0.0840  0.1971 -3.3652
  131MOL   H14131601   5.586   5.770   6.597 -1.4572  1.7197  0.0150
  131MOL   H14231602   5.330   5.655   6.742 -1.5237 -2.2216 -3.3894
  131MOL   H14331603   5.337   5.746   6.593  0.5820 -0.0380  0.5076
  131MOL   H14431604   5.243   5.810   6.731 -0.3450  0.3688 -0.9041
  131MOL   H14531605   5.357   5.820   7.057 -0.0901  1.8406 -0.6260
  131MOL   C14631606   5.444   5.981   6.702 -0.3287  0.8276  0.4966
  131MOL   C14731607   5.445   6.039   6.554 -0.3943  0.5250 -0.3970
  131MOL   C14831608   5.358   5.965   6.454 -0.6200  0.4394  0.3209
  131MOL   C14931609   5.379   6.179   6.569  0.4314 -0.5535  0.6011
  131MOL   O15031610   5.257   6.195   6.551  0.1616 -0.3461 -0.3939
  131MOL   O15131611   5.465   6.263   6.636  0.2481  0.5181 -0.1648
  131MOL   H15231612   5.357   6.026   6.749  0.2720  1.1558  1.2992
  131MOL   H15331613   5.527   6.038   6.743  0.2635 -0.2543  0.8169
  131MOL   H15431614   5.327   6.016   6.363 -2.8931  0.4504  1.0769
  131MOL   H15531615   5.266   5.945   6.509  1.3325 -1.2471  3.0870
  131MOL   H15631616   5.412   5.874   6.427  2.2814  1.1699  3.3324
  131MOL   H15731617   5.412   6.340   6.652 -1.4584 -0.6434 -0.1279
  131MOL   C15831618   5.600   6.049   6.500  0.0845 -0.3274 -0.3690
  131MOL   C15931619   5.645   6.091   6.361 -0.0129  0.7092  0.4940
  131MOL   C16031620   5.608   5.975   6.263  0.4423 -0.1877  0.0792
  131MOL   C16131621   5.586   6.221   6.306 -0.3087  0.2324  0.1364
  131MOL   O16231622   5.536   6.232   6.195 -0.1793  0.1055  0.0362
  131MOL   O16331623   5.578   6.316   6.400  0.2061 -0.0125 -0.1952
  131MOL   H16431624   5.657   6.119   6.562  1.1965  0.1286 -1.8825
  131MOL   H16531625   5.644   5.950   6.516 -0.7060 -0.7898 -1.0112
  131MOL   H16631626   5.503   5.958   6.237  1.0701 -1.1870 -1.8762
  131MOL   H16731627   5.658   5.882   6.288  0.3512 -0.2148  0.1611
  131MOL   H16831628   5.639   6.007   6.164 -0.0738  1.7373  0.5100
  131MOL   H16931629   5.613   6.290   6.483  2.3197  3.3642  0.0568
  131MOL   C17031630   5.804   6.094   6.363 -0.2147  0.4677 -0.2182
  131MOL   C17131631   5.903   6.151   6.258  0.1294  0.0082 -0.6831
  131MOL   C17231632   5.887   6.075   6.120 -0.2050 -0.2603 -0.2186
  131MOL   C17331633   5.884   6.302   6.243  0.5043 -0.1231 -0.4115
  131MOL   O17431634   5.863   6.382   6.334 -0.3319  0.6029 -0.2343
  131MOL   O17531635   5.889   6.347   6.113 -0.4109  0.2928 -0.3635
  131MOL   H17631636   5.841   6.123   6.461  0.5766 -2.0288  0.2680
  131MOL   H17731637   5.838   5.990   6.360 -1.4592  0.0523 -0.4206
  131MOL   H17831638   5.905   5.968   6.125 -1.8122 -0.6458 -2.0110
  131MOL   H17931639   5.956   6.113   6.044 -1.1319  1.3826 -0.2763
  131MOL   H18031640   5.783   6.084   6.090 -0.2219 -1.2070 -0.4368
  131MOL   H18131641   5.901   6.440   6.114  1.7544  0.0289  0.0583
  131MOL   C18231642   6.051   6.111   6.297  0.5326  0.3209 -0.2858
  131MOL   C18331643   6.117   6.117   6.438  0.6878 -0.4385 -0.0732
  131MOL   C18431644   6.093   6.256   6.502  0.3041 -0.3719 -0.2893
  131MOL   C18531645   6.077   6.008   6.544  0.0367 -0.8957  0.7548
  131MOL   O18631646   5.992   5.926   6.518 -0.1608  0.2271 -0.6944
  131MOL   O18731647   6.129   6.032   6.668 -0.5176  0.4862 -0.2230
  131MOL   H18831648   6.067   6.007   6.269  0.7283  0.4448 -0.6303
  131MOL   H18931649   6.118   6.173   6.236  2.3183 -0.8904  0.3921
  131MOL   H19031650   5.997   6.269   6.553 -0.0443  0.0400 -1.0353
  131MOL   H19131651   6.102   6.343   6.436  0.3373 -0.9155 -1.0099
  131MOL   H19231652   6.179   6.283   6.562 -0.4213  2.2561 -0.3634
  131MOL   H19331653   6.118   5.957   6.725  2.4527 -1.0739 -1.6114
  131MOL   C19431654   6.278   6.115   6.416 -0.7950 -0.2897  0.4463
  131MOL   C19531655   6.352   5.993   6.334  0.0636 -0.2328  0.1563
  131MOL   C19631656   6.303   5.855   6.384 -0.2295  0.9742 -0.3277
  131MOL   C19731657   6.336   6.006   6.183 -0.2369  0.0101  0.8694
  131MOL   O19831658   6.311   6.112   6.126 -0.1121  0.4790 -0.1574
  131MOL   O19931659   6.356   5.892   6.113  0.6206 -0.1292 -0.0374
  131MOL   H20031660   6.305   6.212   6.374 -1.6076 -0.4497 -0.4556
  131MOL   H20131661   6.323   6.116   6.516  2.5695 -0.7343 -1.0134
  131MOL   H20231662   6.320   5.848   6.491  1.5110 -0.3675 -0.6712
  131MOL   H20331663   6.352   5.769   6.338  1.5278  1.2651  0.9204
  131MOL   H20431664   6.198   5.842   6.360 -0.1146  1.5906 -1.2079
  131MOL   H20531665   6.366   5.921   6.024  0.3781  0.4009  0.1039
  131MOL   C20631666   6.504   6.015   6.368 -0.2446  0.1366  0.1917
  131MOL   C20731667   6.628   5.937   6.303  0.2647  0.0931 -0.0105
  131MOL   C20831668   6.615   5.790   6.310  0.3691  0.1975 -0.8304
  131MOL   C20931669   6.656   5.977   6.160 -0.2075 -0.3093  0.7104
  131MOL   O21031670   6.663   5.903   6.061  0.3018 -0.0487 -0.0313
  131MOL   O21131671   6.648   6.112   6.134 -0.8277 -0.4203  0.5733
  131MOL   H21231672   6.522   6.122   6.359 -0.3361  0.2402  1.2190
  131MOL   H21331673   6.501   5.997   6.475 -0.1760  0.0612  0.1806
  131MOL   H21431674   6.551   5.761   6.226  0.3879 -0.4013 -0.6347
  131MOL   H21531675   6.583   5.755   6.408 -0.0059 -0.2868 -1.1243
  131MOL   H21631676   6.708   5.743   6.277  0.0734 -0.0511 -1.3189
  131MOL   H21731677   6.688   6.115   6.049  0.4456  2.8618  1.2266
  131MOL   C21831678   6.741   5.992   6.402  0.2489  0.1946 -0.3885
  131MOL   C21931679   6.896   6.007   6.361  0.1477 -0.1727  0.9024
  131MOL   C22031680   6.950   5.876   6.303  0.4687 -0.2408  0.6324
  131MOL   C22131681   6.915   6.129   6.267  0.3151 -0.1504 -0.9386
  131MOL   O22231682   6.980   6.128   6.167 -0.2012 -0.0407 -0.4444
  131MOL   O22331683   6.860   6.241   6.314  0.2970 -0.0930 -0.0473
  131MOL   H22431684   6.714   6.095   6.425  2.6863  1.1428 -1.6244
  131MOL   H22531685   6.748   5.941   6.498  1.6880 -0.1244 -0.6632
  131MOL   H22631686   6.938   5.804   6.383 -0.5411 -0.0196  0.6815
  131MOL   H22731687   7.057   5.874   6.282  0.2425  0.3253 -0.6241
  131MOL   H22831688   6.904   5.836   6.212  0.6095 -0.3522  0.6103
  131MOL   H22931689   6.889   6.306   6.251 -0.5359 -0.2377 -0.5794
  131MOL   C23031690   6.978   6.031   6.492 -0.3845  0.1923  0.1684
  131MOL   C23131691   7.132   6.052   6.474  0.2818 -0.1453  0.4553
  131MOL   C23231692   7.181   6.167   6.557  0.2443 -0.5737 -0.6112
  131MOL   C23331693   7.206   5.927   6.522  0.1628  0.2345  0.8762
  131MOL   O23431694   7.149   5.848   6.596  0.0088  0.5737 -0.2105
  131MOL   O23531695   7.333   5.908   6.482 -0.1919 -0.2322  0.0478
  131MOL   H23631696   6.934   6.124   6.527 -1.4622 -0.2963  0.1508
  131MOL   H23731697   6.948   5.954   6.563 -2.2191  0.1763 -0.5892
  131MOL   H23831698   7.174   6.262   6.505  0.5337  0.7045  1.6069
  131MOL   H23931699   7.290   6.164   6.555  0.3167  0.5000  0.9944
  131MOL   H24031700   7.150   6.166   6.662 -1.8222  1.4074 -1.1557
  131MOL   H24131701   7.375   5.837   6.529  0.0666 -0.1253 -0.0224
  131MOL   H24231702   7.176   6.068   6.376  2.3964  2.1931  1.7317
  132MOL     C131703   6.034   6.740   2.887  0.5532  0.0333 -0.1791
  132MOL     C231704   5.981   6.783   3.025 -0.5216  0.3676 -0.3378
  132MOL     C331705   5.831   6.824   3.011  0.2036  0.1597  0.2833
  132MOL     C431706   5.979   6.661   3.127  0.2058  0.5869 -0.1690
  132MOL     O531707   5.882   6.627   3.196  0.0827  0.0704  0.4960
  132MOL     O631708   6.097   6.605   3.137  0.3302 -0.4415  0.0979
  132MOL     H731709   5.987   6.647   2.855  1.1800 -0.5277  0.4978
  132MOL     H831710   6.142   6.732   2.881  0.7862 -1.2833  3.7926
  132MOL     H931711   5.810   6.912   2.951  1.9417  0.0455 -0.5196
  132MOL    H1031712   5.772   6.840   3.102  0.8342  3.5187  0.1465
  132MOL    H1131713   5.776   6.747   2.956  0.5810  0.7125 -0.8670
  132MOL    H1231714   6.086   6.538   3.202 -1.2779 -0.9356 -0.6681
  132MOL    H1331715   6.027   6.822   2.815 -2.4997  0.7987  0.8917
  132MOL    C1431716   6.068   6.893   3.094  0.5101 -0.3969  0.0796
  132MOL    C1531717   6.129   7.024   3.019 -0.6897 -0.2612 -0.3181
  132MOL    C1631718   6.223   6.979   2.904 -0.0197  0.1127 -0.2724
  132MOL    C1731719   6.009   7.109   2.976  0.1433  0.8146  0.1287
  132MOL    O1831720   5.993   7.167   2.867 -0.0071  0.0225  0.1818
  132MOL    O1931721   5.914   7.118   3.070 -0.7009 -0.2970  0.5257
  132MOL    H2031722   6.002   6.931   3.172 -0.5972 -0.0221 -1.0176
  132MOL    H2131723   6.152   6.851   3.150  1.3495  0.1810 -0.7228
  132MOL    H2231724   6.296   7.056   2.880 -0.1108  0.0903 -0.6141
  132MOL    H2331725   6.160   6.977   2.815 -1.7273 -1.6324  0.9124
  132MOL    H2431726   6.276   6.890   2.938 -0.4491  0.2521  0.7988
  132MOL    H2531727   5.845   7.174   3.037 -0.6310 -0.5909 -0.1277
  132MOL    C2631728   6.206   7.111   3.128 -0.3556 -0.4417 -0.4342
  132MOL    C2731729   6.309   7.222   3.101 -0.2469 -0.2266 -0.0885
  132MOL    C2831730   6.317   7.306   3.234  0.2690 -0.2141 -0.3277
  132MOL    C2931731   6.446   7.165   3.076 -0.4777 -0.1041  0.2343
  132MOL    O3031732   6.493   7.155   2.961 -0.2528 -0.1352 -0.1215
  132MOL    O3131733   6.519   7.137   3.187  0.1715  0.7839  0.2778
  132MOL    H3231734   6.126   7.147   3.191  0.2455 -1.0343  0.6830
  132MOL    H3331735   6.256   7.035   3.189 -1.7242 -1.5143 -0.6095
  132MOL    H3431736   6.403   7.373   3.232 -1.3438  1.8954 -2.6018
  132MOL    H3531737   6.329   7.227   3.308 -2.9483 -0.5515 -0.0737
  132MOL    H3631738   6.222   7.358   3.253  1.0167  1.2841 -0.5949
  132MOL    H3731739   6.609   7.123   3.159  0.1665 -1.7658  1.3527
  132MOL    C3831740   6.257   7.327   2.994  0.4995  0.1770  0.9337
  132MOL    C3931741   6.317   7.469   2.959  0.4309 -0.3443  0.0516
  132MOL    C4031742   6.267   7.579   3.057 -0.5763  0.3004  0.3635
  132MOL    C4131743   6.473   7.457   2.945 -0.3402 -0.1393 -0.6424
  132MOL    O4231744   6.536   7.405   2.853 -0.0965  0.4914 -0.1505
  132MOL    O4331745   6.536   7.493   3.060  0.3624 -0.4484  0.0365
  132MOL    H4431746   6.249   7.263   2.906  0.1249 -1.7513  2.3205
  132MOL    H4531747   6.153   7.354   3.010  0.8546  3.1127 -1.2563
  132MOL    H4631748   6.312   7.677   3.040 -0.5265  0.2896  0.4353
  132MOL    H4731749   6.297   7.561   3.160 -1.0922 -0.7106  0.3504
  132MOL    H4831750   6.160   7.596   3.055 -0.7318 -0.7285 -0.9248
  132MOL    H4931751   6.625   7.463   3.048  0.0701 -1.4148  0.2144
  132MOL    C5031752   6.264   7.502   2.816  0.0194  0.0253 -0.6189
  132MOL    C5131753   6.278   7.642   2.741  0.7344 -0.8407  0.3440
  132MOL    C5231754   6.152   7.727   2.780  0.1010  0.2886  0.7020
  132MOL    C5331755   6.405   7.727   2.776  0.5534  0.6031 -0.1317
  132MOL    O5431756   6.400   0.054   2.852 -0.2231 -0.3374 -0.5532
  132MOL    O5531757   6.518   7.691   2.717  0.4585  0.6780 -0.1579
  132MOL    H5631758   6.313   7.430   2.750  2.6732  2.0938 -1.0303
  132MOL    H5731759   6.160   7.472   2.817  0.6422 -2.1177  0.8308
  132MOL    H5831760   6.055   7.676   2.774 -0.0180  0.4925  0.8899
  132MOL    H5931761   6.146   0.059   2.736  2.0874 -0.0922 -0.5035
  132MOL    H6031762   6.163   7.756   2.884  1.8220  0.0966  0.5808
  132MOL    H6131763   6.581   7.752   2.752  0.2768  0.3917  0.6705
  132MOL    C6231764   6.282   7.620   2.583  0.2661 -0.9023 -0.1963
  132MOL    C6331765   6.166   7.567   2.489 -0.1820  0.5475 -0.8272
  132MOL    C6431766   6.085   7.448   2.564 -0.4279  0.3161  0.1236
  132MOL    C6531767   6.070   7.687   2.451 -0.0935  0.0641 -0.5034
  132MOL    O6631768   6.088   0.038   2.463 -0.2484 -0.7541  0.4388
  132MOL    O6731769   5.959   7.642   2.393  0.7070  0.2534  0.0107
  132MOL    H6831770   6.320   7.712   2.538 -1.4375 -0.5380 -0.9460
  132MOL    H6931771   6.364   7.551   2.566  0.7658 -0.0135 -1.4072
  132MOL    H7031772   6.015   7.415   2.488  0.0430 -0.4810  0.0323
  132MOL    H7131773   6.028   7.490   2.647  0.0124  2.0211 -0.4225
  132MOL    H7231774   6.146   7.363   2.595  2.6699  1.8198 -1.5326
  132MOL    H7331775   5.902   7.713   2.366 -0.3063 -0.8185 -0.7195
  132MOL    C7431776   6.226   7.498   2.359  0.5498  0.0076 -0.2711
  132MOL    C7531777   6.301   7.570   2.244 -0.5496  0.0800 -0.5639
  132MOL    C7631778   6.220   7.684   2.180  0.4412  0.2764 -0.5764
  132MOL    C7731779   6.434   7.630   2.296 -0.4347  0.3995  0.2892
  132MOL    O7831780   6.459   7.751   2.294  0.1705 -0.5345 -0.2529
  132MOL    O7931781   6.517   7.535   2.349  0.2652  0.2080 -0.5233
  132MOL    H8031782   6.296   7.428   2.406  0.7418  0.4053  0.0356
  132MOL    H8131783   6.139   7.449   2.314 -0.2174  1.1178 -0.0099
  132MOL    H8231784   6.259   7.720   2.084  4.6409  1.2936  1.4123
  132MOL    H8331785   6.219   0.003   2.246 -0.2751 -0.2374  0.0916
  132MOL    H8431786   6.118   7.651   2.162  0.0857  1.5824 -1.0090
  132MOL    H8531787   6.590   7.574   2.395  0.6010 -0.4418 -0.5034
  132MOL    C8631788   6.334   7.453   2.140  0.4465 -0.8108 -0.4631
  132MOL    C8731789   6.376   7.469   1.994 -0.0165  0.3447 -0.0356
  132MOL    C8831790   6.265   7.523   1.900 -0.4578  0.5670  0.1523
  132MOL    C8931791   6.502   7.567   1.984 -0.5265 -0.2160 -0.5927
  132MOL    O9031792   6.497   7.675   1.919 -0.3025 -0.0616 -0.1088
  132MOL    O9131793   6.606   7.516   2.059 -0.0697 -0.1035  0.5317
  132MOL    H9231794   6.397   7.385   2.196 -2.0521 -2.8353 -0.0075
  132MOL    H9331795   6.242   7.394   2.140  0.0412 -0.1999 -0.8884
  132MOL    H9431796   6.298   7.535   1.796  0.6288 -2.2877  0.1409
  132MOL    H9531797   6.232   7.626   1.917 -0.4020  0.9859 -2.0299
  132MOL    H9631798   6.167   7.477   1.911 -1.2005  0.9645 -3.8347
  132MOL    H9731799   6.673   7.578   2.035 -1.0272  0.0304 -1.8978
  132MOL    C9831800   6.414   7.325   1.941  0.3806  0.0809 -0.9710
  132MOL    C9931801   6.416   7.261   1.788 -1.0548 -0.0723 -0.1274
  132MOL   C10031802   6.271   7.220   1.754  0.2247 -0.3132  0.2489
  132MOL   C10131803   6.468   7.362   1.685 -0.0786  0.3766 -0.7730
  132MOL   O10231804   6.399   7.412   1.596 -0.5266 -0.1830  0.0494
  132MOL   O10331805   6.597   7.398   1.721 -0.7009  0.0941 -0.2161
  132MOL   H10431806   6.517   7.313   1.974  1.3861  1.5138 -3.4204
  132MOL   H10531807   6.371   7.253   2.009 -0.2157  1.3385 -0.0068
  132MOL   H10631808   6.203   7.306   1.758  0.8615  0.2564 -0.8964
  132MOL   H10731809   6.245   7.141   1.823  0.0544  0.6427  1.2949
  132MOL   H10831810   6.254   7.193   1.649 -1.6218 -0.3072  0.5328
  132MOL   H10931811   6.644   7.451   1.658  1.4450 -0.9503  0.4641
  132MOL   C11031812   6.497   7.129   1.798 -0.5364 -0.2944 -1.2152
  132MOL   C11131813   6.547   7.040   1.670  0.1312  0.0875 -0.0984
  132MOL   C11231814   6.578   6.900   1.730  0.5293 -0.1141  0.4019
  132MOL   C11331815   6.441   7.033   1.560 -0.2830  0.3437  0.5189
  132MOL   O11431816   6.432   7.107   1.459  0.0402 -0.4885  0.3121
  132MOL   O11531817   6.340   6.954   1.594  0.1496 -0.2000 -0.6836
  132MOL   H11631818   6.592   7.147   1.848  0.2589  0.0030 -2.7869
  132MOL   H11731819   6.463   7.071   1.884 -0.0027  0.4785 -0.4792
  132MOL   H11831820   6.495   6.859   1.788 -0.4437  2.0312  0.5677
  132MOL   H11931821   6.665   6.903   1.795 -1.2274  1.0435  2.7702
  132MOL   H12031822   6.587   6.824   1.652 -4.1013 -0.5252  0.0924
  132MOL   H12131823   6.278   6.962   1.523 -2.8491 -0.6592  1.7906
  132MOL   C12231824   6.679   7.105   1.609 -0.4351  0.5088 -0.1958
  132MOL   C12331825   6.790   7.018   1.529 -0.2822  0.9448 -0.3309
  132MOL   C12431826   6.881   7.125   1.469  0.0054 -0.1475  0.1801
  132MOL   C12531827   6.877   6.933   1.634 -0.4360 -0.1624 -0.1543
  132MOL   O12631828   6.949   6.986   1.718 -0.3860 -0.0172 -0.3160
  132MOL   O12731829   6.845   6.799   1.639 -0.4766 -0.2575  0.2438
  132MOL   H12831830   6.648   7.187   1.544 -2.2733  0.4599  0.5925
  132MOL   H12931831   6.736   7.162   1.683  0.1062  1.7820 -1.5689
  132MOL   H13031832   6.844   7.171   1.378  0.5468 -1.4732 -0.7173
  132MOL   H13131833   6.978   7.085   1.442  0.8866  0.2052  2.6915
  132MOL   H13231834   6.908   7.197   1.547  1.3222 -1.1988  0.7076
  132MOL   H13331835   6.899   6.758   1.705  1.7967 -0.0523 -1.4361
  132MOL   C13431836   6.730   6.927   1.417  0.8561  0.3056  0.4067
  132MOL   C13531837   6.812   6.854   1.308  0.2730  0.6463  0.6273
  132MOL   C13631838   6.851   6.943   1.189  0.2840  0.0119 -0.5465
  132MOL   C13731839   6.945   6.791   1.359 -0.0286  0.0461  1.3831
  132MOL   O13831840   6.960   6.679   1.396  0.9574  0.7127  0.5777
  132MOL   O13931841   7.043   6.884   1.362 -0.2358 -0.4106  0.4139
  132MOL   H14031842   6.675   6.845   1.463  0.7962  1.3310  2.2523
  132MOL   H14131843   6.667   6.990   1.353 -1.3012 -0.6428  1.5391
  132MOL   H14231844   6.766   6.995   1.143  0.0472 -0.5837 -0.7864
  132MOL   H14331845   6.898   6.891   1.106  0.5528  1.2857 -1.2109
  132MOL   H14431846   6.925   7.017   1.221 -0.5379 -0.2452  2.0761
  132MOL   H14531847   7.122   6.844   1.395  0.0161  0.3741  0.7611
  132MOL   C14631848   6.730   6.737   1.244 -0.0243 -0.1890 -0.7673
  132MOL   C14731849   6.578   6.746   1.184  0.4660  0.5718  0.3212
  132MOL   C14831850   6.473   6.777   1.299 -0.2070 -0.5351  0.4867
  132MOL   C14931851   6.557   6.857   1.070  0.4748 -0.2761  0.1876
  132MOL   O15031852   6.470   6.940   1.079 -0.4612 -0.3083  0.1405
  132MOL   O15131853   6.648   6.843   0.966 -0.0125 -0.1651 -0.2273
  132MOL   H15231854   6.792   6.697   1.164 -0.7705  0.7225 -1.8076
  132MOL   H15331855   6.720   6.667   1.327 -0.8168  0.1526 -0.5640
  132MOL   H15431856   6.493   6.876   1.341 -0.8670  0.6281 -1.8366
  132MOL   H15531857   6.486   6.704   1.378 -0.9824 -0.5618  0.5948
  132MOL   H15631858   6.367   6.781   1.275 -0.7130  0.5455  2.7425
  132MOL   H15731859   6.633   6.918   0.911 -1.0036 -0.5871 -0.5365
  132MOL   C15831860   6.541   6.607   1.131  0.5124  0.4469  0.2612
  132MOL   C15931861   6.395   6.542   1.140 -0.0970 -0.2748  0.2189
  132MOL   C16031862   6.349   6.499   1.278 -0.0276 -0.6569  0.1457
  132MOL   C16131863   6.292   6.635   1.066 -0.3354 -0.0230  0.0403
  132MOL   O16231864   6.312   6.702   0.966  0.0153  0.3264 -0.3290
  132MOL   O16331865   6.173   6.643   1.139 -0.1175 -0.3756 -0.0092
  132MOL   H16431866   6.557   6.593   1.024 -1.4112 -0.1475  0.0327
  132MOL   H16531867   6.608   6.534   1.178 -0.9492  0.3077  2.2132
  132MOL   H16631868   6.325   6.583   1.343 -0.7409 -1.5234  1.0072
  132MOL   H16731869   6.433   6.449   1.325 -0.5552 -1.3562  0.3382
  132MOL   H16831870   6.272   6.423   1.288  0.1313 -0.5831  1.9551
  132MOL   H16931871   6.101   6.685   1.094  0.1761  1.3338  1.0829
  132MOL   C17031872   6.398   6.412   1.052  0.4488  0.2401  0.3081
  132MOL   C17131873   6.507   6.295   1.050 -0.6334  0.1071  0.1664
  132MOL   C17231874   6.453   6.177   0.957  0.2063  0.0963 -0.6012
  132MOL   C17331875   6.631   6.352   0.978 -0.6208  0.0514 -0.5777
  132MOL   O17431876   6.743   6.365   1.030 -0.5781  0.4273 -0.0063
  132MOL   O17531877   6.607   6.384   0.848  0.7306  0.4593 -0.5593
  132MOL   H17631878   6.310   6.357   1.088  1.6636 -1.1657  1.1899
  132MOL   H17731879   6.391   6.441   0.947 -0.6662  1.6582  0.7507
  132MOL   H17831880   6.365   6.132   1.002  0.2699  2.0547  1.6184
  132MOL   H17931881   6.524   6.102   0.923  0.1290 -0.3235  0.1721
  132MOL   H18031882   6.398   6.211   0.869 -0.1257  2.0771  0.3265
  132MOL   H18131883   6.520   6.370   0.814  0.1030  0.6414  0.9294
  132MOL   C18231884   6.534   6.257   1.203  0.5542 -0.0766  0.2720
  132MOL   C18331885   6.598   6.122   1.252 -0.0560  0.2556  0.0854
  132MOL   C18431886   6.486   6.014   1.250 -0.0015  0.1530  0.2608
  132MOL   C18531887   6.713   6.071   1.155  0.4664  0.2502 -0.3235
  132MOL   O18631888   6.703   5.978   1.077 -0.0814 -0.0733  0.1712
  132MOL   O18731889   6.832   6.137   1.174 -0.0177 -0.0216 -0.2579
  132MOL   H18831890   6.590   6.332   1.259  0.5439 -0.8456  1.3474
  132MOL   H18931891   6.432   6.257   1.242  0.7334 -0.5084  0.7553
  132MOL   H19031892   6.400   6.040   1.312  1.1732 -0.3116  2.1157
  132MOL   H19131893   6.518   5.919   1.294 -2.6616  0.3051  2.6747
  132MOL   H19231894   6.449   6.004   1.148  1.0029 -0.6508 -0.0376
  132MOL   H19331895   6.904   6.110   1.118 -0.3900 -3.0018  0.5758
  132MOL   C19431896   6.649   6.103   1.403  0.0545 -0.3270 -0.0611
  132MOL   C19531897   6.705   6.228   1.487  0.3636 -0.2336  0.1407
  132MOL   C19631898   6.818   6.306   1.408 -0.1282  0.5483 -0.1206
  132MOL   C19731899   6.588   6.314   1.533 -0.2475  0.2064  0.1047
  132MOL   O19831900   6.484   6.265   1.588 -0.0106 -0.3033 -0.4879
  132MOL   O19931901   6.616   6.446   1.528  0.3148  0.6121  0.2468
  132MOL   H20031902   6.575   6.056   1.467 -0.8558  0.0182 -0.8476
  132MOL   H20131903   6.729   6.029   1.410 -0.6317 -1.2294 -1.7193
  132MOL   H20231904   6.918   6.266   1.423  0.0540  1.2856  0.6546
  132MOL   H20331905   6.828   6.407   1.447  2.2824  1.0515 -1.9225
  132MOL   H20431906   6.797   6.325   1.302 -1.1239 -0.2302 -0.0718
  132MOL   H20531907   6.542   6.494   1.560  0.7050 -0.0346  2.2103
  132MOL   C20631908   6.780   6.149   1.603 -0.1125  0.0937 -0.6345
  132MOL   C20731909   6.834   6.198   1.740  0.0543 -0.1703  0.5718
  132MOL   C20831910   6.714   6.229   1.836 -0.0800  0.2939 -0.2709
  132MOL   C20931911   6.911   6.073   1.799 -0.3583 -0.2218  0.4735
  132MOL   O21031912   6.875   5.992   1.879  0.0385 -0.1621  0.9538
  132MOL   O21131913   7.036   6.061   1.741 -0.2129  0.0879 -0.1196
  132MOL   H21231914   6.716   6.067   1.635  1.9275 -1.4250 -0.3779
  132MOL   H21331915   6.860   6.089   1.559  0.0258 -2.8698  3.4111
  132MOL   H21431916   6.652   6.317   1.817  0.1117  0.9695  2.0566
  132MOL   H21531917   6.739   6.239   1.942 -2.1861 -2.0153  0.4942
  132MOL   H21631918   6.642   6.148   1.828  1.4320 -0.9883 -1.1516
  132MOL   H21731919   7.083   5.991   1.784  0.9045  0.5266 -0.5926
  132MOL   C21831920   6.928   6.318   1.723  1.1714  0.7717  0.3910
  132MOL   C21931921   6.998   6.408   1.830  0.3220 -0.2316 -0.6970
  132MOL   C22031922   6.883   6.497   1.893  0.6322  0.5624 -0.3123
  132MOL   C22131923   7.071   6.329   1.949  0.0354 -0.4010 -0.1032
  132MOL   O22231924   7.040   6.341   2.064  0.3175 -0.4078 -0.6815
  132MOL   O22331925   7.177   6.250   1.907 -0.0913 -0.7047 -0.0574
  132MOL   H22431926   7.008   6.293   1.653  1.0097  1.7691 -0.1697
  132MOL   H22531927   6.873   6.392   1.665  0.4111 -0.0857  0.0083
  132MOL   H22631928   6.816   6.444   1.960 -0.8007  2.0162 -0.5613
  132MOL   H22731929   6.809   6.529   1.820 -0.4022 -2.8828 -0.8909
  132MOL   H22831930   6.921   6.583   1.948  1.7344 -1.8340  2.7891
  132MOL   H22931931   7.179   6.230   1.815  3.3350 -2.6988  0.3655
  132MOL   C23031932   7.112   6.495   1.765  0.2753 -0.2089 -0.2837
  132MOL   C23131933   7.183   6.606   1.856 -0.3038 -0.8153  0.3773
  132MOL   C23231934   7.328   6.570   1.877  0.2383 -0.3479  0.1288
  132MOL   C23331935   7.168   6.751   1.792 -0.4217  0.0680  0.0450
  132MOL   O23431936   7.228   6.792   1.690  0.2629  0.0272 -0.2015
  132MOL   O23531937   7.069   6.817   1.862  0.7315  0.3230  0.1986
  132MOL   H23631938   7.198   6.441   1.725  0.9314  0.9624 -0.4883
  132MOL   H23731939   7.060   6.544   1.683 -0.7540 -1.4217 -0.3781
  132MOL   H23831940   7.373   6.537   1.783  0.1349 -1.2541  0.3884
  132MOL   H23931941   7.323   6.482   1.941  0.7290 -0.9544 -0.6545
  132MOL   H24031942   7.390   6.642   1.931 -0.1765  0.1349 -0.0388
  132MOL   H24131943   7.048   6.899   1.821  0.7513  0.1091 -0.2369
  132MOL   H24231944   7.140   6.613   1.956 -1.4310 -1.8679 -0.0230
  133MOL     C131945   5.102   6.397   5.091  0.4595 -0.3056 -0.0126
  133MOL     C231946   5.252   6.367   5.084  0.1211  0.6313  0.6236
  133MOL     C331947   5.286   6.411   4.939  0.0238  0.1569  0.3584
  133MOL     C431948   5.329   6.463   5.181 -0.2816  0.3058 -0.1914
  133MOL     O531949   5.277   6.537   5.267 -0.4594  0.3772  0.6572
  133MOL     O631950   5.460   6.453   5.152  0.5823 -0.1398  0.0758
  133MOL     H731951   5.085   6.493   5.042  0.7655 -0.5754 -0.6437
  133MOL     H831952   5.064   6.402   5.193  0.3092 -0.7418 -0.0479
  133MOL     H931953   5.391   6.387   4.922  0.1319  1.9035 -1.6838
  133MOL    H1031954   5.275   6.519   4.931 -0.7267  0.2752  2.8417
  133MOL    H1131955   5.234   6.369   4.852 -0.8986  0.7258  0.6315
  133MOL    H1231956   5.500   6.495   5.226  1.8615 -0.5403 -0.3756
  133MOL    H1331957   5.043   6.325   5.035 -0.0748  1.0222 -1.1737
  133MOL    C1431958   5.295   6.213   5.106 -0.6091  0.0081  0.2581
  133MOL    C1531959   5.247   6.123   5.227 -0.5956 -0.1652  0.3773
  133MOL    C1631960   5.258   6.207   5.361 -0.5114  0.2434  0.1720
  133MOL    C1731961   5.095   6.102   5.208 -0.4964  0.2666  0.1602
  133MOL    O1831962   5.004   6.143   5.279 -0.0824  0.4777 -0.2530
  133MOL    O1931963   5.079   6.040   5.088 -0.3192  0.4623  0.2130
  133MOL    H2031964   5.291   6.168   5.007  2.1333 -2.8001  1.3677
  133MOL    H2131965   5.403   6.219   5.111 -0.3703 -1.1528 -2.3665
  133MOL    H2231966   5.231   6.158   5.455  0.9472 -0.5168  0.2186
  133MOL    H2331967   5.201   6.299   5.354  1.3107  1.2580 -2.3939
  133MOL    H2431968   5.365   6.225   5.371 -0.7785  1.2654  1.3204
  133MOL    H2531969   4.987   6.041   5.065  0.0914  1.4399 -1.5321
  133MOL    C2631970   5.338   5.989   5.230 -0.0315 -0.4769 -0.1675
  133MOL    C2731971   5.294   5.848   5.296  0.0308 -0.5691 -0.1925
  133MOL    C2831972   5.420   5.761   5.308 -0.1914  0.3393 -0.3931
  133MOL    C2931973   5.227   5.874   5.432 -0.1702 -0.9956 -0.4688
  133MOL    O3031974   5.114   5.900   5.447  0.3759  0.4486  0.1746
  133MOL    O3131975   5.307   5.856   5.536 -0.0551 -0.2701 -0.4500
  133MOL    H3231976   5.386   5.970   5.134  1.0566  1.0244  0.0549
  133MOL    H3331977   5.424   6.024   5.288 -0.3432 -0.9521  0.5949
  133MOL    H3431978   5.441   5.724   5.207  0.0676 -1.6512  0.3587
  133MOL    H3531979   5.388   5.675   5.368 -0.2009  0.4949 -0.1756
  133MOL    H3631980   5.504   5.810   5.358  1.7334 -2.7229 -0.4708
  133MOL    H3731981   5.259   5.886   5.612 -2.5768 -2.4141 -1.1111
  133MOL    C3831982   5.189   5.768   5.202 -0.0676 -0.3176 -0.0009
  133MOL    C3931983   5.146   5.614   5.219 -0.1178 -0.0734 -0.5166
  133MOL    C4031984   5.262   5.515   5.184  0.4226 -0.2538 -1.2882
  133MOL    C4131985   5.123   5.582   5.373 -0.5186 -0.9498  0.2183
  133MOL    O4231986   5.192   5.507   5.445  0.1237  0.1366  0.0909
  133MOL    O4331987   5.003   5.636   5.415 -0.1100  0.2011 -0.2128
  133MOL    H4431988   5.096   5.824   5.189  0.6011  0.7732 -0.1307
  133MOL    H4531989   5.227   5.790   5.102 -1.1374 -0.0872 -0.3638
  133MOL    H4631990   5.212   5.419   5.196 -2.5760  1.3422 -0.5817
  133MOL    H4731991   5.346   5.508   5.253 -1.1448 -1.2748  0.5913
  133MOL    H4831992   5.303   5.526   5.084 -0.5095 -0.2505 -1.6748
  133MOL    H4931993   4.974   5.697   5.348  1.6312  0.8236 -0.4319
  133MOL    C5031994   5.014   5.583   5.138 -0.1049  0.6794 -0.4154
  133MOL    C5131995   5.006   5.545   4.982  0.1687 -0.1724 -0.5007
  133MOL    C5231996   5.090   5.654   4.916  0.8386 -0.0817  0.0644
  133MOL    C5331997   5.061   5.405   4.965  0.0468  0.3634 -0.7510
  133MOL    O5431998   5.160   5.372   4.897 -0.3704  0.0656  0.1444
  133MOL    O5531999   4.976   5.319   5.027 -0.3230  0.0252  0.0521
  133MOL    H5632000   4.975   5.495   5.189 -0.0489 -0.2738 -1.9759
  133MOL    H5732001   4.940   5.661   5.156 -1.1656 -0.2486 -0.7103
  133MOL    H5832002   5.196   5.646   4.940  0.7304 -2.8551 -0.1995
  133MOL    H5932003   5.061   5.756   4.942 -2.5972 -1.1345  0.5983
  133MOL    H6032004   5.094   5.643   4.807 -0.5515  0.2483 -0.0313
  133MOL    H6132005   5.010   5.232   5.014 -2.4792 -0.6565 -1.3531
  133MOL    C6232006   4.856   5.555   4.928  0.2714  0.2015 -0.8602
  133MOL    C6332007   4.802   5.496   4.790  0.3997 -0.4590 -0.3131
  133MOL    C6432008   4.673   5.585   4.767 -0.5119  0.3302  0.3233
  133MOL    C6532009   4.904   5.521   4.677  0.3746  0.1834  0.3668
  133MOL    O6632010   4.908   5.628   4.613  0.3118  0.6323  0.2934
  133MOL    O6732011   4.995   5.416   4.661  0.1169 -0.7574  0.7821
  133MOL    H6832012   4.811   5.496   5.008  1.3536  0.5815  0.0492
  133MOL    H6932013   4.823   5.656   4.951 -2.1377 -1.0008  1.1535
  133MOL    H7032014   4.600   5.565   4.845 -1.9367  5.1359  0.3819
  133MOL    H7132015   4.638   5.571   4.665  2.1017 -1.6676 -0.3836
  133MOL    H7232016   4.678   5.694   4.772 -1.6940  0.3436  1.4384
  133MOL    H7332017   5.052   5.439   4.589 -2.3093  1.0099 -0.6533
  133MOL    C7432018   4.765   5.350   4.807  0.0430  0.2640  0.7593
  133MOL    C7532019   4.671   5.271   4.704 -0.2288 -0.3962  0.5204
  133MOL    C7632020   4.714   5.302   4.561  0.6193 -0.3106 -0.2139
  133MOL    C7732021   4.697   5.122   4.732 -0.8309 -0.5171  0.1772
  133MOL    O7832022   4.716   5.042   4.641  0.7689  0.1383  0.0788
  133MOL    O7932023   4.719   5.094   4.863  0.6080  0.1746 -0.0231
  133MOL    H8032024   4.850   5.286   4.830 -0.3675  0.1901  2.1344
  133MOL    H8132025   4.707   5.337   4.899  0.6219  0.4310  1.1505
  133MOL    H8232026   4.671   5.391   4.515 -0.9261  0.1348  2.0225
  133MOL    H8332027   4.684   5.220   4.494  0.7894 -0.7469  0.2388
  133MOL    H8432028   4.822   5.306   4.548  0.7806  0.5950  1.3581
  133MOL    H8532029   4.733   5.002   4.877  0.6003  0.4064  1.6810
  133MOL    C8632030   4.522   5.318   4.709  0.1483 -0.7483 -0.2885
  133MOL    C8732031   4.389   5.224   4.680  0.4568 -0.3684 -1.0341
  133MOL    C8832032   4.405   5.149   4.543 -0.3269 -1.1277 -0.3143
  133MOL    C8932033   4.367   5.121   4.794  0.2058  0.2457 -0.0760
  133MOL    O9032034   4.435   5.118   4.897  0.0953 -0.1055  0.0699
  133MOL    O9132035   4.285   5.025   4.750  0.0801 -0.3481 -0.4638
  133MOL    H9232036   4.508   5.358   4.810 -2.3354 -0.1747 -0.8344
  133MOL    H9332037   4.517   5.407   4.646  0.2261  0.9097  1.9707
  133MOL    H9432038   4.318   5.087   4.522 -1.4681  0.1256  0.7054
  133MOL    H9532039   4.493   5.084   4.542  2.0426  1.9855 -2.2861
  133MOL    H9632040   4.425   5.222   4.465  2.2831 -1.0588  0.3649
  133MOL    H9732041   4.270   4.960   4.817  1.7968 -0.1429  0.1395
  133MOL    C9832042   4.257   5.314   4.662 -0.2500  0.2699 -0.0545
  133MOL    C9932043   4.193   5.414   4.764 -0.8389  0.1062  0.5247
  133MOL   C10032044   4.170   5.361   4.909  0.3545  0.0757  0.3773
  133MOL   C10132045   4.284   5.540   4.761 -0.3064 -0.1007  0.1100
  133MOL   O10232046   4.320   5.598   4.864  0.7586 -0.5427  0.8687
  133MOL   O10332047   4.300   5.591   4.637 -0.2468 -0.6352 -0.4560
  133MOL   H10432048   4.266   5.365   4.566 -2.4233 -1.0238 -0.9834
  133MOL   H10532049   4.183   5.237   4.645 -0.2291  0.6539 -1.9429
  133MOL   H10632050   4.258   5.304   4.936 -0.0963 -2.1000 -2.4728
  133MOL   H10732051   4.092   5.285   4.906 -0.3681  0.7736  1.3190
  133MOL   H10832052   4.158   5.427   4.995 -1.4961 -0.6702  0.7238
  133MOL   H10932053   4.348   5.672   4.637 -2.1987  0.6384  2.8596
  133MOL   C11032054   4.062   5.456   4.689 -0.1207  0.4220 -0.8762
  133MOL   C11132055   3.946   5.534   4.759  1.2700 -0.4335  0.1251
  133MOL   C11232056   3.846   5.551   4.645 -0.0702  0.7833 -0.5725
  133MOL   C11332057   3.879   5.451   4.868 -0.4886  0.9783 -0.3115
  133MOL   O11432058   3.901   5.460   4.988 -0.1932 -0.4626 -0.1325
  133MOL   O11532059   3.792   5.356   4.822  0.0759 -0.2661  0.1788
  133MOL   H11632060   4.088   5.513   4.600  2.8937  0.2154 -0.1999
  133MOL   H11732061   4.010   5.364   4.662  0.4281 -0.9005  2.3364
  133MOL   H11832062   3.893   5.611   4.567  1.6398  1.1026  0.6900
  133MOL   H11932063   3.747   5.585   4.676  0.2514  2.1221 -0.9839
  133MOL   H12032064   3.827   5.462   4.585  1.9877  0.0498 -0.1492
  133MOL   H12132065   3.768   5.308   4.900 -0.2991  0.9344  0.8105
  133MOL   C12232066   3.995   5.676   4.811 -0.2310 -0.1141 -0.1867
  133MOL   C12332067   3.897   5.797   4.842 -0.3628  0.8580  0.2412
  133MOL   C12432068   3.786   5.754   4.941 -0.3074  0.8356  0.5872
  133MOL   C12532069   3.984   5.894   4.929  0.1032  0.0973  0.6808
  133MOL   O12632070   3.947   5.955   5.027  0.3133  0.1122 -0.5141
  133MOL   O12732071   4.107   5.904   4.870 -0.9043  0.0962  0.7683
  133MOL   H12832072   4.056   5.665   4.900 -1.8087  0.2777  0.9538
  133MOL   H12932073   4.057   5.706   4.726 -1.4196 -0.1518 -1.0901
  133MOL   H13032074   3.715   5.680   4.905  1.7365 -0.4276 -0.9756
  133MOL   H13132075   3.722   5.833   4.981 -0.2270 -0.3170  3.1300
  133MOL   H13232076   3.834   5.715   5.031  0.1612 -0.2141 -0.1159
  133MOL   H13332077   4.157   5.951   4.935 -0.7717 -0.0002  0.7359
  133MOL   C13432078   3.853   5.874   4.716 -0.6653  0.0618  0.0582
  133MOL   C13532079   3.730   5.980   4.704  0.3152 -0.3972 -0.2219
  133MOL   C13632080   3.754   6.063   4.579 -0.0430  0.0412 -0.0507
  133MOL   C13732081   3.611   5.883   4.683 -0.1043 -0.3728 -0.8188
  133MOL   O13832082   3.537   5.836   4.770 -0.6165  0.2469 -0.3916
  133MOL   O13932083   3.611   5.832   4.554  0.6868 -0.3756 -0.0160
  133MOL   H14032084   3.946   5.924   4.687  0.8394 -1.8734  1.4361
  133MOL   H14132085   3.855   5.810   4.628 -1.5088  0.5744 -0.3371
  133MOL   H14232086   3.660   6.083   4.528  0.6340  2.6886 -0.3178
  133MOL   H14332087   3.798   6.007   4.496 -1.4343 -0.0896 -0.7086
  133MOL   H14432088   3.811   6.154   4.596 -1.8439  0.9879  0.9921
  133MOL   H14532089   3.534   5.777   4.558  0.0303  0.0864 -3.9930
  133MOL   C14632090   3.711   6.081   4.824 -0.0988  0.5580 -0.3743
  133MOL   C14732091   3.603   6.192   4.834 -0.0578 -0.4969 -0.3989
  133MOL   C14832092   3.640   6.304   4.737 -0.2632  0.7138  0.1390
  133MOL   C14932093   3.461   6.136   4.798  0.4811 -1.0572 -0.2405
  133MOL   O15032094   3.394   6.073   4.875 -0.1997  0.6725  0.1650
  133MOL   O15132095   3.425   6.157   4.669 -0.3588 -0.1829  0.3363
  133MOL   H15232096   3.676   6.011   4.899  1.8148  0.3912  0.3797
  133MOL   H15332097   3.808   6.123   4.852  0.0229  1.2633 -1.8033
  133MOL   H15432098   3.746   6.327   4.744 -0.3512  1.9810 -2.2242
  133MOL   H15532099   3.587   6.394   4.767 -2.5116 -0.3272 -0.5843
  133MOL   H15632100   3.617   6.290   4.631 -0.4462  2.3559 -0.0546
  133MOL   H15732101   3.474   6.231   4.637 -0.6271 -0.5572 -1.0168
  133MOL   C15832102   3.618   6.226   4.986  0.8852  0.6220 -0.0463
  133MOL   C15932103   3.544   6.342   5.061 -0.3810 -0.2216 -0.3568
  133MOL   C16032104   3.407   6.390   5.008  0.6873 -0.1171  0.2676
  133MOL   C16132105   3.514   6.291   5.203  0.8743 -0.1335  0.6381
  133MOL   O16232106   3.507   6.174   5.233  0.0589  0.3610 -0.0558
  133MOL   O16332107   3.491   6.394   5.291  0.0521 -0.1258  0.0625
  133MOL   H16432108   3.587   6.131   5.030 -1.0181 -0.6193 -3.8437
  133MOL   H16532109   3.722   6.222   5.017 -0.2611  1.9048  4.4726
  133MOL   H16632110   3.340   6.309   5.038  2.7922 -1.3747  1.8032
  133MOL   H16732111   3.394   6.399   4.901 -1.9748  0.3814  0.6105
  133MOL   H16832112   3.356   6.469   5.063  1.3966  0.0982  0.6332
  133MOL   H16932113   3.471   6.360   5.378  2.2069 -0.3431  0.4824
  133MOL   C17032114   3.632   6.472   5.067 -0.2944  0.1551 -0.2163
  133MOL   C17132115   3.777   6.489   5.125 -0.4061  0.2214  0.3161
  133MOL   C17232116   3.798   6.400   5.240 -0.8788  0.8060 -0.6238
  133MOL   C17332117   3.882   6.454   5.016  0.4424 -0.8001  0.1607
  133MOL   O17432118   3.960   6.361   5.035  0.1583  0.1803 -0.0564
  133MOL   O17532119   3.874   6.537   4.904  0.2167 -0.2627 -0.3798
  133MOL   H17632120   3.636   6.527   4.973  1.6104 -0.7264 -0.6742
  133MOL   H17732121   3.573   6.544   5.124  0.0616 -0.6272  1.1586
  133MOL   H17832122   3.900   6.410   5.276 -0.0180 -1.8428 -2.2270
  133MOL   H17932123   3.772   6.296   5.222  1.9741 -0.2452  0.9936
  133MOL   H18032124   3.738   6.425   5.328 -0.0837 -0.2500  0.2433
  133MOL   H18132125   3.957   6.519   4.863  1.1252  1.8087  0.4853
  133MOL   C18232126   3.779   6.641   5.168 -0.0624 -0.3490 -0.0520
  133MOL   C18332127   3.909   6.714   5.222  0.6878 -0.3960 -0.1437
  133MOL   C18432128   3.847   6.845   5.290 -0.3245  0.6303  0.3713
  133MOL   C18532129   3.980   6.638   5.339 -0.6702  0.5775 -0.1250
  133MOL   O18632130   4.096   6.605   5.326 -0.3923 -0.0326  0.0206
  133MOL   O18732131   3.905   6.605   5.447 -0.5243  0.1372  0.6763
  133MOL   H18832132   3.747   6.688   5.074  0.8864 -0.7169 -0.5674
  133MOL   H18932133   3.701   6.668   5.239 -0.8010 -1.8211 -0.2942
  133MOL   H19032134   3.925   6.911   5.328  0.1333  0.3476 -0.0849
  133MOL   H19132135   3.790   6.830   5.382 -0.4316  0.0297  0.2103
  133MOL   H19232136   3.780   6.900   5.224  1.2510  0.7099 -1.1715
  133MOL   H19332137   3.953   6.537   5.491 -0.7346 -1.3455 -1.3128
  133MOL   C19432138   3.994   6.759   5.104  0.1689  0.6109 -0.0795
  133MOL   C19532139   4.089   6.890   5.111  0.6642  0.0765 -1.0303
  133MOL   C19632140   4.008   7.017   5.086 -0.1614  0.2057  0.0029
  133MOL   C19732141   4.174   6.900   5.245 -0.0706 -0.6536 -0.0823
  133MOL   O19832142   4.156   6.993   5.322 -0.9405 -0.0143 -0.5389
  133MOL   O19932143   4.270   6.810   5.258  0.3340  0.1058  0.1710
  133MOL   H20032144   4.040   6.666   5.073  1.4804  1.3816 -0.4835
  133MOL   H20132145   3.929   6.783   5.020 -0.0470  1.2709  0.2728
  133MOL   H20232146   3.962   7.021   4.987 -1.5976 -1.8833  0.5602
  133MOL   H20332147   4.067   7.104   5.116 -0.2903  0.8392 -1.5386
  133MOL   H20432148   3.923   7.031   5.152  0.4117  0.2620  0.7372
  133MOL   H20532149   4.329   6.831   5.329  0.3104 -1.0229  0.5384
  133MOL   C20632150   4.193   6.861   4.991  0.0349 -0.3731  0.3276
  133MOL   C20732151   4.305   6.962   4.936 -0.4508 -0.0655  0.2345
  133MOL   C20832152   4.364   7.039   5.059 -0.5879  0.2787  0.1414
  133MOL   C20932153   4.420   6.885   4.869 -0.1759  0.7218 -0.1110
  133MOL   O21032154   4.538   6.898   4.899 -0.1375  0.1337  0.3529
  133MOL   O21132155   4.376   6.810   4.774 -0.0437  0.4459  0.3186
  133MOL   H21232156   4.246   6.766   4.994  3.3014  1.3339 -0.1439
  133MOL   H21332157   4.132   6.844   4.902  1.4448 -1.3282 -0.4800
  133MOL   H21432158   4.408   6.963   5.123  0.3002  1.8203  1.3998
  133MOL   H21532159   4.287   7.102   5.104 -0.5785  1.5844 -1.6080
  133MOL   H21632160   4.443   7.106   5.024  0.0547 -0.4809  0.1180
  133MOL   H21732161   4.445   6.777   4.719  1.4482  0.6784  1.9912
  133MOL   C21832162   4.231   7.061   4.835  0.3121 -0.3731  0.0326
  133MOL   C21932163   4.293   7.180   4.757 -0.2810 -0.1609  0.2719
  133MOL   C22032164   4.303   7.306   4.846 -0.4933  1.1621  0.7712
  133MOL   C22132165   4.423   7.139   4.683  0.5871 -0.2573 -0.1263
  133MOL   O22232166   4.533   7.191   4.706 -0.2027 -0.4464 -0.1055
  133MOL   O22332167   4.392   7.037   4.594 -0.0952 -0.6991 -0.6118
  133MOL   H22432168   4.184   6.999   4.758 -0.5337  0.5497 -0.2123
  133MOL   H22532169   4.142   7.095   4.888 -0.5774 -1.4150 -0.7514
  133MOL   H22632170   4.373   7.386   4.822 -0.4027  1.0795  0.7627
  133MOL   H22732171   4.335   7.274   4.946  1.8961  1.6106  0.1581
  133MOL   H22832172   4.206   7.355   4.858 -0.3870  1.2735  1.1816
  133MOL   H22932173   4.474   6.996   4.574 -0.6697 -1.6463 -1.0288
  133MOL   C23032174   4.189   7.218   4.651  0.0522 -0.2112  0.1153
  133MOL   C23132175   4.216   7.327   4.539  0.3877  1.1997  0.0916
  133MOL   C23232176   4.116   7.310   4.424 -0.1392 -0.1399  0.1385
  133MOL   C23332177   4.224   7.472   4.576 -0.4566 -0.5124 -0.4094
  133MOL   O23432178   4.132   7.543   4.607  0.2368 -0.4711  0.5616
  133MOL   O23532179   4.350   7.510   4.607  0.0172 -0.2994 -0.3370
  133MOL   H23632180   4.161   7.124   4.603 -3.5617  0.2075  1.2470
  133MOL   H23732181   4.093   7.241   4.697  0.5912  0.0321  1.1277
  133MOL   H23832182   4.025   7.366   4.444  0.1638  0.9345 -1.4113
  133MOL   H23932183   4.093   7.206   4.400  0.0418 -0.2252  0.3264
  133MOL   H24032184   4.156   7.349   4.331 -0.6036 -2.2728 -0.9865
  133MOL   H24132185   4.340   7.601   4.631 -2.0786 -0.4655 -0.4474
  133MOL   H24232186   4.316   7.304   4.503 -0.0829  1.3804 -1.3547
  134MOL     C132187   1.288   2.453   6.251  0.1664 -0.8397 -0.6889
  134MOL     C232188   1.149   2.500   6.309  0.1345 -0.1282 -0.1212
  134MOL     C332189   1.077   2.362   6.340 -0.5979  0.0246 -0.2716
  134MOL     C432190   1.172   2.573   6.445 -0.3616  0.8839  0.6956
  134MOL     O532191   1.105   2.554   6.545 -0.6465  0.5868  0.0344
  134MOL     O632192   1.275   2.660   6.434 -0.0009  0.3614 -0.4051
  134MOL     H732193   1.339   2.385   6.320  1.7295  0.2317 -0.7767
  134MOL     H832194   1.342   2.546   6.233 -0.6356  0.0911  1.4621
  134MOL     H932195   1.058   2.310   6.246 -2.5790 -0.5920  0.4524
  134MOL    H1032196   0.983   2.371   6.393 -0.9839 -1.4039 -0.6877
  134MOL    H1132197   1.139   2.290   6.395  0.6522  1.9150  0.8474
  134MOL    H1232198   1.259   2.730   6.496 -2.2258  0.8018 -1.4124
  134MOL    H1332199   1.285   2.388   6.164 -0.6175  0.2461 -1.4793
  134MOL    C1432200   1.082   2.592   6.203  0.3250 -0.4691  0.3685
  134MOL    C1532201   0.929   2.619   6.210 -0.1268 -0.6729 -0.3415
  134MOL    C1632202   0.909   2.732   6.103  0.5714 -0.3784  0.0050
  134MOL    C1732203   0.851   2.490   6.158  0.1873 -0.0144 -0.2691
  134MOL    O1832204   0.775   2.422   6.223 -0.3614  0.0272 -0.0743
  134MOL    O1932205   0.894   2.464   6.032  0.3459 -0.0838 -0.1026
  134MOL    H2032206   1.122   2.693   6.206  0.6297 -0.4434 -2.8307
  134MOL    H2132207   1.120   2.555   6.107 -2.1002 -0.0118 -0.7968
  134MOL    H2232208   0.954   2.822   6.145 -1.6003  1.1312 -0.8265
  134MOL    H2332209   0.806   2.751   6.073  0.9991 -2.3099 -3.0302
  134MOL    H2432210   0.967   2.707   6.013 -2.8152 -1.5122 -1.9581
  134MOL    H2532211   0.847   2.396   5.986 -1.7714  1.6529 -0.5341
  134MOL    C2632212   0.874   2.672   6.354 -0.0462  0.4415  0.1409
  134MOL    C2732213   0.748   2.755   6.389  0.0036 -0.5206  0.1732
  134MOL    C2832214   0.768   2.910   6.375  0.2879  0.5608 -0.6526
  134MOL    C2932215   0.626   2.717   6.307 -0.7105  0.3359 -0.5247
  134MOL    O3032216   0.573   2.793   6.225 -0.1298 -0.4631 -0.2062
  134MOL    O3132217   0.581   2.592   6.324  0.0974 -0.4672  0.5552
  134MOL    H3232218   0.867   2.578   6.409 -1.1618 -0.4989 -1.5214
  134MOL    H3332219   0.949   2.734   6.403 -0.4996  1.3981 -0.3539
  134MOL    H3432220   0.800   2.936   6.274 -4.2737 -1.9974 -2.8741
  134MOL    H3532221   0.850   2.945   6.439  0.7754 -1.3985 -0.1843
  134MOL    H3632222   0.678   2.968   6.392 -0.2370  0.7182 -3.7548
  134MOL    H3732223   0.499   2.583   6.279  0.5021  1.6588 -0.6937
  134MOL    C3832224   0.722   2.722   6.539 -0.5906 -0.6134 -0.5072
  134MOL    C3932225   0.624   2.798   6.637  0.3227 -0.5288 -0.3862
  134MOL    C4032226   0.663   2.950   6.651  0.3228 -0.7486  0.1735
  134MOL    C4132227   0.475   2.790   6.590  0.6800  0.3008  0.1878
  134MOL    O4232228   0.423   2.871   6.511 -0.3668 -0.3675  0.1281
  134MOL    O4332229   0.419   2.670   6.606 -0.2265 -0.3892 -0.4506
  134MOL    H4432230   0.707   2.614   6.551  0.2822 -0.6963 -0.1100
  134MOL    H4532231   0.819   2.745   6.581 -0.2820 -0.0756 -1.5133
  134MOL    H4632232   0.769   2.965   6.631  0.7974 -1.3197  2.1524
  134MOL    H4732233   0.637   2.995   6.747 -2.5334 -3.2899  0.6380
  134MOL    H4832234   0.606   3.012   6.581 -0.3113 -1.7279 -0.1845
  134MOL    H4932235   0.328   2.674   6.582 -0.8118  0.0074  1.7397
  134MOL    C5032236   0.626   2.728   6.777 -0.3755  0.5127 -1.0867
  134MOL    C5132237   0.750   2.712   6.875 -0.0466  0.9432 -0.4849
  134MOL    C5232238   0.699   2.617   6.985  0.1701  0.6072 -0.2461
  134MOL    C5332239   0.866   2.643   6.800 -0.4507 -0.3740  0.0849
  134MOL    O5432240   0.968   2.697   6.761  0.3907 -0.3023 -0.3354
  134MOL    O5532241   0.847   2.511   6.768 -0.0812  0.2895 -0.6227
  134MOL    H5632242   0.548   2.777   6.836  0.7459  0.2510  0.6509
  134MOL    H5732243   0.598   2.623   6.770 -1.3111  0.6077  0.7945
  134MOL    H5832244   0.614   2.646   7.047 -1.0688  1.0244 -2.0787
  134MOL    H5932245   0.784   2.595   7.049 -0.1553 -0.1589 -0.0765
  134MOL    H6032246   0.672   2.528   6.928 -0.8092  1.9387 -1.9307
  134MOL    H6132247   0.917   2.472   6.719  1.0433 -0.1947  1.3249
  134MOL    C6232248   0.788   2.856   6.936  0.4310 -0.1896  0.5904
  134MOL    C6332249   0.873   2.885   7.065  0.3758 -0.2631 -0.1269
  134MOL    C6432250   0.902   3.035   7.068  0.3995 -0.6315  0.0371
  134MOL    C6532251   0.780   2.850   7.187 -0.3799  0.0002 -0.1078
  134MOL    O6632252   0.783   2.742   7.239  0.4157 -0.0420 -0.0332
  134MOL    O6732253   0.687   2.949   7.218 -0.4082 -0.0301  0.1853
  134MOL    H6832254   0.843   2.905   6.855 -0.5166 -0.3398 -0.1469
  134MOL    H6932255   0.696   2.913   6.949 -0.2341 -1.0922 -0.1836
  134MOL    H7032256   0.970   3.057   6.986  0.7577 -0.9933  0.2332
  134MOL    H7132257   0.926   3.067   7.170 -1.8495  0.3334  0.2784
  134MOL    H7232258   0.811   3.090   7.047  0.8117 -0.6158 -1.7631
  134MOL    H7332259   0.629   2.919   7.286 -1.0686 -0.0244 -0.3737
  134MOL    C7432260   1.011   2.812   7.058 -0.3383 -0.0942  0.0192
  134MOL    C7532261   1.132   2.847   7.161  0.6089 -1.0350 -0.5527
  134MOL    C7632262   1.200   2.993   7.139 -0.6642 -0.6648  0.1834
  134MOL    C7732263   1.115   2.817   7.309 -0.2073  0.4037  0.4667
  134MOL    O7832264   1.142   2.897   7.399 -0.0131  0.1796 -0.2558
  134MOL    O7932265   1.056   2.701   7.332  0.3589  0.5557  0.7430
  134MOL    H8032266   0.984   2.706   7.060  0.2847 -0.3507 -2.6423
  134MOL    H8132267   1.051   2.837   6.960 -1.9207  0.3828 -0.5206
  134MOL    H8232268   1.304   3.000   7.170 -0.5628 -1.3422  0.0058
  134MOL    H8332269   1.150   3.072   7.196 -0.2031  1.7697 -2.7159
  134MOL    H8432270   1.183   3.036   7.040 -0.8233 -0.7602  0.1678
  134MOL    H8532271   1.038   2.682   7.423  0.1792  0.0673  0.6095
  134MOL    C8632272   1.239   2.730   7.126 -0.0758  0.2019  0.9540
  134MOL    C8732273   1.342   2.734   7.016 -0.5324  0.0883  0.4128
  134MOL    C8832274   1.282   2.770   6.876 -0.0513 -0.3649 -0.5251
  134MOL    C8932275   1.463   2.830   7.050 -0.0726 -0.9802  0.2682
  134MOL    O9032276   1.518   2.904   6.964  0.0549  0.3777  0.1350
  134MOL    O9132277   1.504   2.815   7.181 -0.5509 -0.4851  0.0871
  134MOL    H9232278   1.290   2.684   7.211  0.0222  1.1209  1.4018
  134MOL    H9332279   1.190   2.641   7.086  0.2483  0.0291  0.9396
  134MOL    H9432280   1.345   2.735   6.793  2.6165 -0.4059  1.4501
  134MOL    H9532281   1.279   2.879   6.863  0.5949 -0.4173 -1.1436
  134MOL    H9632282   1.182   2.730   6.862  0.4219 -0.9812 -2.2834
  134MOL    H9732283   1.574   2.868   7.216  0.2844 -2.5307  1.6503
  134MOL    C9832284   1.424   2.597   7.002 -0.7230  0.4708  1.1295
  134MOL    C9932285   1.359   2.450   6.975  0.0300  0.2140 -0.2408
  134MOL   C10032286   1.308   2.394   7.112  0.6810  0.4107 -0.2041
  134MOL   C10132287   1.245   2.461   6.873  0.1669 -0.0235  0.7884
  134MOL   O10232288   1.127   2.450   6.907  0.1898 -0.4022 -0.0341
  134MOL   O10332289   1.290   2.495   6.755 -0.2546 -0.0261 -0.9569
  134MOL   H10432290   1.496   2.619   6.923  0.3185  0.8404  2.1736
  134MOL   H10532291   1.492   2.583   7.086 -0.5209 -1.0939  0.7207
  134MOL   H10632292   1.392   2.405   7.180  0.7119 -2.5688  0.2915
  134MOL   H10732293   1.274   2.291   7.101  1.9593  0.0996 -1.4100
  134MOL   H10832294   1.222   2.447   7.154  0.2046 -0.9154  0.5195
  134MOL   H10932295   1.217   2.518   6.700 -1.6729  2.7776  1.8905
  134MOL   C11032296   1.486   2.365   6.925 -0.7698  0.1357 -0.6125
  134MOL   C11132297   1.473   2.207   6.900  0.1412  0.8138  0.0520
  134MOL   C11232298   1.596   2.192   6.807 -0.5717 -0.4388  0.6267
  134MOL   C11332299   1.513   2.133   7.030 -0.1920 -0.9349 -0.8701
  134MOL   O11432300   1.511   2.185   7.142  0.0038  0.3235  0.1459
  134MOL   O11532301   1.548   2.005   7.018 -0.2552 -0.3963  0.1259
  134MOL   H11632302   1.516   2.409   6.829  0.5908 -1.4958 -0.9535
  134MOL   H11732303   1.571   2.394   6.987 -1.2496 -0.4095  0.2964
  134MOL   H11832304   1.622   2.087   6.791  0.5734  0.1500 -1.5222
  134MOL   H11932305   1.688   2.240   6.839  0.6661 -0.0196 -3.2517
  134MOL   H12032306   1.582   2.234   6.707 -1.5583 -0.5417  0.7158
  134MOL   H12132307   1.574   1.975   7.104 -1.1076  0.4332  0.6781
  134MOL   C12232308   1.333   2.164   6.836  0.1088  0.3730  0.4546
  134MOL   C12332309   1.269   2.020   6.814 -0.7020  0.1332 -0.4587
  134MOL   C12432310   1.371   1.927   6.735 -0.4639 -0.2715  0.2532
  134MOL   C12532311   1.237   1.949   6.944  0.8093  0.0315 -0.0339
  134MOL   O12632312   1.283   1.843   6.979  0.9178  0.0515  0.2046
  134MOL   O12732313   1.146   2.021   7.011 -0.1601 -0.3712  0.2631
  134MOL   H12832314   1.248   2.208   6.889 -0.4829  0.2575 -0.3969
  134MOL   H12932315   1.334   2.226   6.747  0.2780 -0.7186 -0.3113
  134MOL   H13032316   1.459   1.900   6.794  3.4552 -0.2869 -5.1887
  134MOL   H13132317   1.419   1.987   6.658 -2.4547 -0.2130 -0.9618
  134MOL   H13232318   1.325   1.838   6.693 -2.6684  0.2203  1.5293
  134MOL   H13332319   1.137   1.979   7.095  0.0212 -1.1072 -0.0859
  134MOL   C13432320   1.143   2.043   6.723  0.1036  0.1048 -0.4866
  134MOL   C13532321   1.091   1.954   6.597 -0.1188  0.4279 -0.0231
  134MOL   C13632322   1.189   1.956   6.473 -0.9990 -0.2290 -0.0688
  134MOL   C13732323   1.071   1.802   6.637  0.0178 -0.2250  1.4174
  134MOL   O13832324   1.090   1.752   6.745  0.4515  0.1720  0.5417
  134MOL   O13932325   1.039   1.729   6.524 -0.4793  0.5768  0.0424
  134MOL   H14032326   1.056   2.036   6.789  1.7919  0.0625  1.7954
  134MOL   H14132327   1.135   2.147   6.692 -0.9189  0.2911  0.3713
  134MOL   H14232328   1.147   1.906   6.386 -1.0387  1.5117 -1.0733
  134MOL   H14332329   1.290   1.917   6.474 -0.8838  0.0417  2.3617
  134MOL   H14432330   1.207   2.055   6.431  0.5327 -0.0235  1.0447
  134MOL   H14532331   1.031   1.638   6.545  1.2319  0.5155  0.5419
  134MOL   C14632332   0.962   2.018   6.534  0.7411 -0.4445  0.3361
  134MOL   C14732333   0.825   2.069   6.603  0.6549 -0.0140 -0.0389
  134MOL   C14832334   0.759   1.959   6.683  0.5998  0.0129 -0.3810
  134MOL   C14932335   0.863   2.196   6.683  0.2479  0.4384 -0.5185
  134MOL   O15032336   0.918   2.291   6.630  0.2141  0.1931  1.0639
  134MOL   O15132337   0.829   2.193   6.815 -0.0674  1.0070  0.3198
  134MOL   H15232338   1.000   2.101   6.475  1.4227 -1.2509 -0.3718
  134MOL   H15332339   0.927   1.945   6.461 -0.3409 -0.0396  0.4409
  134MOL   H15432340   0.674   2.010   6.729  1.0619  0.8344 -0.4286
  134MOL   H15532341   0.815   1.920   6.768  0.0256 -1.6910 -0.7517
  134MOL   H15632342   0.709   1.880   6.626 -0.4557 -1.0419  1.9610
  134MOL   H15732343   0.832   2.280   6.854 -1.1170  0.7072  1.1064
  134MOL   C15832344   0.722   2.105   6.486 -0.5977 -0.0338 -0.0649
  134MOL   C15932345   0.574   2.154   6.488  0.5597 -0.2786 -0.0403
  134MOL   C16032346   0.484   2.036   6.518  0.0527  0.8651  0.5423
  134MOL   C16132347   0.551   2.263   6.596  0.1178  0.0750  0.0830
  134MOL   O16232348   0.478   2.249   6.692 -0.1457 -0.1880  0.1629
  134MOL   O16332349   0.617   2.375   6.565 -0.0877  0.0115 -1.1210
  134MOL   H16432350   0.785   2.180   6.438  1.3915 -1.7430 -0.2377
  134MOL   H16532351   0.728   2.017   6.422 -1.1373  0.8843 -1.3934
  134MOL   H16632352   0.379   2.064   6.522 -0.1005  0.8336 -2.1031
  134MOL   H16732353   0.503   1.987   6.613  1.4238  0.9678  0.3363
  134MOL   H16832354   0.490   1.964   6.436  1.5132  0.9988  0.5232
  134MOL   H16932355   0.638   2.357   6.475  0.6207 -0.8210 -0.8010
  134MOL   C17032356   0.547   2.212   6.343 -0.0146  0.4563 -0.0680
  134MOL   C17132357   0.409   2.227   6.267 -0.0902 -1.2651 -0.2417
  134MOL   C17232358   0.366   2.083   6.207  0.4816 -0.1618 -0.3875
  134MOL   C17332359   0.299   2.266   6.364 -0.1342 -0.0887 -0.9904
  134MOL   O17432360   0.204   2.198   6.401 -0.2358  0.1928 -0.3638
  134MOL   O17532361   0.327   2.390   6.413 -0.0600 -0.3121  0.6007
  134MOL   H17632362   0.612   2.299   6.336 -0.6461  0.8635 -0.9639
  134MOL   H17732363   0.598   2.146   6.272  0.4927  0.6380  0.1276
  134MOL   H17832364   0.383   2.058   6.102 -1.4087  1.7534 -1.1696
  134MOL   H17932365   0.258   2.075   6.209  0.4794  0.0324  0.9418
  134MOL   H18032366   0.391   1.997   6.269  0.1683 -0.4064 -0.6013
  134MOL   H18132367   0.274   2.407   6.489  0.4806 -0.8059  1.0888
  134MOL   C18232368   0.453   2.319   6.143  0.9709  0.2660 -0.5395
  134MOL   C18332369   0.353   2.398   6.046  0.6755 -0.5011  0.0265
  134MOL   C18432370   0.212   2.337   6.054 -0.1096 -0.1260 -1.1472
  134MOL   C18532371   0.325   2.545   6.087  0.6532  0.5742 -0.0427
  134MOL   O18632372   0.360   2.582   6.193  0.5163  0.1807 -0.4525
  134MOL   O18732373   0.274   2.625   5.991 -0.3795  0.3464  1.0056
  134MOL   H18832374   0.529   2.396   6.155  1.2902 -0.2093  0.5180
  134MOL   H18932375   0.509   2.245   6.086  0.0807 -1.1139  0.3277
  134MOL   H19032376   0.150   2.371   5.970 -0.6923  0.8441 -0.3400
  134MOL   H19132377   0.162   2.360   6.148  0.8883 -1.4158 -0.2797
  134MOL   H19232378   0.218   2.228   6.050  2.1334  0.0157 -2.4894
  134MOL   H19332379   0.273   2.719   6.003  0.3578  0.6435 -0.9456
  134MOL   C19432380   0.388   2.389   5.892  0.2603  0.4189 -0.1253
  134MOL   C19532381   0.527   2.418   5.834 -0.3147 -0.0112  0.1561
  134MOL   C19632382   0.591   2.544   5.906  0.2593  0.5112  0.1064
  134MOL   C19732383   0.618   2.294   5.861  0.6387 -0.1660 -1.5321
  134MOL   O19832384   0.731   2.302   5.915  0.7772  0.2168 -0.1001
  134MOL   O19932385   0.569   2.171   5.822 -0.3414  0.4649  0.4944
  134MOL   H20032386   0.368   2.284   5.872 -0.3140  0.7010 -1.0645
  134MOL   H20132387   0.312   2.447   5.839 -0.6156  1.2303  1.9608
  134MOL   H20232388   0.590   2.536   6.015  3.0376  0.1882  0.1380
  134MOL   H20332389   0.543   2.638   5.879 -0.6893 -0.1055 -0.3937
  134MOL   H20432390   0.697   2.558   5.886 -0.2043  3.4013 -0.4569
  134MOL   H20532391   0.643   2.113   5.831 -0.1477  0.4721 -0.8219
  134MOL   C20632392   0.501   2.442   5.679 -0.2355 -0.0969 -0.1066
  134MOL   C20732393   0.616   2.426   5.565 -0.1486 -0.4888 -0.1812
  134MOL   C20832394   0.742   2.488   5.617  0.0982 -0.7136  0.9195
  134MOL   C20932395   0.649   2.276   5.536  0.0559 -0.6932  0.0703
  134MOL   O21032396   0.759   2.224   5.538 -0.1429 -0.0482  0.2979
  134MOL   O21132397   0.537   2.200   5.532 -0.1225 -0.5558 -0.2957
  134MOL   H21232398   0.409   2.398   5.642 -0.0499 -0.3891 -0.2217
  134MOL   H21332399   0.487   2.550   5.684 -0.7093 -0.1538 -0.2722
  134MOL   H21432400   0.731   2.595   5.634  1.0815 -0.2064 -1.4666
  134MOL   H21532401   0.834   2.472   5.560  0.7511  0.6003  1.5714
  134MOL   H21632402   0.771   2.446   5.714  0.7966  0.6433  1.3292
  134MOL   H21732403   0.556   2.107   5.534 -0.6017 -0.6625 -0.5470
  134MOL   C21832404   0.567   2.505   5.440  0.0822  0.0782 -0.3013
  134MOL   C21932405   0.612   2.485   5.289  0.1514  0.2734 -0.4829
  134MOL   C22032406   0.532   2.587   5.201  0.2887  0.0476 -0.1129
  134MOL   C22132407   0.761   2.524   5.272  0.2442  0.4832  0.8992
  134MOL   O22232408   0.820   2.604   5.347 -0.2108 -0.1716  0.0194
  134MOL   O22332409   0.823   2.472   5.161 -0.3035  0.0125  0.1201
  134MOL   H22432410   0.458   2.512   5.442  0.0624  0.1181 -1.3650
  134MOL   H22532411   0.580   2.610   5.465  1.4571 -0.2197  0.2835
  134MOL   H22632412   0.554   2.691   5.225 -3.1540  0.9313 -0.5390
  134MOL   H22732413   0.424   2.584   5.211  0.1669 -1.1195 -1.5636
  134MOL   H22832414   0.553   2.587   5.094 -0.8003  2.0898 -0.3637
  134MOL   H22932415   0.915   2.492   5.163  0.1854 -2.1632  1.2730
  134MOL   C23032416   0.594   2.341   5.220  0.6372  0.1998  0.2070
  134MOL   C23132417   0.448   2.271   5.228  0.2900  0.9625  0.2444
  134MOL   C23232418   0.351   2.322   5.115 -0.7685 -0.1016 -0.5946
  134MOL   C23332419   0.465   2.116   5.207  0.0289  0.0273 -0.0773
  134MOL   O23432420   0.562   2.065   5.149 -0.1962 -0.6517  0.2744
  134MOL   O23532421   0.358   2.058   5.269  0.0215 -0.0731 -0.1027
  134MOL   H23632422   0.635   2.354   5.120  2.6899 -0.0904  0.9888
  134MOL   H23732423   0.663   2.272   5.268  0.2749  0.0260  0.4847
  134MOL   H23832424   0.336   2.429   5.105 -0.7467  0.0173  0.5655
  134MOL   H23932425   0.257   2.267   5.116 -0.7784 -0.0802 -0.2567
  134MOL   H24032426   0.408   2.300   5.025 -1.2614  1.7265 -1.3600
  134MOL   H24132427   0.349   1.967   5.247 -1.4107  0.3156 -1.1912
  134MOL   H24232428   0.400   2.291   5.324  1.0654 -3.4532  1.6823
  135MOL     C132429   3.527   6.588   3.390 -0.1248 -0.2260  0.6478
  135MOL     C232430   3.370   6.584   3.391 -0.2248 -0.7912  0.6090
  135MOL     C332431   3.327   6.734   3.417 -0.5177 -0.3563 -0.1856
  135MOL     C432432   3.327   6.559   3.242  0.3331 -0.1294 -0.1264
  135MOL     O532433   3.397   6.590   3.143  0.2799 -0.1685  0.2991
  135MOL     O632434   3.195   6.528   3.229 -0.2151 -0.9628  0.5241
  135MOL     H732435   3.573   6.495   3.356  1.2769  0.7517 -0.1547
  135MOL     H832436   3.582   6.603   3.483  0.2178  0.7809  0.2801
  135MOL     H932437   3.350   6.801   3.334  0.2606 -1.9462 -1.2948
  135MOL    H1032438   3.378   6.774   3.504  0.3093 -5.6543  1.9559
  135MOL    H1132439   3.225   6.736   3.454  0.1439 -1.4927  1.7844
  135MOL    H1232440   3.178   6.517   3.136 -1.4471 -0.2760  0.6546
  135MOL    H1332441   3.569   6.665   3.326  0.4969  0.2767  1.6481
  135MOL    C1432442   3.304   6.490   3.497  0.1227 -0.5427  0.1156
  135MOL    C1532443   3.359   6.342   3.522 -1.1627  0.1553  0.1564
  135MOL    C1632444   3.379   6.277   3.384  0.5772  0.2786  0.4755
  135MOL    C1732445   3.501   6.342   3.593 -0.5403  0.2983 -0.2509
  135MOL    O1832446   3.611   6.317   3.544  0.1302 -0.3260 -0.5137
  135MOL    O1932447   3.494   6.390   3.720 -0.6332  0.9719  0.1501
  135MOL    H2032448   3.332   6.538   3.591  0.5033 -0.8000  0.1345
  135MOL    H2132449   3.196   6.503   3.497  0.2966  0.9112  0.4358
  135MOL    H2232450   3.414   6.174   3.391 -0.0137 -0.0051 -0.6164
  135MOL    H2332451   3.447   6.330   3.317 -1.1078  2.6147  0.5653
  135MOL    H2432452   3.280   6.277   3.338  0.6747  0.3164  0.2628
  135MOL    H2532453   3.582   6.404   3.753  0.0984 -1.8151 -0.5145
  135MOL    C2632454   3.250   6.273   3.598 -0.0870 -0.6636 -0.0526
  135MOL    C2732455   3.233   6.111   3.621 -0.3188 -0.4337  0.8575
  135MOL    C2832456   3.158   6.057   3.498 -0.0620 -0.1793 -0.0381
  135MOL    C2932457   3.369   6.041   3.641 -0.0153  0.2320 -0.5272
  135MOL    O3032458   3.415   5.968   3.556 -0.3511  0.4350 -0.6504
  135MOL    O3132459   3.422   6.062   3.761  0.0656 -0.2868 -0.5976
  135MOL    H3232460   3.262   6.315   3.698  0.7593  1.7097 -1.1368
  135MOL    H3332461   3.155   6.310   3.559  1.7697  2.3505 -1.8999
  135MOL    H3432462   3.199   6.086   3.401 -0.7717  2.7507  0.4853
  135MOL    H3532463   3.052   6.081   3.489  0.3575  0.6766 -3.9067
  135MOL    H3632464   3.154   5.949   3.485  0.9703 -0.4404  1.7110
  135MOL    H3732465   3.479   5.990   3.784 -1.0205 -0.6283  1.1191
  135MOL    C3832466   3.147   6.088   3.754 -0.0124  0.7571 -1.0722
  135MOL    C3932467   3.072   5.952   3.800 -0.4698  0.6976  0.8086
  135MOL    C4032468   2.944   5.928   3.713  0.2366 -0.1533 -0.0372
  135MOL    C4132469   3.166   5.829   3.778  0.5139  0.1080 -0.3274
  135MOL    O4232470   3.241   5.795   3.863  0.4065  0.1040 -0.5719
  135MOL    O4332471   3.155   5.770   3.654 -0.1028  0.1309 -0.4787
  135MOL    H4432472   3.202   6.122   3.842 -3.1677  0.2185  1.2071
  135MOL    H4532473   3.070   6.166   3.747 -1.8647 -0.6833  1.9797
  135MOL    H4632474   2.950   5.906   3.606  1.9878  1.6253 -0.3337
  135MOL    H4732475   2.890   6.022   3.724 -1.3517 -0.7792 -2.1474
  135MOL    H4832476   2.871   5.854   3.744 -2.2275  2.2893  0.1400
  135MOL    H4932477   3.220   5.703   3.636  0.8950  1.6732 -2.7602
  135MOL    C5032478   3.043   5.970   3.959  0.1848 -0.4966  0.5617
  135MOL    C5132479   2.901   6.024   4.005  0.4428 -1.0101  0.2869
  135MOL    C5232480   2.855   6.161   3.947 -0.0353 -0.8348 -0.0779
  135MOL    C5332481   2.788   5.919   3.989  0.2051  0.0840 -0.2363
  135MOL    O5432482   2.664   5.947   3.986 -0.1349  0.0602 -0.1259
  135MOL    O5532483   2.835   5.795   3.984  0.0206 -0.1429 -0.0013
  135MOL    H5632484   3.068   5.869   3.992 -0.8087 -1.1547 -0.6692
  135MOL    H5732485   3.120   6.037   3.998  3.1525 -2.5362 -1.5387
  135MOL    H5832486   2.786   6.218   4.008  0.1694  0.5195 -1.0751
  135MOL    H5932487   2.800   6.155   3.853 -0.9473 -1.2000  0.4691
  135MOL    H6032488   2.936   6.230   3.922 -0.4514 -0.1538  0.4431
  135MOL    H6132489   2.772   5.728   3.965 -0.4509 -0.1592  1.5987
  135MOL    C6232490   2.912   6.055   4.161  0.4644 -0.3097 -0.8081
  135MOL    C6332491   2.973   5.972   4.275 -1.2743 -0.5002  0.0629
  135MOL    C6432492   2.920   5.831   4.262 -0.2984  0.3605  0.4574
  135MOL    C6532493   3.130   5.962   4.266  0.1045 -0.1021 -0.1215
  135MOL    O6632494   3.198   5.865   4.286  0.6206  0.2686 -0.2274
  135MOL    O6732495   3.184   6.080   4.230 -0.5516  0.0035 -0.1761
  135MOL    H6832496   2.965   6.150   4.164  0.0198 -0.0833  0.0944
  135MOL    H6932497   2.813   6.086   4.194 -0.0705 -0.2928 -2.3807
  135MOL    H7032498   2.931   5.765   4.347  0.5648  2.0443  1.6738
  135MOL    H7132499   2.963   5.769   4.184  1.0000  0.1133  1.3636
  135MOL    H7232500   2.812   5.836   4.246 -0.9231  2.2883  4.5693
  135MOL    H7332501   3.274   6.091   4.258 -0.9897 -0.3502  1.3960
  135MOL    C7432502   2.926   6.038   4.416  0.5031 -0.6319  0.2617
  135MOL    C7532503   2.976   6.001   4.559  0.1849 -0.2735 -0.1479
  135MOL    C7632504   2.995   5.846   4.580  0.0359  0.2650 -0.3630
  135MOL    C7732505   3.110   6.064   4.591  0.0006 -0.6154  0.2342
  135MOL    O7832506   3.162   6.153   4.530  0.4778 -0.2170  0.3313
  135MOL    O7932507   3.158   6.009   4.704 -0.6937 -0.3995 -0.1420
  135MOL    H8032508   2.957   6.142   4.403  0.0461 -0.4082  0.9808
  135MOL    H8132509   2.817   6.029   4.417  0.5752 -2.1794 -1.9453
  135MOL    H8232510   3.009   5.823   4.686  0.7995  1.7496 -0.1354
  135MOL    H8332511   3.078   5.800   4.526 -0.0869 -0.2248 -0.1362
  135MOL    H8432512   2.901   5.795   4.557  0.4154 -0.0025 -1.3311
  135MOL    H8532513   3.247   6.031   4.728 -0.8587  0.4453 -0.2937
  135MOL    C8632514   2.866   6.046   4.660  0.5786 -0.2526  0.5251
  135MOL    C8732515   2.850   6.194   4.719  0.4620  0.5096  0.2523
  135MOL    C8832516   2.974   6.253   4.795 -0.2459  0.6317  0.2831
  135MOL    C8932517   2.807   6.304   4.617 -0.3142 -0.0045  1.0026
  135MOL    O9032518   2.765   6.273   4.503 -0.9983  0.5834 -0.5023
  135MOL    O9132519   2.803   6.430   4.665  0.6300 -0.1461  0.0967
  135MOL    H9232520   2.770   6.009   4.623  0.7551 -0.5858  0.3976
  135MOL    H9332521   2.880   5.984   4.749  1.8860 -1.2109 -0.3341
  135MOL    H9432522   3.010   6.175   4.862 -1.9521 -1.0035 -0.6772
  135MOL    H9532523   2.956   6.340   4.858 -0.1148  0.6707  0.2663
  135MOL    H9632524   3.050   6.283   4.722 -0.4403 -1.5730 -0.8370
  135MOL    H9732525   2.753   6.477   4.600 -0.0015  0.1262  0.7671
  135MOL    C9832526   2.736   6.196   4.827 -0.6653  0.3221 -0.2975
  135MOL    C9932527   2.600   6.121   4.806 -0.5749 -0.0289 -0.1110
  135MOL   C10032528   2.626   5.985   4.853 -0.0590 -0.9279 -0.1339
  135MOL   C10132529   2.508   6.193   4.909  0.5014 -0.3397 -0.1754
  135MOL   O10232530   2.396   6.246   4.881 -0.2284  0.6272 -0.1673
  135MOL   O10332531   2.561   6.205   5.038  0.5225 -0.4246 -0.1135
  135MOL   H10432532   2.785   6.161   4.918 -0.6524  1.0557 -0.0233
  135MOL   H10532533   2.713   6.302   4.838 -0.7129  0.0931  2.0334
  135MOL   H10632534   2.538   5.921   4.849 -0.7321 -0.2518  2.8219
  135MOL   H10732535   2.659   5.984   4.957 -1.1998  0.6122  0.2612
  135MOL   H10832536   2.689   5.923   4.790  2.9811 -1.3917  3.2041
  135MOL   H10932537   2.651   6.178   5.043  0.9418  1.0162  0.4987
  135MOL   C11032538   2.536   6.127   4.657  0.1162  0.2497  0.6746
  135MOL   C11132539   2.435   6.032   4.583 -0.1909 -1.0679 -0.1279
  135MOL   C11232540   2.504   5.897   4.551 -0.1196 -0.3027 -0.1052
  135MOL   C11332541   2.312   6.007   4.678 -0.4234  0.0653  0.1750
  135MOL   O11432542   2.300   5.910   4.740 -0.0748  0.3896 -0.1910
  135MOL   O11532543   2.217   6.103   4.674  0.3234 -0.5966 -0.3925
  135MOL   H11632544   2.488   6.224   4.650  0.7179  0.4616 -0.8363
  135MOL   H11732545   2.620   6.127   4.587 -0.2056 -1.5267  0.2550
  135MOL   H11832546   2.552   5.850   4.637 -1.0749 -0.4256  0.3553
  135MOL   H11932547   2.591   5.909   4.485  1.0768  2.4307  1.9087
  135MOL   H12032548   2.439   5.820   4.509 -0.0210  0.2343 -1.2596
  135MOL   H12132549   2.152   6.086   4.741  0.6962  1.1213  0.4338
  135MOL   C12232550   2.388   6.101   4.453  0.5296 -0.3507 -0.5406
  135MOL   C12332551   2.322   6.028   4.325 -0.1244 -0.2819 -0.5636
  135MOL   C12432552   2.279   6.137   4.228 -0.7672  0.1855 -0.5720
  135MOL   C12532553   2.436   5.946   4.256  0.5690 -0.8558 -0.2502
  135MOL   O12632554   2.441   5.822   4.270  0.7733 -0.5487 -0.4620
  135MOL   O12732555   2.516   6.017   4.177  0.7642  0.3319  0.3721
  135MOL   H12832556   2.333   6.194   4.466 -0.0236 -0.7057 -0.3431
  135MOL   H12932557   2.480   6.141   4.411  0.9459  0.4066  1.0846
  135MOL   H13032558   2.349   6.211   4.191  0.3871 -1.1135 -1.0015
  135MOL   H13132559   2.197   6.198   4.268  0.9791  1.5069  1.1359
  135MOL   H13232560   2.240   6.088   4.139 -1.0237 -0.5773 -0.0422
  135MOL   H13332561   2.562   5.963   4.115  0.5612  0.8712 -0.2581
  135MOL   C13432562   2.205   5.945   4.372 -0.2452 -0.9818  0.0137
  135MOL   C13532563   2.072   5.907   4.291  0.2311  0.0591 -0.4190
  135MOL   C13632564   1.984   6.035   4.273  0.0640 -0.0803 -0.1178
  135MOL   C13732565   2.104   5.856   4.150 -0.7973 -0.6424  0.0647
  135MOL   O13832566   2.214   5.848   4.094 -0.0450 -0.1471 -0.0847
  135MOL   O13932567   1.993   5.830   4.080  0.1976 -0.7043 -0.8621
  135MOL   H14032568   2.248   5.850   4.402  3.0710 -0.0442 -1.5600
  135MOL   H14132569   2.162   5.995   4.460  0.3008  1.1008 -0.8771
  135MOL   H14232570   1.995   6.088   4.178  0.7972 -0.8729 -0.4793
  135MOL   H14332571   2.001   6.104   4.355  0.1790 -0.3947  0.1222
  135MOL   H14432572   1.877   6.013   4.277  0.4097 -1.4330  2.1687
  135MOL   H14532573   1.915   5.854   4.128 -0.4546  0.0053 -2.2496
  135MOL   C14632574   1.986   5.797   4.371  0.0366 -0.6725  0.1013
  135MOL   C14732575   2.038   5.657   4.422  0.0668  0.7706 -0.3008
  135MOL   C14832576   2.115   5.579   4.311  0.4838 -0.6493 -0.7164
  135MOL   C14932577   2.127   5.674   4.543 -0.2462 -1.2782 -1.3495
  135MOL   O15032578   2.235   5.613   4.557 -0.1532 -0.1297 -0.5624
  135MOL   O15132579   2.085   5.776   4.626 -0.5878 -0.0049  0.2320
  135MOL   H15232580   1.944   5.861   4.449  3.8640 -0.8879  2.4630
  135MOL   H15332581   1.901   5.770   4.309  0.4716  0.4905 -1.0194
  135MOL   H15432582   2.198   5.644   4.284  0.1979  0.1398  0.3073
  135MOL   H15532583   2.055   5.554   4.223 -2.7294  0.5574  1.0806
  135MOL   H15632584   2.167   5.494   4.355  0.7829  0.1607  0.5164
  135MOL   H15732585   2.133   5.794   4.705 -0.8589  2.9388 -0.2078
  135MOL   C15832586   1.912   5.567   4.459 -0.4046  0.3720  1.0043
  135MOL   C15932587   1.909   5.428   4.541 -0.8933  0.6181 -0.1239
  135MOL   C16032588   2.005   5.329   4.461 -0.5341 -0.0092  0.0991
  135MOL   C16132589   1.955   5.432   4.690  0.3443 -0.2121 -0.1554
  135MOL   O16232590   1.968   5.534   4.755  0.5108 -0.5505  0.2498
  135MOL   O16332591   1.964   5.305   4.746  0.0632  0.3149 -0.0295
  135MOL   H16432592   1.840   5.628   4.513 -1.4944 -1.1683  1.3351
  135MOL   H16532593   1.869   5.551   4.360  3.6249  0.1501 -0.8027
  135MOL   H16632594   1.995   5.340   4.353  1.5660 -0.2161 -0.1301
  135MOL   H16732595   1.978   5.225   4.481 -4.2389  0.6437 -1.0209
  135MOL   H16832596   2.108   5.354   4.487 -0.6257 -1.0713  1.4976
  135MOL   H16932597   1.974   5.311   4.840  3.3119  2.0946 -0.4211
  135MOL   C17032598   1.763   5.367   4.539 -0.2532 -0.3791  0.3874
  135MOL   C17132599   1.631   5.446   4.585  0.7503  0.3801 -0.1619
  135MOL   C17232600   1.653   5.513   4.718  0.6638 -0.8356 -0.1423
  135MOL   C17332601   1.586   5.546   4.474 -0.5718 -0.3059 -0.5089
  135MOL   O17432602   1.565   5.666   4.500 -0.2586  0.6010 -0.2230
  135MOL   O17532603   1.568   5.486   4.358  0.2839 -0.1783 -0.0260
  135MOL   H17632604   1.744   5.329   4.438  2.9249  1.4106 -0.9704
  135MOL   H17732605   1.762   5.284   4.610  0.1778 -0.6851  0.0380
  135MOL   H17832606   1.727   5.593   4.718  0.5991 -0.7739  0.2074
  135MOL   H17932607   1.665   5.447   4.804  0.5235 -1.4867 -0.6246
  135MOL   H18032608   1.559   5.560   4.745  2.1167  3.3117 -1.8309
  135MOL   H18132609   1.519   5.534   4.293 -1.7113 -1.5909  0.4003
  135MOL   C18232610   1.518   5.330   4.603  0.1247 -0.1524  1.2792
  135MOL   C18332611   1.368   5.361   4.663  0.4606  0.3009 -0.0985
  135MOL   C18432612   1.360   5.356   4.815 -0.4087  0.1496 -0.4547
  135MOL   C18532613   1.312   5.497   4.624 -0.6124  0.0755 -0.1182
  135MOL   O18632614   1.294   5.587   4.701  0.6131 -0.2388 -0.0274
  135MOL   O18732615   1.282   5.504   4.491 -0.2071 -0.5713 -0.3638
  135MOL   H18832616   1.503   5.277   4.509  0.9437  1.8143  0.0009
  135MOL   H18932617   1.556   5.249   4.665  1.9322  0.5507  1.1212
  135MOL   H19032618   1.383   5.261   4.863  0.7407 -1.1363 -3.3998
  135MOL   H19132619   1.258   5.378   4.846 -0.1736  0.2049  0.2800
  135MOL   H19232620   1.417   5.436   4.863  1.5353 -0.7417 -1.2033
  135MOL   H19332621   1.263   5.592   4.462 -0.0926 -0.8703 -1.3716
  135MOL   C19432622   1.263   5.260   4.603  0.1012  0.0389 -0.5979
  135MOL   C19532623   1.232   5.117   4.646  0.1727  0.1747 -0.8097
  135MOL   C19632624   1.360   5.036   4.685  0.2759  0.1425  0.4481
  135MOL   C19732625   1.141   5.118   4.779  0.0341 -0.4143 -0.6602
  135MOL   O19832626   1.077   5.214   4.819 -0.3192  0.1789  0.4511
  135MOL   O19932627   1.131   4.997   4.843  0.1406 -0.4384  0.5345
  135MOL   H20032628   1.165   5.305   4.592 -0.5393 -1.1226  0.2925
  135MOL   H20132629   1.295   5.244   4.500 -0.2905  0.3670 -0.7706
  135MOL   H20232630   1.346   4.928   4.681  1.5627  0.0292 -1.6080
  135MOL   H20332631   1.412   5.069   4.775 -1.3666  0.1512  1.4161
  135MOL   H20432632   1.430   5.055   4.604 -2.3580 -4.0886 -3.0253
  135MOL   H20532633   1.069   5.007   4.913 -0.2537  1.3834 -0.0524
  135MOL   C20632634   1.159   5.034   4.525  0.5702 -0.1831  0.1019
  135MOL   C20732635   1.038   5.087   4.445 -0.6499 -0.6106 -0.0198
  135MOL   C20832636   0.924   5.142   4.535  0.5387  0.4737 -0.2467
  135MOL   C20932637   1.080   5.186   4.339  0.4753 -0.6098  0.4195
  135MOL   O21032638   1.184   5.179   4.275  0.3851 -0.1313  0.1922
  135MOL   O21132639   0.982   5.273   4.308 -0.3002 -0.7940  0.3202
  135MOL   H21232640   1.237   5.000   4.457 -1.6859 -0.4620 -2.4139
  135MOL   H21332641   1.122   4.945   4.577  0.4793  0.7989  1.7759
  135MOL   H21432642   0.835   5.186   4.491  0.0739 -0.8069 -0.6157
  135MOL   H21532643   0.956   5.231   4.589  1.2574  0.5602 -0.8033
  135MOL   H21632644   0.891   5.068   4.608  1.3253  0.9883  0.6355
  135MOL   H21732645   1.013   5.315   4.230 -1.9346  0.1311  0.1567
  135MOL   C21832646   0.982   4.959   4.371  0.1867  0.6494 -0.7506
  135MOL   C21932647   0.855   4.950   4.280 -0.2604  0.5019  0.3992
  135MOL   C22032648   0.728   4.996   4.349 -0.3531 -0.0469 -0.3820
  135MOL   C22132649   0.870   5.021   4.141  0.0826 -0.7242 -0.0114
  135MOL   O22232650   0.781   5.078   4.085  0.1564 -0.3732  0.1960
  135MOL   O22332651   1.003   5.016   4.102  0.2874  0.2749  1.1017
  135MOL   H22432652   1.061   4.916   4.309 -0.0246 -0.8543  0.0162
  135MOL   H22532653   0.963   4.891   4.454 -0.3505  0.9941 -0.5915
  135MOL   H22632654   0.641   4.961   4.293 -0.2460  1.0003 -1.2161
  135MOL   H22732655   0.727   5.104   4.335 -0.9811  0.3298  2.2552
  135MOL   H22832656   0.721   4.967   4.454 -0.0059  3.7474  0.7807
  135MOL   H22932657   1.014   5.084   4.037  0.6661  1.5291  2.4365
  135MOL   C23032658   0.849   4.793   4.256 -0.2533 -0.3317 -0.4545
  135MOL   C23132659   0.749   4.741   4.147  0.4650 -0.5656  0.1640
  135MOL   C23232660   0.810   4.627   4.065  0.1286  0.3354  0.3946
  135MOL   C23332661   0.615   4.701   4.209  0.5113  0.3843 -0.5826
  135MOL   O23432662   0.507   4.750   4.180 -0.5196  0.0501 -0.3606
  135MOL   O23532663   0.631   4.604   4.293  0.0586  0.3166 -0.7400
  135MOL   H23632664   0.950   4.770   4.223  1.0940  2.9129  1.2290
  135MOL   H23732665   0.817   4.751   4.352 -2.4546 -1.4990 -1.6672
  135MOL   H23832666   0.849   4.556   4.139 -0.3129  0.6054  0.8907
  135MOL   H23932667   0.885   4.653   3.991 -0.2886  0.6722  0.0890
  135MOL   H24032668   0.739   4.568   4.006  1.1912  0.2266 -0.7830
  135MOL   H24132669   0.543   4.577   4.314  0.1067  0.4136 -0.4057
  135MOL   H24232670   0.719   4.820   4.077 -2.0336 -0.2030  1.5755
  136MOL     C132671   7.687   4.974   3.708  0.2033 -0.2903 -0.4736
  136MOL     C232672   7.604   4.855   3.654 -0.0132 -0.6264 -0.1370
  136MOL     C332673   7.694   4.730   3.692  0.8650 -0.0115  1.1046
  136MOL     C432674   7.458   4.836   3.713 -0.6427 -0.2678  0.0956
  136MOL     O532675   7.430   4.890   3.820  0.1656  0.5763  0.6837
  136MOL     O632676   7.383   4.746   3.641  0.2814  0.1094 -0.5788
  136MOL     H732677   0.024   4.963   3.679  0.5792  1.1664  0.2720
  136MOL     H832678   7.677   4.966   3.816  1.4191 -0.8100 -0.3980
  136MOL     H932679   7.642   4.646   3.646  1.9567 -1.2688  2.1280
  136MOL    H1032680   7.690   4.709   3.799 -2.1861  0.4242  1.1151
  136MOL    H1132681   0.032   4.726   3.662  0.3535 -2.8394 -0.5476
  136MOL    H1232682   7.296   4.731   3.675 -0.6570 -1.0833 -3.4288
  136MOL    H1332683   7.651   5.073   3.680  0.8797  0.1443  0.1540
  136MOL    C1432684   7.609   4.856   3.500  0.3850 -0.8379  0.6760
  136MOL    C1532685   7.559   4.975   3.412 -0.3429  0.3979  0.3587
  136MOL    C1632686   7.437   5.050   3.469 -0.0743  0.5156  0.2985
  136MOL    C1732687   7.672   5.079   3.385  0.0121 -0.3358  0.3776
  136MOL    O1832688   0.012   5.097   3.444  0.4765  0.2218 -0.0143
  136MOL    O1932689   7.628   5.167   3.292 -0.0081 -0.0953 -0.7639
  136MOL    H2032690   7.711   4.828   3.474  0.1777 -2.7681  1.8556
  136MOL    H2132691   7.549   4.773   3.464  0.6043 -1.0935  0.9012
  136MOL    H2232692   7.456   5.073   3.574 -1.4471  3.3576 -0.0245
  136MOL    H2332693   7.346   4.989   3.474 -0.7651  1.6883  3.7779
  136MOL    H2432694   7.412   5.141   3.416  0.8671  0.5921 -0.0119
  136MOL    H2532695   7.689   5.238   3.278 -1.9096  1.8077  0.2335
  136MOL    C2632696   7.516   4.909   3.270  0.3060 -0.2362  0.3827
  136MOL    C2732697   7.618   4.848   3.152  0.6424 -0.1053  0.7214
  136MOL    C2832698   7.701   4.962   3.091  0.1481 -0.1532  0.1441
  136MOL    C2932699   7.724   4.747   3.206  0.3143 -0.1032 -0.1949
  136MOL    O3032700   0.072   4.749   3.164  0.2680 -0.3820  0.0347
  136MOL    O3132701   7.680   4.655   3.292  0.1031  0.1979  0.1767
  136MOL    H3232702   7.444   4.828   3.281  0.6883 -0.6044  0.2284
  136MOL    H3332703   7.477   4.998   3.223 -0.0733 -0.5502  0.1057
  136MOL    H3432704   7.643   5.053   3.075 -2.2747 -1.4091  1.3846
  136MOL    H3532705   7.731   4.928   2.992  1.6523 -0.1925  0.6094
  136MOL    H3632706   0.021   4.977   3.155 -0.3036 -1.0924  1.0119
  136MOL    H3732707   7.747   4.599   3.328  1.1797  1.3243 -0.0402
  136MOL    C3832708   7.533   4.768   3.051  0.4828  0.1194  0.0423
  136MOL    C3932709   7.414   4.830   2.963  0.2936 -0.4396  0.5102
  136MOL    C4032710   7.299   4.887   3.053  1.0316  0.2492 -0.1643
  136MOL    C4132711   7.461   4.939   2.863 -0.1548 -0.6988 -0.3302
  136MOL    O4232712   7.400   5.048   2.845  0.0158  0.2179 -0.0398
  136MOL    O4332713   7.570   4.899   2.797  0.1198  0.0198 -0.3196
  136MOL    H4432714   7.602   4.716   2.983  0.5140 -1.3947  1.2062
  136MOL    H4532715   7.474   4.701   3.114  0.3347  0.8071  0.6312
  136MOL    H4632716   7.335   4.983   3.091  0.3778  0.1754  0.6542
  136MOL    H4732717   7.264   4.827   3.136  0.8585  0.6704  0.0689
  136MOL    H4832718   7.215   4.917   2.989  1.4803 -0.8383 -1.2742
  136MOL    H4932719   7.581   4.967   2.732 -2.7258  2.1422  1.3257
  136MOL    C5032720   7.352   4.712   2.881  0.1430  1.0021  0.4068
  136MOL    C5132721   7.273   4.718   2.746  0.7151 -0.0317  0.3311
  136MOL    C5232722   7.169   4.837   2.740 -0.1451  0.0553 -0.5908
  136MOL    C5332723   7.373   4.739   2.633 -0.5981 -0.5531 -0.0106
  136MOL    O5432724   7.493   4.701   2.626 -0.6900  0.0461 -0.0013
  136MOL    O5532725   7.327   4.826   2.537 -0.0353  0.4521  0.5523
  136MOL    H5632726   7.427   4.634   2.868 -2.1843 -1.4031  0.8722
  136MOL    H5732727   7.283   4.664   2.952 -1.3197  0.9016 -1.0535
  136MOL    H5832728   7.095   4.821   2.662 -2.8064  3.2020  1.1729
  136MOL    H5932729   7.206   4.938   2.724  0.1249  0.3046  1.4336
  136MOL    H6032730   7.107   4.838   2.829  0.3218  0.1225 -0.2620
  136MOL    H6132731   7.238   4.855   2.547  0.1140  0.3923  2.2116
  136MOL    C6232732   7.208   4.578   2.700  1.0573  1.3192  0.2349
  136MOL    C6332733   7.108   4.500   2.784  0.1823  0.3574 -0.9578
  136MOL    C6432734   7.180   4.407   2.891 -0.3073 -0.0585  0.0550
  136MOL    C6532735   7.013   4.604   2.850  0.5671 -0.3407  0.0740
  136MOL    O6632736   6.998   4.622   2.972 -0.0324  0.3938  0.1211
  136MOL    O6732737   6.936   4.671   2.758 -0.0934  0.6589 -0.3265
  136MOL    H6832738   7.153   4.597   2.608 -0.6974 -1.3917  0.6709
  136MOL    H6932739   7.296   4.516   2.685  1.2808  1.1714  2.0531
  136MOL    H7032740   7.249   4.457   2.958  1.2225 -0.2010 -1.3969
  136MOL    H7132741   7.236   4.338   2.828 -1.7890 -1.0703 -0.1828
  136MOL    H7232742   7.111   4.347   2.950  1.2798 -0.0987  1.9118
  136MOL    H7332743   6.879   4.735   2.799  1.4488  1.8064  0.0835
  136MOL    C7432744   7.021   4.411   2.694  0.0572  0.4972 -0.0942
  136MOL    C7532745   6.913   4.304   2.738 -0.1192  0.4871 -1.1832
  136MOL    C7632746   6.993   4.165   2.750 -0.0670 -0.1732  0.3601
  136MOL    C7732747   6.845   4.337   2.876 -0.3780 -0.2189  0.2996
  136MOL    O7832748   6.869   4.277   2.977 -0.6738 -0.0638 -0.2290
  136MOL    O7932749   6.763   4.444   2.866  0.0889  0.0878 -0.2870
  136MOL    H8032750   6.975   4.483   2.626  0.7255 -0.9529 -2.1209
  136MOL    H8132751   7.087   4.366   2.620  1.0944  0.4079  0.8681
  136MOL    H8232752   6.930   4.104   2.815 -1.6809  0.4869 -0.5532
  136MOL    H8332753   7.081   4.166   2.814  1.2033 -2.7451 -1.2932
  136MOL    H8432754   7.021   4.122   2.654 -0.9796  1.6864 -0.7640
  136MOL    H8532755   6.736   4.464   2.955  1.9014 -0.1911  0.3495
  136MOL    C8632756   6.818   4.285   2.616  0.4404 -0.5250  0.2652
  136MOL    C8732757   6.713   4.165   2.592 -0.1506 -0.1808  0.5703
  136MOL    C8832758   6.804   4.033   2.575  0.0462  0.4764 -0.0252
  136MOL    C8932759   6.617   4.142   2.715  0.3150  0.1372  0.1648
  136MOL    O9032760   6.561   4.238   2.765 -0.2329 -0.3640 -0.7666
  136MOL    O9132761   6.595   4.007   2.750 -0.6603 -0.7507 -0.3902
  136MOL    H9232762   6.763   4.378   2.610  2.0364  0.4598  0.7160
  136MOL    H9332763   6.875   4.286   2.524  0.0312  1.8711  0.0150
  136MOL    H9432764   6.882   4.052   2.502  1.4588 -1.1930  1.0151
  136MOL    H9532765   6.749   3.946   2.539 -0.1650 -0.3438  2.1977
  136MOL    H9632766   6.846   3.989   2.665 -0.5378 -0.9360 -0.4316
  136MOL    H9732767   6.545   4.009   2.830  0.4204  1.8738  0.2588
  136MOL    C9832768   6.635   4.212   2.461  0.5311  0.0263  0.4329
  136MOL    C9932769   6.522   4.132   2.387  0.2058 -0.2035 -0.6293
  136MOL   C10032770   6.567   3.986   2.350  0.6022 -0.2465 -0.4137
  136MOL   C10132771   6.399   4.130   2.467 -0.0097  0.6694  0.7919
  136MOL   O10232772   6.344   4.028   2.503 -0.2387  0.0948 -0.0433
  136MOL   O10332773   6.354   4.251   2.492  0.1911 -0.0619 -0.0963
  136MOL   H10432774   6.593   4.311   2.479 -0.6702 -0.9967  3.5123
  136MOL   H10532775   6.717   4.228   2.391  0.6246  1.4980  0.8574
  136MOL   H10632776   6.667   3.971   2.309  1.0111 -0.3894  0.6306
  136MOL   H10732777   6.503   3.937   2.277  0.0726  1.0267 -0.8179
  136MOL   H10832778   6.569   3.941   2.449  1.6628 -0.6133 -0.5957
  136MOL   H10932779   6.285   4.223   2.550  0.0627  3.4479  1.6173
  136MOL   C11032780   6.477   4.200   2.248  0.5837  0.5071  0.7049
  136MOL   C11132781   6.570   4.256   2.129 -0.2203  0.0504  0.7939
  136MOL   C11232782   6.631   4.395   2.163  0.1553 -0.0342  0.0639
  136MOL   C11332783   6.683   4.149   2.111 -0.3144 -0.1950  0.3875
  136MOL   O11432784   6.796   4.164   2.149 -0.5184 -0.0503  0.0180
  136MOL   O11532785   6.644   4.036   2.053 -0.3100 -0.0138  0.4081
  136MOL   H11632786   6.414   4.126   2.199  0.2002  1.5310 -0.3701
  136MOL   H11732787   6.397   4.272   2.265  0.6561  1.4625 -2.7524
  136MOL   H11832788   6.558   4.476   2.158 -1.2003 -1.2329  0.2896
  136MOL   H11932789   6.713   4.413   2.093 -0.4688 -2.3660 -1.3294
  136MOL   H12032790   6.675   4.396   2.263  0.4659 -3.2077 -0.0113
  136MOL   H12132791   6.717   3.984   2.023 -0.9927 -1.2924  0.9080
  136MOL   C12232792   6.476   4.268   1.996 -0.8108  0.4232  0.0532
  136MOL   C12332793   6.527   4.312   1.850 -0.2772 -0.6800 -0.5069
  136MOL   C12432794   6.636   4.207   1.798  0.4462  0.1871 -0.1709
  136MOL   C12532795   6.403   4.289   1.760 -0.2105  0.3161  0.1214
  136MOL   O12632796   6.402   4.226   1.653 -0.1726 -0.1520  0.0684
  136MOL   O12732797   6.292   4.349   1.814 -0.0068  0.8115 -0.0119
  136MOL   H12832798   6.421   4.175   1.989  0.3919 -0.4115  1.3136
  136MOL   H12932799   6.407   4.346   2.030 -0.9789 -0.5352  2.0068
  136MOL   H13032800   6.736   4.219   1.840 -0.2095 -0.0921  1.5107
  136MOL   H13132801   6.658   4.211   1.691 -1.3509 -2.6349 -0.6914
  136MOL   H13232802   6.599   4.107   1.819 -0.2894  0.3833 -0.5002
  136MOL   H13332803   6.215   4.327   1.763  1.2912 -1.2919 -1.0926
  136MOL   C13432804   6.580   4.463   1.843 -0.4067  0.2820 -0.9590
  136MOL   C13532805   6.585   4.549   1.710 -0.7014  0.5308 -0.0359
  136MOL   C13632806   6.641   4.451   1.603  0.4305  0.7233 -0.5845
  136MOL   C13732807   6.446   4.605   1.677 -0.3005 -0.0939  0.6299
  136MOL   O13832808   6.393   4.595   1.568 -0.2757  0.0734 -0.5293
  136MOL   O13932809   6.392   4.666   1.784  0.3563 -0.9588 -0.4495
  136MOL   H14032810   6.531   4.526   1.918 -0.1072 -0.0991 -0.4364
  136MOL   H14132811   6.683   4.460   1.880 -0.0004 -0.0692 -2.1123
  136MOL   H14232812   6.659   4.500   1.507 -0.0296  0.1844 -0.9503
  136MOL   H14332813   6.560   4.386   1.569  0.0400 -0.1680  1.9631
  136MOL   H14432814   6.725   4.392   1.640 -0.3790  1.3418  2.3799
  136MOL   H14532815   6.299   4.680   1.782  0.2048 -1.7343  0.5812
  136MOL   C14632816   6.694   4.672   1.709 -0.3088 -0.1754  0.1629
  136MOL   C14732817   6.673   4.814   1.767  0.2139 -0.3179 -0.3574
  136MOL   C14832818   6.570   4.898   1.680 -0.5489 -0.0021 -0.7299
  136MOL   C14932819   6.623   4.810   1.919 -0.0935  0.2471 -0.5057
  136MOL   O15032820   6.688   4.762   2.012  0.5580 -0.0090  0.2231
  136MOL   O15132821   6.509   4.881   1.935 -0.7866  0.1856  0.1424
  136MOL   H15232822   6.787   4.632   1.750 -0.6176 -2.2406 -1.1209
  136MOL   H15332823   6.707   4.690   1.603  2.8391 -1.7392  0.2359
  136MOL   H15432824   6.612   4.903   1.580 -0.4068  0.2303 -0.6609
  136MOL   H15532825   6.554   4.998   1.721  2.8613 -0.3958  1.8223
  136MOL   H15632826   6.472   4.859   1.655 -1.5432  1.5801  0.5875
  136MOL   H15732827   6.507   4.914   2.024  0.8771  0.4797  0.0824
  136MOL   C15832828   6.816   4.882   1.764  0.1689 -0.0114 -0.0923
  136MOL   C15932829   6.843   5.039   1.769  0.5902  0.1445  0.3001
  136MOL   C16032830   6.854   5.084   1.614  0.0748  0.3345 -0.2056
  136MOL   C16132831   6.734   5.129   1.835 -0.3788  1.0392  0.3249
  136MOL   O16232832   6.678   5.221   1.777 -0.5667 -0.1621  0.4722
  136MOL   O16332833   6.702   5.075   1.958  0.3845 -0.1818  0.4725
  136MOL   H16432834   6.881   4.827   1.833  0.8277  1.3011  0.3461
  136MOL   H16532835   6.864   4.846   1.673 -2.2868  1.5176 -2.0627
  136MOL   H16632836   6.908   5.178   1.618 -0.1737  0.3999  3.4875
  136MOL   H16732837   6.760   5.090   1.559  0.7269 -0.6934 -1.4481
  136MOL   H16832838   6.914   5.013   1.559 -2.5458 -1.7901 -0.4454
  136MOL   H16932839   6.625   5.118   1.991 -0.7139 -2.7259  1.3917
  136MOL   C17032840   6.976   5.056   1.836  0.7101 -0.0624 -0.1562
  136MOL   C17132841   7.035   5.201   1.884 -0.8227 -0.1306  0.2315
  136MOL   C17232842   7.002   5.317   1.794  0.0400 -0.5538 -0.1911
  136MOL   C17332843   6.977   5.234   2.026  0.5141 -0.0322  0.5476
  136MOL   O17432844   6.889   5.322   2.042 -0.2802 -0.1562  0.5957
  136MOL   O17532845   7.019   5.145   2.120 -0.6882 -0.4273  0.6667
  136MOL   H17632846   6.974   5.001   1.930 -2.3925  0.3111  0.0516
  136MOL   H17732847   7.050   4.999   1.781  2.0165  1.9004 -0.4613
  136MOL   H17832848   6.894   5.328   1.782 -0.1596 -0.1990  1.7331
  136MOL   H17932849   7.040   5.316   1.692 -2.4096  4.7044 -1.3360
  136MOL   H18032850   7.046   5.407   1.838 -1.6594  1.3515 -2.2946
  136MOL   H18132851   6.988   5.150   2.209  0.1331 -2.9313  1.1307
  136MOL   C18232852   7.193   5.183   1.893  0.0589  0.3011  0.1383
  136MOL   C18332853   7.297   5.197   1.775 -0.2046  0.7755 -0.1543
  136MOL   C18432854   7.251   5.104   1.656  0.4350 -0.0858 -0.2999
  136MOL   C18532855   7.297   5.343   1.735  0.1047  0.0974 -0.0002
  136MOL   O18632856   7.305   5.367   1.613 -0.1677  0.0656 -0.3279
  136MOL   O18732857   7.316   5.433   1.835 -0.3905 -0.3571  0.3973
  136MOL   H18832858   7.230   5.252   1.969 -0.7824  0.4742  0.3935
  136MOL   H18932859   7.201   5.078   1.923  0.3194  0.3645  0.2957
  136MOL   H19032860   7.322   5.106   1.574  2.2767  0.4048  1.2611
  136MOL   H19132861   7.151   5.128   1.619 -0.0143 -3.6719 -1.6742
  136MOL   H19232862   7.240   4.997   1.675 -2.5432 -0.1759 -2.1575
  136MOL   H19332863   7.326   5.375   1.909 -0.2953 -0.7566  0.0662
  136MOL   C19432864   7.438   5.149   1.828 -0.7853 -0.2221  0.1245
  136MOL   C19532865   7.586   5.183   1.753  0.0355 -0.5408 -0.5365
  136MOL   C19632866   7.581   5.143   1.606 -0.3855 -0.0272  0.9645
  136MOL   C19732867   7.640   5.332   1.756  0.8117 -0.3376 -0.2860
  136MOL   O19832868   7.716   5.376   1.670 -0.2302  0.0439  0.9000
  136MOL   O19932869   7.591   5.413   1.857  0.7671 -0.3846  0.3496
  136MOL   H20032870   7.442   5.190   1.928  0.5320 -0.3558  0.1320
  136MOL   H20132871   7.430   5.043   1.849  1.1231 -0.1591  1.2621
  136MOL   H20232872   7.523   5.209   1.541  1.6139  0.2644 -0.5646
  136MOL   H20332873   7.548   5.042   1.581 -0.2315 -0.0540  0.8713
  136MOL   H20432874   7.685   5.148   1.572 -0.2206 -1.3631  1.2385
  136MOL   H20532875   7.602   5.504   1.834 -0.7714 -0.7866 -2.1204
  136MOL   C20632876   7.692   5.085   1.819 -0.0073  0.6987 -0.2812
  136MOL   C20732877   0.030   5.110   1.931  0.1845  0.0711  0.1107
  136MOL   C20832878   0.158   5.172   1.874 -0.0406  0.4367  0.0443
  136MOL   C20932879   7.736   5.203   2.042 -0.7113 -0.3455  0.7614
  136MOL   O21032880   0.007   5.316   2.073 -0.3246  0.7028 -0.3268
  136MOL   O21132881   7.631   5.143   2.097  0.8026 -0.0542 -0.4704
  136MOL   H21232882   7.633   5.001   1.856 -2.2082  2.0051 -0.6759
  136MOL   H21332883   7.751   5.038   1.741  1.7315  0.3169  1.2230
  136MOL   H21432884   0.198   5.113   1.791 -2.2331 -0.0422 -0.7187
  136MOL   H21532885   0.235   5.205   1.943  2.0114 -1.3067 -1.3207
  136MOL   H21632886   0.133   5.268   1.828  0.5554  0.9120  0.7170
  136MOL   H21732887   7.587   5.188   2.168  2.8153  1.3196 -0.0537
  136MOL   C21832888   0.075   4.977   2.002  0.4841  0.2516 -0.5004
  136MOL   C21932889   0.185   4.971   2.121 -0.1258  0.4600  0.3939
  136MOL   C22032890   0.163   4.833   2.183 -0.5508  0.4230 -0.4196
  136MOL   C22132891   0.327   4.962   2.058 -0.1010 -0.2737  0.3475
  136MOL   O22232892   0.356   4.871   1.986  0.1005 -0.2958  0.3405
  136MOL   O22332893   0.409   5.067   2.087  0.9419  0.4927 -0.4283
  136MOL   H22432894   7.750   4.936   2.045  0.5423  1.3646  0.6797
  136MOL   H22532895   0.114   4.896   1.940  0.1275 -0.8040  0.6410
  136MOL   H22632896   0.251   4.798   2.238 -2.0086 -2.2740  0.2390
  136MOL   H22732897   0.137   4.755   2.111 -1.9688  2.0955 -1.7749
  136MOL   H22832898   0.077   4.831   2.249 -0.6723 -0.2560 -0.6002
  136MOL   H22932899   0.499   5.069   2.059  0.4363 -0.3517 -2.2076
  136MOL   C23032900   0.176   5.080   2.230 -0.8293  0.4759 -0.6882
  136MOL   C23132901   0.243   5.063   2.370 -0.2363 -0.1496  0.3475
  136MOL   C23232902   0.291   5.192   2.430  0.1266  0.1704 -0.9461
  136MOL   C23332903   0.159   4.984   2.472  0.0293 -0.1135  0.2873
  136MOL   O23432904   0.040   4.987   2.472  0.1706 -0.3626 -0.1611
  136MOL   O23532905   0.228   4.902   2.560  0.0942 -0.3938 -0.0977
  136MOL   H23632906   0.216   5.168   2.180 -2.2596  2.3776  1.4300
  136MOL   H23732907   0.070   5.092   2.256  0.0129  0.1739  3.1307
  136MOL   H23832908   0.216   5.262   2.467 -0.4351  1.0524 -3.6419
  136MOL   H23932909   0.351   5.245   2.356  1.6853 -2.0505 -1.3313
  136MOL   H24032910   0.352   5.177   2.519 -2.0330 -0.6647  0.4381
  136MOL   H24132911   0.166   4.862   2.619 -0.0906  1.8643  1.3171
  136MOL   H24232912   0.335   5.007   2.355 -0.6605 -0.7319 -0.1447
  137MOL     C132913   1.634   0.814   5.655  0.0772 -0.0408  0.8411
  137MOL     C232914   1.521   0.718   5.655 -1.0805  0.0396  0.0029
  137MOL     C332915   1.598   0.580   5.649  0.1053 -0.7065 -0.8621
  137MOL     C432916   1.438   0.732   5.778  0.0936 -0.4538 -0.3780
  137MOL     O532917   1.456   0.808   5.872  0.0098 -0.2206  0.1465
  137MOL     O632918   1.338   0.638   5.793  0.1255 -0.1218  0.0055
  137MOL     H732919   1.715   0.786   5.723  0.4016  0.1242  0.5214
  137MOL     H832920   1.608   0.919   5.673  1.3833  0.6248 -1.0762
  137MOL     H932921   1.641   0.557   5.746 -1.4519 -3.5641 -0.7963
  137MOL    H1032922   1.675   0.568   5.573 -1.0623 -0.4478 -2.1236
  137MOL    H1132923   1.533   0.497   5.623  0.4699 -0.3464 -2.9911
  137MOL    H1232924   1.294   0.644   5.877  0.5625  2.3995  0.0854
  137MOL    H1332925   1.691   0.814   5.562  0.6050 -1.8639  1.1491
  137MOL    C1432926   1.453   0.738   5.519 -0.0156 -0.3056 -0.2381
  137MOL    C1532927   1.385   0.878   5.467 -0.2955  0.1043 -0.1503
  137MOL    C1632928   1.291   0.927   5.582 -0.2287  0.4022 -0.3074
  137MOL    C1732929   1.496   0.971   5.417 -0.0340  0.1333  0.3099
  137MOL    O1832930   1.567   0.952   5.326 -0.0151  0.1942  0.6275
  137MOL    O1932931   1.498   1.086   5.482 -0.5429 -0.2193  0.3675
  137MOL    H2032932   1.516   0.702   5.438  0.6457 -0.4959  0.3578
  137MOL    H2132933   1.372   0.667   5.534 -0.4385  0.2852  0.3036
  137MOL    H2232934   1.350   0.957   5.669 -0.7005  0.8353 -0.1356
  137MOL    H2332935   1.206   0.863   5.607  0.1440  0.1612  0.3721
  137MOL    H2432936   1.249   1.023   5.556 -1.1350  0.3543  0.9092
  137MOL    H2532937   1.548   1.161   5.453 -1.4267 -0.2717 -1.4159
  137MOL    C2632938   1.292   0.836   5.345  0.3526 -0.1623 -0.0140
  137MOL    C2732939   1.193   0.928   5.261 -1.1692 -0.9542 -0.1105
  137MOL    C2832940   1.135   0.840   5.148 -0.1338  0.0835  0.2486
  137MOL    C2932941   1.077   0.963   5.356 -0.9106  0.3704 -0.6196
  137MOL    O3032942   1.060   1.071   5.405 -0.4919 -0.0655 -0.6256
  137MOL    O3132943   0.998   0.861   5.393  0.1433 -0.4803  0.4044
  137MOL    H3232944   1.348   0.781   5.269 -1.1607  2.0381 -2.8242
  137MOL    H3332945   1.233   0.752   5.381  0.7998  0.4167  2.1316
  137MOL    H3432946   1.061   0.897   5.092  1.0335  0.8214 -0.5590
  137MOL    H3532947   1.071   0.757   5.178  1.3933 -1.2306 -0.0682
  137MOL    H3632948   1.220   0.813   5.085 -0.3500  0.5523 -0.2525
  137MOL    H3732949   0.923   0.902   5.434 -0.1511  1.1504 -1.7033
  137MOL    C3832950   1.276   1.052   5.204  0.2604 -0.4598  0.1116
  137MOL    C3932951   1.222   1.146   5.091 -0.1429 -0.7527  0.7329
  137MOL    C4032952   1.332   1.255   5.082  0.5884  0.4719  0.2861
  137MOL    C4132953   1.245   1.066   4.960 -0.5556 -0.4587 -0.6282
  137MOL    O4232954   1.357   1.033   4.916 -0.0462 -0.0471 -0.0647
  137MOL    O4332955   1.130   1.026   4.911 -0.4308  0.0588  0.2135
  137MOL    H4432956   1.300   1.116   5.290  3.4840  0.1171 -1.1480
  137MOL    H4532957   1.375   1.017   5.177  0.6574  0.6270  0.1233
  137MOL    H4632958   1.428   1.218   5.118  0.4490  2.2697  2.6427
  137MOL    H4732959   1.293   1.336   5.144 -1.3189 -1.0402  1.1097
  137MOL    H4832960   1.343   1.282   4.977  0.4810  0.3276  0.2391
  137MOL    H4932961   1.133   0.987   4.825  0.4222 -0.6333  0.5524
  137MOL    C5032962   1.081   1.210   5.127  0.2984 -0.7226  0.5740
  137MOL    C5132963   0.980   1.295   5.046 -0.2327  0.9813  0.7491
  137MOL    C5232964   1.060   1.411   4.982  0.5066 -0.1704  0.5206
  137MOL    C5332965   0.906   1.207   4.938  0.0415 -0.2176  0.8422
  137MOL    O5432966   0.927   1.218   4.817  0.3964 -0.3740 -0.9181
  137MOL    O5532967   0.827   1.108   4.991 -0.1051 -0.0058 -0.3346
  137MOL    H5632968   1.033   1.114   5.151  1.0369 -0.3731  3.6979
  137MOL    H5732969   1.091   1.256   5.226 -1.4887  0.9460 -0.0039
  137MOL    H5832970   0.999   1.476   4.920  2.3801  1.1329 -0.0080
  137MOL    H5932971   1.142   1.376   4.919  0.4994 -2.0118  1.4991
  137MOL    H6032972   1.104   1.478   5.055  1.5792  0.3485 -0.5787
  137MOL    H6132973   0.776   1.060   4.928  0.0087 -2.4918  1.4008
  137MOL    C6232974   0.884   1.360   5.156  0.0704 -0.0410  0.4737
  137MOL    C6332975   0.741   1.425   5.135 -0.9801 -0.3648 -0.0881
  137MOL    C6432976   0.763   1.531   5.031 -0.5260 -0.3316 -0.2953
  137MOL    C6532977   0.641   1.319   5.098 -0.3236 -0.1354  0.8859
  137MOL    O6632978   0.586   1.237   5.170 -0.2739 -0.5284 -0.0264
  137MOL    O6732979   0.611   1.320   4.964  0.1998 -0.4683 -0.5635
  137MOL    H6832980   0.864   1.286   5.233  0.9416  1.6042  2.3157
  137MOL    H6932981   0.941   1.439   5.205 -0.1518 -1.0330  2.3744
  137MOL    H7032982   0.800   1.492   4.936 -0.4291  0.9558 -0.7989
  137MOL    H7132983   0.830   1.611   5.062 -1.7081  0.9919 -1.0584
  137MOL    H7232984   0.678   1.582   4.985  0.0635 -0.9559 -2.1563
  137MOL    H7332985   0.549   1.251   4.946 -1.1967  0.1872  1.4762
  137MOL    C7432986   0.700   1.479   5.278 -0.6398  0.0757 -0.0444
  137MOL    C7532987   0.730   1.618   5.331 -0.1093  0.1891 -0.1503
  137MOL    C7632988   0.888   1.643   5.332  0.0252 -0.2223  0.1124
  137MOL    C7732989   0.656   1.735   5.251 -0.0292  0.2172  0.5852
  137MOL    O7832990   0.547   1.725   5.193 -0.3743 -0.2858 -1.0928
  137MOL    O7932991   0.720   1.854   5.258  0.0015  0.2364  0.2933
  137MOL    H8032992   0.591   1.484   5.269 -0.5892 -0.0815 -0.8196
  137MOL    H8132993   0.714   1.393   5.344  1.7912  0.7848  0.3883
  137MOL    H8232994   0.934   1.563   5.390 -1.9320 -1.3339  0.1955
  137MOL    H8332995   0.909   1.735   5.387 -1.0826  1.0128 -1.4801
  137MOL    H8432996   0.943   1.648   5.238  1.8190 -2.3857  0.9953
  137MOL    H8532997   0.663   1.920   5.223 -1.5294 -1.6800 -0.9390
  137MOL    C8632998   0.685   1.603   5.482  0.0767 -0.1861 -0.5151
  137MOL    C8732999   0.666   1.712   5.586  0.0243 -1.1551 -0.1229
  137MOL    C8833000   0.784   1.816   5.591  0.3831 -0.0324 -0.0194
  137MOL    C8933001   0.540   1.795   5.548 -0.4511  0.3020  0.1149
  137MOL    O9033002   0.540   1.915   5.530  0.4591 -0.3415 -0.1387
  137MOL    O9133003   0.431   1.716   5.545  0.4512 -0.2151  0.5306
  137MOL    H9233004   0.593   1.546   5.473 -0.5640  0.6905  0.4016
  137MOL    H9333005   0.742   1.527   5.537  0.1976  1.5116  1.8057
  137MOL    H9433006   0.763   1.907   5.648 -2.9901 -1.0564  0.4248
  137MOL    H9533007   0.802   1.870   5.498 -1.1878 -3.6639 -2.5308
  137MOL    H9633008   0.871   1.757   5.620 -0.7290 -1.9720 -0.5661
  137MOL    H9733009   0.346   1.750   5.518  1.2178  0.8763 -0.6012
  137MOL    C9833010   0.654   1.637   5.730  0.0241  0.2222  0.2706
  137MOL    C9933011   0.638   1.718   5.866  0.2666  0.7687 -0.0102
  137MOL   C10033012   0.541   1.839   5.853 -0.1137 -0.7919 -0.6502
  137MOL   C10133013   0.585   1.612   5.966  0.0905 -0.4127  0.4427
  137MOL   O10233014   0.500   1.623   6.048 -0.2408 -0.0821  0.1509
  137MOL   O10333015   0.648   1.489   5.951 -0.0432 -0.3838 -0.0561
  137MOL   H10433016   0.561   1.580   5.726 -0.1968  0.5773  0.3892
  137MOL   H10533017   0.743   1.575   5.740  0.2209  0.6673  1.3268
  137MOL   H10633018   0.578   1.915   5.784 -0.2932 -1.8389 -1.9232
  137MOL   H10733019   0.512   1.893   5.943  0.1662  0.8243 -1.5032
  137MOL   H10833020   0.450   1.798   5.810 -0.8582  0.6275 -0.4172
  137MOL   H10933021   0.615   1.441   6.025 -1.9009  1.0460  0.0894
  137MOL   C11033022   0.777   1.770   5.924  0.1490 -0.1024  0.6891
  137MOL   C11133023   0.811   1.802   6.071 -0.1056  0.1545  0.5541
  137MOL   C11233024   0.708   1.894   6.128 -0.5646  0.5437 -0.2064
  137MOL   C11333025   0.823   1.681   6.167 -0.4396 -0.4065  0.1055
  137MOL   O11433026   0.871   1.573   6.133  0.2562 -0.3821 -0.3792
  137MOL   O11533027   0.789   1.705   6.297  0.1544 -0.3624 -0.3021
  137MOL   H11633028   0.839   1.682   5.903 -0.1110 -0.3955  1.1421
  137MOL   H11733029   0.809   1.847   5.854 -2.5212 -0.4116 -0.9345
  137MOL   H11833030   0.675   1.971   6.058  0.0396  0.1950 -0.8867
  137MOL   H11933031   0.743   1.942   6.219 -2.4276  1.6881 -0.0645
  137MOL   H12033032   0.620   1.837   6.161  0.9886 -0.5885  2.0546
  137MOL   H12133033   0.810   1.627   6.348 -0.5031  0.4953  1.3286
  137MOL   C12233034   0.941   1.889   6.074  0.2457 -0.0094  0.1303
  137MOL   C12333035   1.076   1.870   5.995 -0.2931 -0.6364 -0.5210
  137MOL   C12433036   1.124   1.720   6.014 -0.0754 -0.3729  0.2387
  137MOL   C12533037   1.054   1.909   5.843 -0.7065  0.1998 -0.5676
  137MOL   O12633038   0.980   1.997   5.801  0.6737 -0.6701 -0.1524
  137MOL   O12733039   1.126   1.826   5.760  0.2994 -0.4774  0.5006
  137MOL   H12833040   0.921   1.993   6.047  1.4407  0.5546  1.3328
  137MOL   H12933041   0.972   1.895   6.179 -1.4141 -0.2561  0.6469
  137MOL   H13033042   1.137   1.690   6.119  2.4320 -1.2717 -0.3003
  137MOL   H13133043   1.221   1.694   5.973 -0.1146 -0.0524 -0.0492
  137MOL   H13233044   1.056   1.640   5.985  0.5444 -0.3963 -1.1399
  137MOL   H13333045   1.120   1.857   5.671 -4.3114 -3.9120 -0.5878
  137MOL   C13433046   1.172   1.974   6.065 -0.1918 -0.1616 -0.4016
  137MOL   C13533047   1.306   2.018   6.001 -0.1142  0.5289  0.7138
  137MOL   C13633048   1.385   2.089   6.114  0.1504 -0.6458 -0.1469
  137MOL   C13733049   1.396   1.893   5.969 -0.1579  0.8372  1.1123
  137MOL   O13833050   1.451   1.825   6.055 -0.6201  0.3967  0.0057
  137MOL   O13933051   1.386   1.850   5.841 -0.2542 -0.7152 -0.2262
  137MOL   H14033052   1.124   2.067   6.095 -0.8755 -1.3139  2.1943
  137MOL   H14133053   1.198   1.928   6.161 -0.2287 -0.1171 -0.3704
  137MOL   H14233054   1.335   2.182   6.143  1.2827 -0.2735  0.6413
  137MOL   H14333055   1.481   2.118   6.073 -0.7392  0.2830 -1.6216
  137MOL   H14433056   1.394   2.034   6.208  1.8800  2.3551  1.5336
  137MOL   H14533057   1.429   1.771   5.810  4.7410  1.8957 -0.4546
  137MOL   C14633058   1.289   2.110   5.870 -0.1228  0.1134  0.0543
  137MOL   C14733059   1.386   2.229   5.819  0.1543 -0.1893  0.6710
  137MOL   C14833060   1.403   2.346   5.919  0.2433 -0.8707  0.1250
  137MOL   C14933061   1.539   2.193   5.792  0.0094 -0.3244 -0.4821
  137MOL   O15033062   1.591   2.087   5.829  0.3658  0.1209 -0.2271
  137MOL   O15133063   1.606   2.294   5.719  0.4665 -0.3286 -0.2428
  137MOL   H15233064   1.275   2.039   5.789  3.2801 -2.9812  2.0372
  137MOL   H15333065   1.196   2.166   5.880  0.3829  0.7890  1.1627
  137MOL   H15433066   1.458   2.430   5.875  2.2116 -1.2398  1.7952
  137MOL   H15533067   1.461   2.327   6.009  0.8604 -0.8388 -0.2560
  137MOL   H15633068   1.313   2.398   5.952 -0.9947 -2.6448 -0.4147
  137MOL   H15733069   1.697   2.271   5.732 -0.1091 -2.3063  0.3579
  137MOL   C15833070   1.329   2.293   5.685  0.0223  0.1451 -0.0973
  137MOL   C15933071   1.284   2.213   5.554  0.0762  0.1620  0.3875
  137MOL   C16033072   1.398   2.114   5.525  0.4668 -0.4652  0.0668
  137MOL   C16133073   1.152   2.136   5.581  0.0150 -0.1147 -0.3996
  137MOL   O16233074   1.135   2.015   5.557 -0.1295  0.1477  0.5030
  137MOL   O16333075   1.056   2.215   5.641 -0.4297 -0.2338  0.7423
  137MOL   H16433076   1.241   2.349   5.718  0.0438 -0.6900  1.4594
  137MOL   H16533077   1.388   2.378   5.652  1.1961  0.4608  2.6547
  137MOL   H16633078   1.375   2.062   5.433 -1.0821  1.5014 -0.6833
  137MOL   H16733079   1.408   2.031   5.595 -0.5819 -0.5699  0.0971
  137MOL   H16833080   1.487   2.175   5.510  1.0355 -1.0177  1.1284
  137MOL   H16933081   0.976   2.166   5.639 -1.6596  1.7600 -0.1206
  137MOL   C17033082   1.261   2.317   5.445 -0.2869  0.1134 -0.0719
  137MOL   C17133083   1.188   2.296   5.310  0.2837  0.4556 -0.3425
  137MOL   C17233084   1.038   2.281   5.336 -0.0102  0.3232 -0.6210
  137MOL   C17333085   1.203   2.430   5.222 -0.5919  0.6510 -0.5609
  137MOL   O17433086   1.108   2.492   5.163 -0.0337 -0.5054  0.0849
  137MOL   O17533087   1.331   2.455   5.212  0.2978  0.2922  0.6860
  137MOL   H17633088   1.234   2.417   5.479 -0.6057 -0.2311  0.7097
  137MOL   H17733089   1.363   2.318   5.408 -0.8461 -0.5950 -1.6866
  137MOL   H17833090   0.990   2.195   5.383 -0.8378  0.7384 -0.7066
  137MOL   H17933091   0.976   2.286   5.247  0.7568 -0.9798 -1.2386
  137MOL   H18033092   1.004   2.366   5.396 -3.3587 -2.3074  1.4268
  137MOL   H18133093   1.351   2.529   5.156 -0.6408 -0.5211 -0.7724
  137MOL   C18233094   1.239   2.161   5.235 -1.2417  0.7459 -0.4139
  137MOL   C18333095   1.212   2.113   5.089 -0.3316 -0.7111 -0.1589
  137MOL   C18433096   1.056   2.142   5.057  0.3602  0.0211 -0.6557
  137MOL   C18533097   1.300   2.195   4.997 -0.3742  0.4462  0.3570
  137MOL   O18633098   1.409   2.241   5.027  0.3380  0.0296  0.1965
  137MOL   O18733099   1.242   2.207   4.869 -0.5554  0.0730  0.2127
  137MOL   H18833100   1.347   2.176   5.238 -0.6963 -2.9870  1.5454
  137MOL   H18933101   1.207   2.078   5.298  1.3591  1.6326  2.2161
  137MOL   H19033102   1.031   2.248   5.042 -1.5653 -0.5232 -1.5145
  137MOL   H19133103   0.990   2.094   5.129 -0.1697  1.4533 -0.1570
  137MOL   H19233104   1.032   2.082   4.969  1.6910 -1.3356 -0.1067
  137MOL   H19333105   1.174   2.149   4.838  0.5525 -1.1564  0.0266
  137MOL   C19433106   1.229   1.955   5.083  0.5391 -0.1923 -0.1529
  137MOL   C19533107   1.362   1.880   5.062  0.1854 -0.0321  0.0654
  137MOL   C19633108   1.330   1.725   5.057 -0.6668  0.6507 -0.1608
  137MOL   C19733109   1.415   1.917   4.923  1.1089 -0.0119  0.5283
  137MOL   O19833110   1.507   1.989   4.899  0.1904 -0.2111 -0.8236
  137MOL   O19933111   1.339   1.865   4.828  0.3294 -0.0371 -0.0810
  137MOL   H20033112   1.171   1.908   5.163 -0.3251 -2.1773 -1.8952
  137MOL   H20133113   1.172   1.930   4.993  0.8468 -0.2698 -0.3267
  137MOL   H20233114   1.404   1.667   5.001  0.5355  2.9016 -0.9763
  137MOL   H20333115   1.228   1.702   5.026 -0.3618  0.9070 -1.3512
  137MOL   H20433116   1.335   1.686   5.159  0.2681  1.5075  0.1233
  137MOL   H20533117   1.368   1.915   4.753  0.4941  1.1555  0.7708
  137MOL   C20633118   1.465   1.920   5.170  0.7650  0.4876 -0.2247
  137MOL   C20733119   1.618   1.874   5.174 -0.0809 -0.4978 -0.4731
  137MOL   C20833120   1.637   1.733   5.118  0.1279 -0.5772 -0.1790
  137MOL   C20933121   1.717   1.967   5.087 -0.9142 -0.2546  0.1760
  137MOL   O21033122   1.803   1.923   5.010  0.2892  0.0571  0.0324
  137MOL   O21133123   1.697   2.097   5.110 -0.1765 -0.5913  0.2771
  137MOL   H21233124   1.457   2.028   5.178  1.3215  0.7408 -2.6829
  137MOL   H21333125   1.414   1.878   5.257 -0.7427  1.9743 -0.3689
  137MOL   H21433126   1.608   1.752   5.014 -0.5171 -1.8619 -0.2451
  137MOL   H21533127   1.574   1.655   5.160 -0.5156 -0.3378 -0.6934
  137MOL   H21633128   1.741   1.704   5.100  0.0737 -0.9254  0.0859
  137MOL   H21733129   1.757   2.151   5.060  0.7275 -0.4956  1.4303
  137MOL   C21833130   1.664   1.881   5.327  0.3268 -0.0671 -0.2701
  137MOL   C21933131   1.781   1.801   5.399 -0.1884  0.2075 -0.1726
  137MOL   C22033132   1.754   1.646   5.401 -0.4998 -0.2414  0.2789
  137MOL   C22133133   1.916   1.825   5.328 -0.1886  0.3419  0.5474
  137MOL   O22233134   1.984   1.740   5.266  0.1312  0.2646 -0.8564
  137MOL   O22333135   1.945   1.958   5.329  0.0613  0.2657 -0.0202
  137MOL   H22433136   1.683   1.987   5.340 -2.4619  0.1140  3.0319
  137MOL   H22533137   1.573   1.862   5.384  0.1999 -0.0267 -0.4626
  137MOL   H22633138   1.650   1.633   5.431 -0.4924  2.5614  1.7169
  137MOL   H22733139   1.814   1.587   5.470 -2.5527  2.5479  4.7004
  137MOL   H22833140   1.765   1.596   5.305  0.7342 -1.4003  1.0144
  137MOL   H22933141   2.030   1.964   5.289 -0.6776  1.8328 -1.4078
  137MOL   C23033142   1.766   1.839   5.551  0.0082 -0.6125 -0.5603
  137MOL   C23133143   1.861   1.786   5.663 -0.6883  0.2933 -0.1167
  137MOL   C23233144   1.997   1.864   5.675  0.8463 -0.0029 -0.6982
  137MOL   C23333145   1.790   1.790   5.801  1.0310  0.3521 -0.6926
  137MOL   O23433146   1.811   1.875   5.891 -0.6871 -0.0611 -0.3442
  137MOL   O23533147   1.701   1.692   5.821  0.1788  0.5836 -0.0660
  137MOL   H23633148   1.786   1.946   5.552 -0.2646 -0.5292  2.0712
  137MOL   H23733149   1.665   1.822   5.587 -0.2942 -0.3636 -1.2857
  137MOL   H23833150   2.051   1.868   5.580 -0.4005 -2.7647 -1.5859
  137MOL   H23933151   2.066   1.809   5.739  0.3750  0.7694  0.4812
  137MOL   H24033152   1.973   1.963   5.713 -0.7854 -0.0620 -1.5162
  137MOL   H24133153   1.692   1.691   5.915 -0.5871  2.4575 -0.1047
  137MOL   H24233154   1.872   1.678   5.650 -0.3720  0.0822  1.8387
  138MOL     C133155   3.094   1.911   3.217 -0.1706  0.3104  0.9699
  138MOL     C233156   3.071   1.772   3.164 -0.5321  0.1299 -0.5787
  138MOL     C333157   3.198   1.739   3.082  0.2056 -0.3007  0.0815
  138MOL     C433158   3.057   1.677   3.287  0.1932 -0.4022 -0.4117
  138MOL     O533159   3.127   1.583   3.311  0.6994  0.5236  0.4159
  138MOL     O633160   2.955   1.717   3.372  0.2262  0.1132  0.0725
  138MOL     H733161   3.122   1.979   3.136 -0.8667  0.0709  0.5174
  138MOL     H833162   3.167   1.918   3.296  0.3517 -1.3425  0.6565
  138MOL     H933163   3.213   1.802   2.994 -0.6506 -0.1058  0.0632
  138MOL    H1033164   3.202   1.637   3.044 -2.1800 -0.1892 -0.5739
  138MOL    H1133165   3.285   1.748   3.147 -0.2048  0.2661  0.5630
  138MOL    H1233166   2.944   1.651   3.438 -0.7791  0.2590  0.0671
  138MOL    H1333167   2.997   1.944   3.255 -1.1767  0.1143 -1.2837
  138MOL    C1433168   2.934   1.770   3.089 -0.4538 -0.1672 -0.2265
  138MOL    C1533169   2.887   1.668   2.986 -0.0787 -0.4821  0.0408
  138MOL    C1633170   2.917   1.531   3.039  0.5055 -0.1530  0.2223
  138MOL    C1733171   2.733   1.684   2.971 -0.1272 -0.0018  0.5301
  138MOL    O1833172   2.652   1.599   3.014  0.1774  0.2529  0.0834
  138MOL    O1933173   2.695   1.795   2.904  0.0602  0.0244  0.3282
  138MOL    H2033174   2.855   1.774   3.164 -0.0142 -0.3552  0.2496
  138MOL    H2133175   2.940   1.866   3.038 -2.9185 -0.4458 -1.0857
  138MOL    H2233176   2.882   1.524   3.142  1.0651  0.1046  0.4296
  138MOL    H2333177   3.021   1.505   3.059  0.9326  2.1466  1.1485
  138MOL    H2433178   2.872   1.454   2.976  1.6569 -0.5325 -0.1531
  138MOL    H2533179   2.601   1.802   2.894 -0.0581 -2.5238 -0.6635
  138MOL    C2633180   2.957   1.701   2.848  0.2719  0.1126  0.4564
  138MOL    C2733181   2.945   1.608   2.722 -0.0459 -0.0958  0.4465
  138MOL    C2833182   2.797   1.563   2.686  0.2207 -0.3421 -0.2037
  138MOL    C2933183   3.005   1.703   2.615 -0.7468 -0.1819 -0.8172
  138MOL    O3033184   3.103   1.772   2.634  0.6361  0.0282 -0.7230
  138MOL    O3133185   2.947   1.684   2.490 -0.0463  0.4727 -0.1752
  138MOL    H3233186   2.927   1.801   2.814 -3.2255 -1.1664 -0.4903
  138MOL    H3333187   3.064   1.709   2.863  0.5069 -0.9362 -0.5467
  138MOL    H3433188   2.788   1.507   2.593  0.1617 -0.1141 -0.3356
  138MOL    H3533189   2.735   1.649   2.662 -0.6957 -0.7272  0.7317
  138MOL    H3633190   2.753   1.497   2.761 -0.6062  0.5570  0.1074
  138MOL    H3733191   2.995   1.738   2.430 -1.5394 -3.3515 -5.0968
  138MOL    C3833192   3.036   1.475   2.747  0.2095  0.0771  0.3296
  138MOL    C3933193   3.104   1.385   2.639  0.6851 -0.4090  0.1552
  138MOL    C4033194   3.006   1.353   2.528  0.6771  0.1306 -0.3175
  138MOL    C4133195   3.232   1.459   2.586  0.1425  0.2743 -0.7205
  138MOL    O4233196   3.299   1.547   2.635 -0.0205  0.2721 -0.1311
  138MOL    O4333197   3.257   1.406   2.460 -0.3950  0.0950 -0.1405
  138MOL    H4433198   3.111   1.505   2.820 -0.4042  0.6219  0.7477
  138MOL    H4533199   2.966   1.410   2.800 -1.5637  2.4185  0.9344
  138MOL    H4633200   2.981   1.447   2.478  1.4231  0.8010  0.5515
  138MOL    H4733201   2.915   1.310   2.570 -0.1577  1.7519 -0.4015
  138MOL    H4833202   3.036   1.273   2.460  0.1193  1.3305 -2.0208
  138MOL    H4933203   3.337   1.444   2.427 -0.5093  1.8677  1.5294
  138MOL    C5033204   3.135   1.242   2.699 -0.2626 -0.0212  0.0251
  138MOL    C5133205   3.236   1.197   2.813 -0.3773 -0.4299 -0.2523
  138MOL    C5233206   3.373   1.268   2.782 -0.0326  0.5784 -0.1247
  138MOL    C5333207   3.182   1.236   2.952  0.5511 -0.0941 -0.1377
  138MOL    O5433208   3.244   1.302   3.033 -0.2030  0.7145 -0.2768
  138MOL    O5533209   3.057   1.185   2.968 -0.4354 -0.1451 -0.3001
  138MOL    H5633210   3.037   1.209   2.733 -0.9867  0.4624 -1.5109
  138MOL    H5733211   3.157   1.175   2.615  1.8467 -0.5401  0.9654
  138MOL    H5833212   3.409   1.234   2.685 -0.5479  1.9449 -0.8047
  138MOL    H5933213   3.458   1.256   2.849  2.1056  1.7550 -2.5358
  138MOL    H6033214   3.376   1.376   2.788  0.8423  0.5986 -0.7745
  138MOL    H6133215   3.029   1.199   3.057 -0.2946  1.8894 -0.5346
  138MOL    C6233216   3.245   1.037   2.802  0.5180  0.3127  0.2082
  138MOL    C6333217   3.327   0.938   2.896 -0.1951  0.1531  1.0422
  138MOL    C6433218   3.444   1.014   2.961  0.4926  0.3524  0.1978
  138MOL    C6533219   3.230   0.904   3.008 -0.4667  0.4190  0.0974
  138MOL    O6633220   3.229   0.953   3.123  0.0620  0.1251  0.0653
  138MOL    O6733221   3.145   0.811   2.961 -0.2112 -0.5407 -0.3500
  138MOL    H6833222   3.145   0.995   2.798  0.3186  0.7704  0.3837
  138MOL    H6933223   3.285   1.021   2.702  1.5571  1.7748  0.3651
  138MOL    H7033224   3.524   1.025   2.887 -0.6762 -0.6412 -1.2439
  138MOL    H7133225   3.481   0.974   3.055 -0.4705 -1.8497 -0.3360
  138MOL    H7233226   3.417   1.115   2.991 -0.6376 -0.7046  2.9127
  138MOL    H7333227   3.099   0.779   3.036  0.3789  0.0872  0.2846
  138MOL    C7433228   3.380   0.822   2.796  0.4852 -0.1845 -0.0371
  138MOL    C7533229   3.456   0.689   2.834 -0.9617 -0.0934 -0.4176
  138MOL    C7633230   3.542   0.718   2.960 -0.0799  0.6118  0.7248
  138MOL    C7733231   3.365   0.572   2.881 -0.1259 -0.5900  0.1763
  138MOL    O7833232   3.249   0.554   2.841  0.2432 -0.3882  0.2064
  138MOL    O7933233   3.432   0.471   2.945 -0.1235 -0.2420  0.3154
  138MOL    H8033234   3.302   0.794   2.725 -2.2516 -0.2760  2.9109
  138MOL    H8133235   3.454   0.880   2.741  1.6603 -1.0359  0.6179
  138MOL    H8233236   3.488   0.723   3.054  2.6251  0.9973  2.3202
  138MOL    H8333237   3.600   0.809   2.941 -1.2335  1.2885  0.4407
  138MOL    H8433238   3.615   0.638   2.976 -1.0756 -0.3874  0.3037
  138MOL    H8533239   3.391   0.386   2.944 -1.8450  0.5640 -0.2148
  138MOL    C8633240   3.570   0.651   2.726 -0.4500  0.2296  0.2764
  138MOL    C8733241   3.545   0.604   2.577 -0.0246 -0.2214  0.8976
  138MOL    C8833242   3.459   0.702   2.498 -0.2768 -0.1063  0.4471
  138MOL    C8933243   3.691   0.615   2.504  0.2529  0.3500 -0.8930
  138MOL    O9033244   3.708   0.641   2.385  0.2490 -0.1986  0.4989
  138MOL    O9133245   3.798   0.605   2.590  0.4154  0.4261 -0.0526
  138MOL    H9233246   3.637   0.738   2.721  0.6406 -0.6870 -1.9661
  138MOL    H9333247   3.629   0.571   2.771  0.7071  1.2022  0.5229
  138MOL    H9433248   3.459   0.671   2.394  1.4637  0.5913  0.2215
  138MOL    H9533249   3.501   0.802   2.506 -2.0491  0.5695  1.7935
  138MOL    H9633250   3.352   0.707   2.521 -0.3952  3.2747 -0.6873
  138MOL    H9733251   3.880   0.630   2.549  0.8678  1.0929  1.2121
  138MOL    C9833252   3.478   0.462   2.578  0.3183 -0.1280  0.0097
  138MOL    C9933253   3.502   0.353   2.466  0.2752  0.4504 -0.1017
  138MOL   C10033254   3.496   0.410   2.320 -0.1559 -0.1777  0.4226
  138MOL   C10133255   3.639   0.281   2.480 -0.5286 -0.1959 -0.7490
  138MOL   O10233256   3.719   0.309   2.571 -0.5771  0.4860 -0.0568
  138MOL   O10333257   3.674   0.198   2.382  0.3040 -0.3330 -0.4047
  138MOL   H10433258   3.519   0.417   2.668 -1.1387 -0.2362  0.6422
  138MOL   H10533259   3.369   0.468   2.585  0.3167  0.3343 -0.3303
  138MOL   H10633260   3.488   0.333   2.243 -1.5690 -0.3998  0.7837
  138MOL   H10733261   3.588   0.458   2.286 -0.1551 -0.3901  0.1201
  138MOL   H10833262   3.413   0.479   2.303 -0.0666  0.4421  2.4377
  138MOL   H10933263   3.765   0.170   2.387  0.3581  0.1353  2.2251
  138MOL   C11033264   3.386   0.250   2.468 -0.4586 -0.0027 -0.4857
  138MOL   C11133265   3.335   0.176   2.602 -0.5148 -0.1311 -0.0987
  138MOL   C11233266   3.287   0.035   2.546 -0.5088  0.4385  0.3465
  138MOL   C11333267   3.445   0.149   2.709 -0.6527 -0.5765  0.0701
  138MOL   O11433268   3.469   0.219   2.808  0.8022  0.1059 -0.8551
  138MOL   O11533269   3.528   0.043   2.667 -0.5544 -0.3187 -0.2644
  138MOL   H11633270   3.296   0.292   2.424  0.0383  1.6422  0.0337
  138MOL   H11733271   3.417   0.167   2.405 -2.1013  0.3963 -1.8691
  138MOL   H11833272   3.216   0.048   2.464 -0.7455 -0.2919  0.4318
  138MOL   H11933273   3.228   7.747   2.620 -1.9544 -0.0058 -1.1146
  138MOL   H12033274   3.368   7.734   2.521 -1.4132 -0.2754 -0.6788
  138MOL   H12133275   3.593   0.048   2.736 -0.6603  1.1744 -0.2594
  138MOL   C12233276   3.221   0.263   2.660  0.4801 -0.1003  1.0052
  138MOL   C12333277   3.096   0.204   2.741 -0.3259 -0.1862 -0.0846
  138MOL   C12433278   3.023   0.323   2.793  0.5202  0.4912  0.0155
  138MOL   C12533279   3.006   0.122   2.653 -0.4427 -1.1073 -0.3250
  138MOL   O12633280   2.992   0.004   2.661  0.5816 -0.1225 -0.8174
  138MOL   O12733281   2.959   0.201   2.554  0.2658 -0.6174  0.0131
  138MOL   H12833282   3.267   0.332   2.730  0.4998 -0.5223  1.4103
  138MOL   H12933283   3.176   0.331   2.588  0.2589 -0.4438  0.8167
  138MOL   H13033284   3.005   0.398   2.715 -2.8059 -1.8863 -1.6388
  138MOL   H13133285   3.096   0.371   2.858  3.8635 -0.0282 -3.1783
  138MOL   H13233286   2.932   0.299   2.848  0.4860  3.6772  1.4935
  138MOL   H13333287   2.958   0.294   2.571 -3.5765 -0.3691 -0.9632
  138MOL   C13433288   3.159   0.124   2.871  0.5292 -0.5303  0.4148
  138MOL   C13533289   3.086   0.031   2.986 -0.7635 -0.6748  0.1804
  138MOL   C13633290   2.938   0.081   3.008 -1.2778 -0.0688 -0.1857
  138MOL   C13733291   3.075   7.649   2.942 -0.3827  0.2033 -0.7049
  138MOL   O13833292   3.125   7.614   2.838  0.2993 -0.2230 -0.0326
  138MOL   O13933293   3.004   7.570   3.020 -0.5449 -0.0961 -0.0355
  138MOL   H14033294   3.240   0.058   2.841  1.1699  1.1429 -1.5690
  138MOL   H14133295   3.203   0.209   2.924 -0.2747  0.1586 -0.0064
  138MOL   H14233296   2.876   0.085   2.917 -0.6204 -3.0336 -0.8091
  138MOL   H14333297   2.937   0.178   3.059  1.3796 -0.4367  0.6320
  138MOL   H14433298   2.882   0.014   3.073  0.0275  0.2017  1.2286
  138MOL   H14533299   3.011   7.479   2.996  1.2736  0.1794 -0.6997
  138MOL   C14633300   3.160   0.057   3.128  0.2289  0.9765  0.0462
  138MOL   C14733301   3.311   0.022   3.150 -0.6396 -0.4391  0.7607
  138MOL   C14833302   3.346   7.654   3.077 -0.4004  0.0429  0.2873
  138MOL   C14933303   3.404   0.134   3.099 -0.7794 -0.0781  0.3407
  138MOL   O15033304   3.366   0.253   3.086 -0.2117  0.2148  0.0294
  138MOL   O15133305   3.526   0.086   3.062  0.4632 -0.2167  0.1255
  138MOL   H15233306   3.135   0.160   3.153 -0.1219  1.1827 -1.1160
  138MOL   H15333307   3.100   7.765   3.196 -0.6607  1.6990 -0.0997
  138MOL   H15433308   3.452   7.629   3.087  0.0481  2.0533  0.7004
  138MOL   H15533309   3.330   7.659   2.969 -0.7120 -0.2728  0.3170
  138MOL   H15633310   3.285   7.568   3.103 -1.7748  0.9350  0.0262
  138MOL   H15733311   3.581   0.156   3.031 -0.3616  0.6247  0.5708
  138MOL   C15833312   3.346   0.006   3.305  0.0943 -0.3363  0.8767
  138MOL   C15933313   3.314   0.110   3.419  0.0889 -0.4014 -0.0051
  138MOL   C16033314   3.267   0.017   3.539 -0.6194  0.4424 -1.0518
  138MOL   C16133315   3.446   0.174   3.464  0.7132  0.8795  0.7002
  138MOL   O16233316   3.485   0.177   3.583 -0.5830  0.2828  0.1809
  138MOL   O16333317   3.515   0.242   3.365  0.5703  0.2459  0.2314
  138MOL   H16433318   3.283   7.686   3.319  1.6337 -2.1757 -2.9008
  138MOL   H16533319   3.447   7.738   3.322  1.1603  2.5808  0.8506
  138MOL   H16633320   3.334   7.701   3.562 -0.6943  0.9264  1.0228
  138MOL   H16733321   3.168   7.739   3.534 -1.2890  1.3985  2.2032
  138MOL   H16833322   3.260   0.067   3.635  0.5835  1.5969 -1.5465
  138MOL   H16933323   3.581   0.292   3.411  1.3562 -0.2510 -0.3278
  138MOL   C17033324   3.206   0.213   3.395  0.4331  0.4004 -0.2892
  138MOL   C17133325   3.145   0.335   3.485 -0.0240  0.8097 -0.0960
  138MOL   C17233326   3.123   0.281   3.624  0.5289  0.6410 -0.4559
  138MOL   C17333327   3.239   0.452   3.506 -0.6106 -0.1282  0.3894
  138MOL   O17433328   3.334   0.468   3.435  0.3413  0.2233 -0.1351
  138MOL   O17533329   3.202   0.534   3.612  0.2872  0.5926 -0.0876
  138MOL   H17633330   3.239   0.266   3.306 -1.1412 -1.4708 -2.0336
  138MOL   H17733331   3.123   0.147   3.368  1.0115  0.0869 -1.3376
  138MOL   H17833332   3.212   0.274   3.687  0.3512 -1.6395 -0.4221
  138MOL   H17933333   3.073   0.185   3.635 -0.6033  1.4009  1.0988
  138MOL   H18033334   3.058   0.344   3.684  0.8056  0.0943  0.4278
  138MOL   H18133335   3.262   0.604   3.632  2.0456  0.1422 -3.4213
  138MOL   C18233336   3.012   0.389   3.416 -0.0102 -0.3928 -0.4301
  138MOL   C18333337   2.977   0.509   3.321  0.6341 -0.0628  0.1909
  138MOL   C18433338   2.931   0.632   3.409 -0.5812  0.6632  0.0278
  138MOL   C18533339   3.092   0.547   3.225  0.3441 -0.1745 -1.2231
  138MOL   O18633340   3.141   0.662   3.226  0.6028 -0.0911  0.2226
  138MOL   O18733341   3.152   0.445   3.163 -0.0513  0.2855 -0.0264
  138MOL   H18833342   2.987   0.305   3.351  0.4599 -1.5931  0.9217
  138MOL   H18933343   2.935   0.374   3.492  1.6997 -2.5240  0.9586
  138MOL   H19033344   2.861   0.600   3.486 -0.7085 -0.5267 -0.5615
  138MOL   H19133345   2.924   0.722   3.349  2.1803  0.0458 -1.2957
  138MOL   H19233346   3.018   0.655   3.470  1.4575 -0.8818 -2.1861
  138MOL   H19333347   3.237   0.473   3.133 -0.8278 -0.3574 -2.9624
  138MOL   C19433348   2.856   0.461   3.227  0.8451 -0.2757 -0.3483
  138MOL   C19533349   2.749   0.549   3.151 -0.3204  0.3173  0.0491
  138MOL   C19633350   2.829   0.666   3.079 -0.7685  0.2623 -0.2039
  138MOL   C19733351   2.687   0.476   3.031 -0.0395  0.2568 -0.3987
  138MOL   O19833352   2.595   0.524   2.962 -0.2118 -0.1584  0.4683
  138MOL   O19933353   2.726   0.348   3.018 -0.4690 -0.4169  0.8932
  138MOL   H20033354   2.901   0.399   3.149  1.8457  0.8490 -0.6757
  138MOL   H20133355   2.802   0.380   3.277  0.4085  0.0008 -0.3696
  138MOL   H20233356   2.905   0.627   3.012 -0.3083  0.9646 -0.1001
  138MOL   H20333357   2.869   0.742   3.146  1.8104 -1.2872  0.0566
  138MOL   H20433358   2.772   0.739   3.022 -1.2548 -0.9214 -1.2520
  138MOL   H20533359   2.680   0.306   2.947  1.5524  1.1199 -1.4320
  138MOL   C20633360   2.644   0.600   3.256 -0.1169  0.3284  0.4971
  138MOL   C20733361   2.521   0.521   3.298 -0.3249 -0.2069 -0.1323
  138MOL   C20833362   2.550   0.381   3.344  0.4135  0.8670  0.2042
  138MOL   C20933363   2.473   0.592   3.428 -0.2473  0.1935  0.5202
  138MOL   O21033364   2.417   0.535   3.519 -0.5035 -0.3197 -0.4810
  138MOL   O21133365   2.481   0.726   3.417  0.3550  0.2905  0.2721
  138MOL   H21233366   2.699   0.639   3.342 -0.4603  1.2750  0.2983
  138MOL   H21333367   2.597   0.687   3.209  0.1063 -0.5836 -1.4290
  138MOL   H21433368   2.471   0.325   3.393  0.6598  2.3856  2.4241
  138MOL   H21533369   2.631   0.372   3.417  1.2522 -0.9220 -0.9172
  138MOL   H21633370   2.580   0.319   3.259 -0.1938 -0.2882  0.8399
  138MOL   H21733371   2.447   0.776   3.490  0.6128  1.5780 -0.4741
  138MOL   C21833372   2.402   0.515   3.191 -0.1968 -0.3268 -0.0396
  138MOL   C21933373   2.246   0.513   3.214 -0.4888  0.5268  0.9049
  138MOL   C22033374   2.210   0.390   3.298  0.1322 -0.2677 -0.0883
  138MOL   C22133375   2.189   0.649   3.267 -0.1896 -0.5296  0.6510
  138MOL   O22233376   2.238   0.760   3.239  0.3250 -0.4645  0.6698
  138MOL   O22333377   2.089   0.637   3.361 -0.5888  0.5695  0.0841
  138MOL   H22433378   2.425   0.601   3.129 -0.7832  0.2523  0.5321
  138MOL   H22533379   2.417   0.434   3.120 -0.4399  0.9989 -1.6362
  138MOL   H22633380   2.264   0.303   3.261  1.2296 -0.6883  2.4252
  138MOL   H22733381   2.103   0.370   3.300 -0.1638  1.3964  3.2944
  138MOL   H22833382   2.243   0.402   3.401 -1.0028 -0.2586  0.2757
  138MOL   H22933383   2.076   0.718   3.409 -0.5668  1.1819 -0.9256
  138MOL   C23033384   2.173   0.490   3.078 -0.1339  0.1272  0.5956
  138MOL   C23133385   2.215   0.564   2.948 -0.4608  0.7046  0.2180
  138MOL   C23233386   2.156   0.493   2.819 -0.0444  1.0051 -0.1027
  138MOL   C23333387   2.157   0.711   2.942 -0.0389 -0.0533  0.9287
  138MOL   O23433388   2.043   0.736   2.962  0.7574 -0.2123 -0.0492
  138MOL   O23533389   2.255   0.804   2.936 -0.2847  0.4884 -0.2390
  138MOL   H23633390   2.173   0.384   3.052 -2.1489  0.5900 -1.4077
  138MOL   H23733391   2.067   0.502   3.095 -0.9722 -2.3625 -2.3738
  138MOL   H23833392   2.221   0.409   2.795 -2.3007 -0.1930 -2.3370
  138MOL   H23933393   2.140   0.562   2.736 -0.0237  0.5915 -0.4498
  138MOL   H24033394   2.058   0.453   2.846  0.9111 -0.1657  1.7725
  138MOL   H24133395   2.231   0.895   2.938 -0.5332  0.4923 -2.1669
  138MOL   H24233396   2.323   0.578   2.942 -0.7213  2.6056 -0.5643
  139MOL     C133397   7.593   0.840   4.325  0.3809 -0.5577  0.2054
  139MOL     C233398   7.478   0.786   4.233 -0.0884  0.7836  0.5816
  139MOL     C333399   7.537   0.766   4.091 -0.1436 -0.0376 -0.0769
  139MOL     C433400   7.458   0.640   4.275  0.0507  0.1075 -0.4089
  139MOL     O533401   7.532   0.591   4.364  0.4337  0.1713  0.4094
  139MOL     O633402   7.363   0.578   4.201  0.4412  0.0731 -0.2183
  139MOL     H733403   7.569   0.827   4.431  2.2553  0.6887  0.8061
  139MOL     H833404   7.627   0.941   4.305  0.0197 -0.3593  0.5884
  139MOL     H933405   7.578   0.853   4.039 -1.5500  0.3685 -0.5281
  139MOL    H1033406   7.457   0.738   4.023 -0.7358 -0.5675  0.8379
  139MOL    H1133407   7.601   0.678   4.087  1.6837  1.2924 -1.3978
  139MOL    H1233408   7.355   0.488   4.228 -2.7411  0.3727  0.0268
  139MOL    H1333409   7.685   0.783   4.309  2.9526  3.5792 -0.2754
  139MOL    C1433410   7.339   0.861   4.229  0.0154  0.4740  0.3433
  139MOL    C1533411   7.325   1.020   4.239 -0.0300  0.7079 -0.5564
  139MOL    C1633412   7.346   1.058   4.392 -0.0578  0.2240 -0.0517
  139MOL    C1733413   7.431   1.084   4.148  0.0007 -0.9270 -0.1424
  139MOL    O1833414   7.522   1.148   4.196  0.0890  0.1206  0.2018
  139MOL    O1933415   7.414   1.064   4.018  0.6080 -0.4996 -0.6294
  139MOL    H2033416   7.277   0.824   4.147  0.8223  2.9067 -1.3877
  139MOL    H2133417   7.287   0.825   4.318  0.5187 -1.4202 -0.0929
  139MOL    H2233418   7.402   1.152   4.400  1.5611 -0.5577 -1.7350
  139MOL    H2333419   7.386   0.975   4.449 -1.5629 -0.7253 -0.3420
  139MOL    H2433420   7.250   1.082   4.438 -0.6086  0.7312 -1.4029
  139MOL    H2533421   7.485   1.108   3.974  2.4264 -2.2047  0.4653
  139MOL    C2633422   7.178   1.058   4.202 -0.2274  0.4819 -0.0151
  139MOL    C2733423   7.124   1.206   4.193 -0.3743 -0.3429 -0.4025
  139MOL    C2833424   7.204   1.300   4.277  0.0796 -0.4633 -0.2529
  139MOL    C2933425   7.121   1.268   4.051 -0.4108 -0.3404  0.3442
  139MOL    O3033426   7.172   1.213   3.955 -0.6097 -0.1793 -0.0175
  139MOL    O3133427   7.065   1.391   4.038 -0.1235 -0.4660  0.1729
  139MOL    H3233428   7.149   1.008   4.109 -0.5566  1.2350 -0.3233
  139MOL    H3333429   7.110   1.017   4.276 -1.7671  1.3660 -0.9000
  139MOL    H3433430   7.311   1.286   4.260 -0.0012 -1.3707 -0.0424
  139MOL    H3533431   7.186   1.280   4.383 -0.9847 -1.3231 -0.5817
  139MOL    H3633432   7.191   1.405   4.253 -1.1870 -0.3985  0.6749
  139MOL    H3733433   7.076   1.421   3.949  0.8605 -1.6710 -0.1227
  139MOL    C3833434   6.983   1.222   4.275 -0.5340 -0.0779  0.6991
  139MOL    C3933435   6.845   1.173   4.228  0.4353 -0.0185  0.9670
  139MOL    C4033436   6.859   1.046   4.137  1.1037  0.2647 -0.4233
  139MOL    C4133437   6.763   1.139   4.358 -0.4214  0.2269  0.0728
  139MOL    O4233438   6.771   1.209   4.459 -0.5520  0.0040  0.1851
  139MOL    O4333439   6.686   1.029   4.353  0.6508  0.3394  0.4050
  139MOL    H4433440   6.996   1.173   4.372  0.3795 -1.4330 -0.0783
  139MOL    H4533441   6.968   1.328   4.296  0.1508  0.6689 -2.2870
  139MOL    H4633442   6.909   1.067   4.042  0.7593 -0.6690 -0.8143
  139MOL    H4733443   6.769   0.994   4.106  0.0235  1.5963  0.4241
  139MOL    H4833444   6.917   0.972   4.191 -1.2415 -2.4772 -1.5321
  139MOL    H4933445   6.644   1.017   4.437 -0.5910  2.4220  0.1205
  139MOL    C5033446   6.770   1.300   4.157 -0.2570  0.3461  0.0621
  139MOL    C5133447   6.636   1.288   4.073  0.6821 -0.0463 -0.3042
  139MOL    C5233448   6.666   1.209   3.941 -0.1395  0.2121  0.0059
  139MOL    C5333449   6.512   1.234   4.154  0.8255  0.7541 -0.1543
  139MOL    O5433450   6.485   1.267   4.269 -0.4117  0.7761 -0.4337
  139MOL    O5533451   6.435   1.149   4.086  0.1517 -0.4648  0.2340
  139MOL    H5633452   6.749   1.377   4.231  0.9492 -0.0882  0.8717
  139MOL    H5733453   6.843   1.360   4.103 -0.5375  0.1843 -0.4964
  139MOL    H5833454   6.584   1.206   3.869 -2.1080 -1.9167  2.2372
  139MOL    H5933455   6.674   1.102   3.961  0.0601 -0.2560 -2.3684
  139MOL    H6033456   6.746   1.252   3.881  0.6618  0.8050  1.4801
  139MOL    H6133457   6.364   1.113   4.137  1.3306  0.0353  2.2917
  139MOL    C6233458   6.588   1.436   4.048 -0.0928 -0.0993  0.0267
  139MOL    C6333459   6.631   1.540   3.935 -0.3542  0.1849  0.2261
  139MOL    C6433460   6.786   1.563   3.951  0.1150  0.9836 -0.5663
  139MOL    C6533461   6.597   1.499   3.792  0.8470 -0.1941 -0.1447
  139MOL    O6633462   6.480   1.472   3.758  0.1816 -0.4805 -0.0004
  139MOL    O6733463   6.702   1.503   3.713 -0.0868 -0.4184  0.5588
  139MOL    H6833464   6.480   1.436   4.035 -0.0998  0.2013  0.0837
  139MOL    H6933465   6.593   1.486   4.145 -3.4328  0.5531 -0.0791
  139MOL    H7033466   6.833   1.471   3.916  0.1069  1.1738 -1.0838
  139MOL    H7133467   6.815   1.585   4.054 -2.0047 -0.5845  0.3968
  139MOL    H7233468   6.825   1.645   3.890 -0.2794  1.3871 -0.2832
  139MOL    H7333469   6.787   1.519   3.752 -1.3434  1.7285  2.5609
  139MOL    C7433470   6.556   1.676   3.974 -1.0317  0.1789 -0.3344
  139MOL    C7533471   6.550   1.806   3.871 -0.5686  0.7054  0.3396
  139MOL    C7633472   6.672   1.838   3.783  0.2780  0.1112 -0.5094
  139MOL    C7733473   6.430   1.802   3.776  0.3700  0.4580 -0.3210
  139MOL    O7833474   6.432   1.808   3.652  0.5379  0.2907 -0.0869
  139MOL    O7933475   6.317   1.774   3.849  0.1641 -0.0748 -0.0199
  139MOL    H8033476   6.456   1.659   4.014 -0.7186 -0.8587  0.0325
  139MOL    H8133477   6.609   1.702   4.066  1.1480 -1.1027 -1.1824
  139MOL    H8233478   6.653   1.908   3.702 -1.6192  0.2973  0.0639
  139MOL    H8333479   6.700   1.748   3.727 -0.5092 -0.3790 -0.1300
  139MOL    H8433480   6.761   1.866   3.838  0.4520 -3.8462  1.4367
  139MOL    H8533481   6.241   1.774   3.794  1.1327  1.3019 -1.4056
  139MOL    C8633482   6.526   1.918   3.984 -0.2016  0.3529 -0.1410
  139MOL    C8733483   6.508   2.070   3.949  0.7210  0.7343  0.0965
  139MOL    C8833484   6.614   2.127   3.848  0.9901 -0.1129 -0.5075
  139MOL    C8933485   6.367   2.092   3.887  0.3794 -0.1914  0.0398
  139MOL    O9033486   6.341   2.150   3.778  0.1196 -0.1522 -0.3643
  139MOL    O9133487   6.270   2.054   3.969 -0.8508  0.4560  0.9399
  139MOL    H9233488   6.445   1.883   4.048  1.8421 -1.5390  1.5058
  139MOL    H9333489   6.614   1.905   4.048 -1.9447 -1.1543  2.0489
  139MOL    H9433490   6.718   2.098   3.861  1.2125 -0.2869 -2.5976
  139MOL    H9533491   6.619   2.236   3.850 -0.1860 -0.0682  0.6775
  139MOL    H9633492   6.577   2.105   3.748  2.3654  1.9459 -1.5134
  139MOL    H9733493   6.189   2.087   3.931  0.4536  1.0082 -1.4412
  139MOL    C9833494   6.525   2.149   4.084 -0.0990 -0.6489  0.2006
  139MOL    C9933495   6.505   2.303   4.108  0.1115 -0.2291  0.2986
  139MOL   C10033496   6.411   2.376   4.004 -0.3591  0.3603 -0.1031
  139MOL   C10133497   6.437   2.322   4.250  0.2717 -0.3999 -1.0798
  139MOL   O10233498   6.424   2.229   4.327  0.8373  0.4043 -0.2130
  139MOL   O10333499   6.407   2.451   4.275  0.3453  0.1474 -0.2927
  139MOL   H10433500   6.464   2.093   4.155 -1.8372  1.9123  0.7705
  139MOL   H10533501   6.628   2.129   4.117 -0.3484  1.7482  2.6085
  139MOL   H10633502   6.437   2.360   3.899  1.9429  0.7821  0.3775
  139MOL   H10733503   6.422   2.484   4.017 -0.0939  0.2435  0.6787
  139MOL   H10833504   6.305   2.351   4.009 -0.3059  0.0133 -0.6879
  139MOL   H10933505   6.364   2.475   4.355  1.9279  0.5881  0.4453
  139MOL   C11033506   6.631   2.390   4.108 -0.8251  0.2575  0.5061
  139MOL   C11133507   6.769   2.359   4.182 -0.0646  0.7186  1.0819
  139MOL   C11233508   6.747   2.291   4.318  0.4758 -0.2410 -0.0500
  139MOL   C11333509   6.858   2.256   4.094  0.0558 -0.5334  0.1745
  139MOL   O11433510   6.915   2.159   4.141  0.0799 -0.4204 -0.1437
  139MOL   O11533511   6.871   2.283   3.967  0.1069  0.3722  0.1431
  139MOL   H11633512   6.651   2.412   4.003 -1.0314 -1.6087  0.0525
  139MOL   H11733513   6.607   2.487   4.151 -1.0543 -1.0202  3.4088
  139MOL   H11833514   6.666   2.337   4.375  0.1910 -0.5687 -0.1960
  139MOL   H11933515   6.839   2.295   4.376  0.2042  1.8950  0.2766
  139MOL   H12033516   6.711   2.190   4.299 -1.7894  0.4831  0.1779
  139MOL   H12133517   6.928   2.214   3.936  1.0071  1.6698 -1.0979
  139MOL   C12233518   6.853   2.488   4.201 -0.6753  0.9943 -0.1340
  139MOL   C12333519   7.007   2.512   4.224 -0.0033 -0.1551 -0.5963
  139MOL   C12433520   7.060   2.406   4.318 -0.3511 -0.2167  0.4409
  139MOL   C12533521   7.090   2.499   4.097  0.0915 -0.1982 -0.2392
  139MOL   O12633522   7.047   2.497   3.984 -0.0976 -0.2907 -0.0990
  139MOL   O12733523   7.223   2.524   4.124 -0.1030  0.3778 -0.1234
  139MOL   H12833524   6.835   2.554   4.117  0.1994  0.5883 -0.6433
  139MOL   H12933525   6.807   2.534   4.288  0.9251  1.5112  0.4572
  139MOL   H13033526   7.054   2.304   4.280 -0.9945  0.8905 -2.5579
  139MOL   H13133527   7.012   2.417   4.415 -2.0290 -0.4808 -0.3507
  139MOL   H13233528   7.168   2.408   4.335 -0.2231 -1.7987 -0.0724
  139MOL   H13333529   7.275   2.530   4.046  0.4355  0.3067  0.2291
  139MOL   C13433530   7.021   2.644   4.304 -0.2359 -0.1915  0.4081
  139MOL   C13533531   6.974   2.785   4.267  0.1969 -0.1364  0.2058
  139MOL   C13633532   7.055   2.884   4.358 -0.1206  0.6275 -0.4634
  139MOL   C13733533   7.020   2.830   4.126  0.0017 -0.8685  0.0494
  139MOL   O13833534   6.950   2.851   4.027 -0.3738  0.1096  0.0288
  139MOL   O13933535   7.158   2.828   4.122  0.2036  0.4695  0.3038
  139MOL   H14033536   6.975   2.627   4.402 -2.8586  0.3403 -0.6911
  139MOL   H14133537   7.127   2.660   4.326  0.2449 -0.8956 -1.3729
  139MOL   H14233538   7.034   2.988   4.332 -0.8532  0.6956  0.3672
  139MOL   H14333539   7.163   2.879   4.366  0.1003  3.2869 -1.3683
  139MOL   H14433540   7.041   2.874   4.466  1.2919  1.5700 -0.1879
  139MOL   H14533541   7.184   2.817   4.212 -1.8180  0.8504  0.9733
  139MOL   C14633542   6.816   2.800   4.268  0.1960 -0.6397  0.2325
  139MOL   C14733543   6.735   2.929   4.295  0.4924 -0.0358  0.1876
  139MOL   C14833544   6.745   2.951   4.447  0.1126 -0.0399 -0.2613
  139MOL   C14933545   6.796   3.052   4.222 -0.0716  0.8335  0.8792
  139MOL   O15033546   6.844   3.153   4.274 -0.1699 -0.2662  0.0527
  139MOL   O15133547   6.763   3.039   4.091  0.1837 -0.0464 -0.4472
  139MOL   H15233548   6.776   2.760   4.175 -1.1814  0.6059  0.2730
  139MOL   H15333549   6.771   2.726   4.333 -0.2506  0.1560  0.8298
  139MOL   H15433550   6.717   2.874   4.520 -2.4926  0.8251 -0.3204
  139MOL   H15533551   6.688   3.041   4.470  0.3114  0.2210 -0.7893
  139MOL   H15633552   6.846   2.985   4.469 -0.1925  0.5737  0.1912
  139MOL   H15733553   6.735   2.952   4.070 -0.1762 -0.3891  1.3129
  139MOL   C15833554   6.589   2.894   4.251 -0.3163  0.2282 -0.4564
  139MOL   C15933555   6.457   2.969   4.292 -0.0775  0.2999 -0.5760
  139MOL   C16033556   6.415   2.904   4.429 -0.1445 -0.7006  0.2665
  139MOL   C16133557   6.485   3.119   4.304  1.2008  0.7374 -0.1339
  139MOL   O16233558   6.496   3.169   4.415 -0.4365  0.4404  0.5296
  139MOL   O16333559   6.516   3.178   4.191  0.6910 -0.1686 -0.3816
  139MOL   H16433560   6.590   2.883   4.143 -1.1785  3.2095 -0.8128
  139MOL   H16533561   6.576   2.789   4.277 -0.0347  0.2865 -0.0725
  139MOL   H16633562   6.403   2.796   4.418  0.1978 -0.5681 -1.5152
  139MOL   H16733563   6.328   2.948   4.479 -0.0943  0.7609 -0.8886
  139MOL   H16833564   6.493   2.920   4.503 -0.8013 -1.7066  1.1891
  139MOL   H16933565   6.541   3.268   4.205 -2.3226  0.8823 -1.3329
  139MOL   C17033566   6.358   2.931   4.180 -1.5828  0.0538 -0.6043
  139MOL   C17133567   6.203   2.963   4.169 -0.4605 -0.4881  0.0212
  139MOL   C17233568   6.127   2.877   4.266 -0.7035  0.5677 -0.0539
  139MOL   C17333569   6.172   3.111   4.195 -1.1728 -0.4322 -0.4590
  139MOL   O17433570   6.107   3.149   4.287 -0.1046 -0.0990  0.4936
  139MOL   O17533571   6.226   3.197   4.107 -0.2210 -0.5977  0.5684
  139MOL   H17633572   6.401   2.973   4.089 -0.7354  2.6847  0.9706
  139MOL   H17733573   6.354   2.822   4.184 -1.5945  0.0589 -0.4815
  139MOL   H17833574   6.145   2.916   4.366 -0.5870  1.5676 -0.4690
  139MOL   H17933575   6.164   2.774   4.265 -1.0600  0.4106  1.5229
  139MOL   H18033576   6.020   2.895   4.254 -1.0607 -1.1733  0.2869
  139MOL   H18133577   6.211   3.285   4.137 -0.7529  0.0689 -1.6206
  139MOL   C18233578   6.153   2.929   4.024  0.0146  0.0411  0.2064
  139MOL   C18333579   6.170   2.780   3.957 -0.1913  0.2098  0.2637
  139MOL   C18433580   6.328   2.749   3.938 -0.1798  0.6295 -0.3942
  139MOL   C18533581   6.098   2.669   4.032  0.4919  0.1057  0.3115
  139MOL   O18633582   5.983   2.682   4.068 -0.1434 -0.3334  0.6284
  139MOL   O18733583   6.183   2.573   4.075  0.2887 -0.6236  0.1071
  139MOL   H18833584   6.048   2.959   4.024 -0.1650 -0.4101 -2.9112
  139MOL   H18933585   6.183   3.003   3.950 -0.8817  1.7041  1.4694
  139MOL   H19033586   6.383   2.697   4.017 -0.8029 -1.2561 -1.1917
  139MOL   H19133587   6.382   2.842   3.921  1.3406 -0.2201 -0.2936
  139MOL   H19233588   6.360   2.680   3.860 -2.5732  1.1543 -1.8586
  139MOL   H19333589   6.143   2.501   4.121  2.2922 -0.4579  2.2558
  139MOL   C19433590   6.108   2.795   3.808 -0.3902 -0.4829  0.6041
  139MOL   C19533591   6.088   2.676   3.695 -0.4811  0.0888 -0.7446
  139MOL   C19633592   6.207   2.581   3.685 -0.4004  0.1120  0.0049
  139MOL   C19733593   5.960   2.588   3.728  0.3352  0.2897 -0.2482
  139MOL   O19833594   5.972   2.468   3.746  0.0363 -0.2017 -0.1708
  139MOL   O19933595   5.843   2.656   3.743 -0.0034 -0.0978 -0.3373
  139MOL   H20033596   6.007   2.831   3.826 -0.3890 -0.7665  1.1764
  139MOL   H20133597   6.149   2.886   3.762  0.0451 -1.3020 -0.6667
  139MOL   H20233598   6.302   2.631   3.671 -1.5773  2.9993  1.9048
  139MOL   H20333599   6.193   2.499   3.615 -1.4448  1.2312 -1.1239
  139MOL   H20433600   6.222   2.540   3.785 -0.7963 -0.0691 -0.0098
  139MOL   H20533601   5.776   2.594   3.769  0.0292 -0.8177 -1.8870
  139MOL   C20633602   6.075   2.758   3.556  0.2560 -0.2385 -0.5476
  139MOL   C20733603   6.027   2.703   3.418  0.1074  0.3859 -0.9656
  139MOL   C20833604   6.087   2.556   3.385  0.0936 -0.7904 -0.7842
  139MOL   C20933605   5.875   2.692   3.428 -0.1977  0.7682 -0.3460
  139MOL   O21033606   5.812   2.594   3.381 -0.3483  0.1605 -0.2323
  139MOL   O21133607   5.813   2.800   3.474  0.1183  0.1428  0.1555
  139MOL   H21233608   6.016   2.846   3.583 -0.6725 -0.6949 -1.0392
  139MOL   H21333609   6.174   2.800   3.538 -1.1656  2.4666 -2.5693
  139MOL   H21433610   6.063   2.532   3.282 -3.4591 -1.3045  0.1033
  139MOL   H21533611   6.051   2.473   3.446 -1.8272  0.7703  0.2688
  139MOL   H21633612   6.195   2.554   3.400 -0.1481 -2.3016  0.9539
  139MOL   H21733613   5.721   2.785   3.462  0.8049 -0.9272 -4.6233
  139MOL   C21833614   6.047   2.800   3.296  0.0239  0.3732 -0.1281
  139MOL   C21933615   6.131   2.932   3.299 -0.2452  0.3450  0.0009
  139MOL   C22033616   6.112   3.029   3.422  0.3675 -0.3317 -0.4894
  139MOL   C22133617   6.288   2.912   3.289  0.1480 -0.0835 -0.0978
  139MOL   O22233618   6.349   2.807   3.284  0.1686  0.4784 -0.2058
  139MOL   O22333619   6.346   3.032   3.285  0.2518 -0.6893 -0.2722
  139MOL   H22433620   6.086   2.736   3.217  2.6340  0.2166  1.2359
  139MOL   H22533621   5.953   2.832   3.250 -1.3637  0.2003  2.4972
  139MOL   H22633622   6.180   3.011   3.505  0.9102 -1.4589 -1.1648
  139MOL   H22733623   6.006   3.018   3.446  0.5504 -0.3575  0.3262
  139MOL   H22833624   6.123   3.133   3.392 -0.9496 -0.4631 -1.4731
  139MOL   H22933625   6.439   3.017   3.280  0.1612 -1.4734  0.3038
  139MOL   C23033626   6.089   3.020   3.170 -0.3879 -0.0431  0.0606
  139MOL   C23133627   6.102   2.970   3.022 -1.2371 -0.5841 -0.1684
  139MOL   C23233628   5.976   2.902   2.964  0.1660  0.0240 -0.7123
  139MOL   C23333629   6.160   3.076   2.928 -0.1902  0.0331 -0.3498
  139MOL   O23433630   6.095   3.124   2.838  0.2378  0.5827  0.3365
  139MOL   O23533631   6.293   3.106   2.958  0.0684 -0.7834  0.5744
  139MOL   H23633632   5.988   3.060   3.177 -0.5592 -0.4220 -0.3015
  139MOL   H23733633   6.147   3.113   3.172 -0.2884 -0.0925 -0.6465
  139MOL   H23833634   5.988   2.879   2.858  0.3143 -0.1522 -0.6583
  139MOL   H23933635   5.883   2.955   2.988  1.3568  1.3074  1.2002
  139MOL   H24033636   5.963   2.808   3.018 -0.1757  1.4706  1.8011
  139MOL   H24133637   6.332   3.161   2.892  1.5155 -2.3776  0.0747
  139MOL   H24233638   6.179   2.896   3.044  0.6265  1.4663  0.3696
  140MOL     C133639   6.385   5.187   3.712 -0.0841 -0.1369  0.3661
  140MOL     C233640   6.274   5.114   3.794 -0.0769 -0.4556 -0.2981
  140MOL     C333641   6.207   5.009   3.697 -0.5903  0.3582 -0.1344
  140MOL     C433642   6.350   5.025   3.896 -0.0770  0.5439  0.0411
  140MOL     O533643   6.306   5.014   4.010 -0.4548 -0.0835 -0.1998
  140MOL     O633644   6.454   4.952   3.852 -0.3200 -0.3492 -0.1848
  140MOL     H733645   6.339   5.267   3.656  0.2970 -1.2128 -1.5138
  140MOL     H833646   6.431   5.116   3.644  2.2805 -0.0450  1.8155
  140MOL     H933647   6.140   5.051   3.622 -1.1664 -0.2855  0.0148
  140MOL    H1033648   6.154   4.929   3.750  2.2181 -1.5975 -0.1562
  140MOL    H1133649   6.289   4.956   3.649  0.2597  1.6864 -0.1790
  140MOL    H1233650   6.499   4.900   3.918 -1.0811  0.0221  0.6315
  140MOL    H1333651   6.461   5.235   3.774  1.4703 -2.4415  0.3197
  140MOL    C1433652   6.163   5.214   3.840 -0.2079  0.3434  0.8495
  140MOL    C1533653   6.195   5.343   3.927 -0.4473  0.9860  0.4287
  140MOL    C1633654   6.322   5.330   4.021  0.0191  0.4023  0.4968
  140MOL    C1733655   6.231   5.455   3.817  0.8625  0.0761  0.4997
  140MOL    O1833656   6.153   5.493   3.730  0.6961 -0.0770  0.2596
  140MOL    O1933657   6.352   5.517   3.830  0.2486  0.6805 -0.2538
  140MOL    H2033658   6.089   5.223   3.762  0.1326 -0.5826  0.4146
  140MOL    H2133659   6.099   5.146   3.897 -0.1292  0.9860  1.7194
  140MOL    H2233660   6.311   5.256   4.101  0.5268  2.0616  2.1446
  140MOL    H2333661   6.349   5.422   4.073  0.4932  0.0703  0.8439
  140MOL    H2433662   6.410   5.297   3.965 -1.1288  0.2326 -1.2411
  140MOL    H2533663   6.350   5.569   3.751  4.0630  0.8321 -0.3872
  140MOL    C2633664   6.056   5.354   4.001 -0.1539 -0.6124 -0.5835
  140MOL    C2733665   6.011   5.469   4.091  0.4691 -0.7556  0.6695
  140MOL    C2833666   6.116   5.514   4.200  0.2297  0.0885  0.3949
  140MOL    C2933667   5.980   5.592   4.003  0.1031 -0.4593  0.3266
  140MOL    O3033668   6.024   5.706   4.017 -0.0228 -0.2056 -0.2248
  140MOL    O3133669   5.903   5.558   3.896 -0.0382 -0.2041  0.0373
  140MOL    H3233670   5.981   5.337   3.923 -0.1220 -1.6744 -0.3878
  140MOL    H3333671   6.055   5.263   4.061  0.4818 -2.1416 -2.8464
  140MOL    H3433672   6.083   5.606   4.249  0.8019  0.7793 -0.5077
  140MOL    H3533673   6.211   5.540   4.153 -0.8776  0.4164 -1.7188
  140MOL    H3633674   6.135   5.441   4.279 -0.5013  1.6241  2.0328
  140MOL    H3733675   5.889   5.638   3.848  0.2113  0.1920  0.6151
  140MOL    C3833676   5.874   5.416   4.153  0.2645  0.3512  0.2593
  140MOL    C3933677   5.851   5.370   4.301  0.6705  0.1685  0.2446
  140MOL    C4033678   5.942   5.246   4.330  0.2019  0.3291 -0.3894
  140MOL    C4133679   5.862   5.487   4.399 -0.4400 -0.6177  0.5932
  140MOL    O4233680   5.814   5.597   4.376  0.2546  0.1335  0.3408
  140MOL    O4333681   5.946   5.469   4.504 -0.0215 -0.0398  0.4475
  140MOL    H4433682   5.806   5.500   4.137  0.1244  0.4729  1.4071
  140MOL    H4533683   5.835   5.342   4.084 -0.6041  0.4092  0.6869
  140MOL    H4633684   5.943   5.210   4.433  2.0540  0.6439 -0.2799
  140MOL    H4733685   6.043   5.282   4.315  0.9204 -2.1379 -1.8509
  140MOL    H4833686   5.915   5.163   4.265 -1.5150  0.7948 -0.2945
  140MOL    H4933687   5.947   5.545   4.561 -0.5880  0.7650 -0.5986
  140MOL    C5033688   5.697   5.319   4.308  0.8174 -0.0254 -0.5233
  140MOL    C5133689   5.617   5.282   4.448  0.4143  0.1879 -0.4188
  140MOL    C5233690   5.483   5.209   4.414 -0.2744  0.7916  0.0284
  140MOL    C5333691   5.704   5.187   4.533  0.3423 -0.1879 -0.3857
  140MOL    O5433692   5.782   5.221   4.621  0.3987  0.5694 -0.2767
  140MOL    O5533693   5.690   5.057   4.496  0.0545  0.3151 -0.1813
  140MOL    H5633694   5.646   5.395   4.249 -1.2943 -0.3840  0.7860
  140MOL    H5733695   5.698   5.233   4.241  1.9284  1.1703 -2.0747
  140MOL    H5833696   5.472   5.199   4.306 -0.1633  0.6533  0.0295
  140MOL    H5933697   5.391   5.259   4.443 -1.0449 -1.1491  0.9758
  140MOL    H6033698   5.465   5.110   4.455 -2.9412  1.8142  1.3975
  140MOL    H6133699   5.748   5.008   4.552 -0.3112  0.1761  0.0812
  140MOL    C6233700   5.585   5.409   4.538  0.1845 -0.0992  0.8155
  140MOL    C6333701   5.471   5.517   4.515 -0.1898  0.2683  1.0885
  140MOL    C6433702   5.446   5.547   4.372  0.2454 -0.4842 -0.1413
  140MOL    C6533703   5.348   5.470   4.589  0.1327 -0.5963  0.5027
  140MOL    O6633704   5.234   5.485   4.539 -0.0750 -0.3613 -0.5400
  140MOL    O6733705   5.358   5.407   4.704 -0.3621 -0.5262 -0.1287
  140MOL    H6833706   5.570   5.383   4.643 -0.9408 -1.2794  0.3737
  140MOL    H6933707   5.673   5.471   4.550  0.7785 -0.7974  0.1079
  140MOL    H7033708   5.418   5.457   4.317 -1.7762 -0.5931  1.0036
  140MOL    H7133709   5.534   5.589   4.323 -1.0335  0.1476 -1.9245
  140MOL    H7233710   5.375   5.630   4.369  1.2382  0.3503 -0.8135
  140MOL    H7333711   5.272   5.384   4.735 -0.2853 -0.8622 -0.1619
  140MOL    C7433712   5.515   5.660   4.566  0.3056 -0.0015 -0.1271
  140MOL    C7533713   5.525   5.720   4.714  0.2152  0.0228  0.2476
  140MOL    C7633714   5.385   5.761   4.763 -0.4844 -0.0932 -0.0129
  140MOL    C7733715   5.591   5.615   4.807  0.5125  0.0880 -0.1623
  140MOL    O7833716   5.536   5.582   4.912  0.3819 -0.3382 -0.2813
  140MOL    O7933717   5.707   5.558   4.755 -0.3477 -0.1682 -0.4184
  140MOL    H8033718   5.614   5.692   4.533  0.1726  0.8230  0.2804
  140MOL    H8133719   5.460   5.744   4.524  0.0437  0.3162  0.8344
  140MOL    H8233720   5.384   5.773   4.871  0.3827  1.3192 -0.1464
  140MOL    H8333721   5.314   5.684   4.734 -0.7072  0.5587 -1.2580
  140MOL    H8433722   5.360   5.860   4.723 -1.5293 -1.2302 -2.2553
  140MOL    H8533723   5.735   5.477   4.793 -0.7136 -0.7572 -1.3799
  140MOL    C8633724   5.620   5.852   4.706 -0.2472 -0.4990 -0.8045
  140MOL    C8733725   5.625   5.965   4.816  0.0171  0.5601  0.2920
  140MOL    C8833726   5.489   6.040   4.833 -0.7833  0.1404  0.7020
  140MOL    C8933727   5.668   5.910   4.954 -0.0657  0.0796  0.4413
  140MOL    O9033728   5.625   5.934   5.066  0.3735 -0.2568  0.1895
  140MOL    O9133729   5.770   5.821   4.934  0.3557 -0.1597  0.2056
  140MOL    H9233730   5.725   5.828   4.690  0.1637 -0.1237  1.1480
  140MOL    H9333731   5.598   5.897   4.610  2.0494 -0.2187 -1.2274
  140MOL    H9433732   5.457   6.091   4.743 -1.7320  1.0995  1.5801
  140MOL    H9533733   5.503   6.129   4.893  2.0153 -0.6302  1.2815
  140MOL    H9633734   5.415   5.983   4.889 -0.8000  1.6631  2.2414
  140MOL    H9733735   5.782   5.781   5.018 -1.3123  1.4273  1.2324
  140MOL    C9833736   5.734   6.067   4.758 -0.1198 -0.6631  0.0409
  140MOL    C9933737   5.745   6.221   4.796  0.0826 -0.1318  0.1441
  140MOL   C10033738   5.744   6.252   4.955  1.3398  0.8982 -0.2961
  140MOL   C10133739   5.888   6.258   4.740  0.0808 -0.2337 -0.0805
  140MOL   O10233740   5.932   6.209   4.635  0.5705  0.4933 -0.2802
  140MOL   O10333741   5.952   6.349   4.817  0.0287  0.2803  0.2834
  140MOL   H10433742   5.828   6.016   4.778 -0.0748 -0.5895  0.0179
  140MOL   H10533743   5.745   6.059   4.649 -1.3147  0.1412 -0.1542
  140MOL   H10633744   5.754   6.360   4.967  0.7336  1.1316 -1.7570
  140MOL   H10733745   5.819   6.208   5.020 -0.2186 -0.8798  0.3286
  140MOL   H10833746   5.657   6.221   5.013  2.4358 -0.7768  0.4661
  140MOL   H10933747   6.044   6.339   4.796 -0.3154  0.2507 -1.2512
  140MOL   C11033748   5.630   6.307   4.720 -0.3578 -0.1823 -0.1675
  140MOL   C11133749   5.646   6.456   4.670 -0.9798 -0.1456  0.2259
  140MOL   C11233750   5.704   6.544   4.784  0.0633  0.4754  0.4988
  140MOL   C11333751   5.732   6.447   4.542 -0.2705  0.6506  0.2534
  140MOL   O11433752   5.716   6.366   4.449 -0.0618  0.2797  0.0473
  140MOL   O11533753   5.832   6.538   4.537  0.4999 -0.8127 -0.0842
  140MOL   H11633754   5.574   6.253   4.644 -2.0526  0.7128  0.4125
  140MOL   H11733755   5.559   6.317   4.803  0.0266  1.6424 -0.0469
  140MOL   H11833756   5.647   6.523   4.874 -0.9251 -1.8559 -0.6234
  140MOL   H11933757   5.695   6.652   4.768 -0.5983  0.3959  0.2968
  140MOL   H12033758   5.808   6.531   4.812  0.1452  2.8895  1.4720
  140MOL   H12133759   5.881   6.526   4.457  0.4275  0.4467 -0.3223
  140MOL   C12233760   5.500   6.507   4.642 -0.4842 -0.0501  0.6463
  140MOL   C12333761   5.451   6.625   4.544 -0.4151 -0.9002  0.3287
  140MOL   C12433762   5.298   6.641   4.561  0.0336 -0.0327  0.2512
  140MOL   C12533763   5.516   6.754   4.589 -1.1136  0.1210  0.8822
  140MOL   O12633764   5.460   6.843   4.648  0.0574  0.2685  0.0321
  140MOL   O12733765   5.644   6.764   4.546  0.1468 -0.2529  0.2170
  140MOL   H12833766   5.447   6.417   4.612  1.6326 -1.5397  1.2849
  140MOL   H12933767   5.456   6.530   4.739 -3.1671  2.4714 -1.0903
  140MOL   H13033768   5.254   6.710   4.489 -0.8579 -1.4917 -0.6446
  140MOL   H13133769   5.268   6.676   4.660  0.1368 -2.0707  1.0264
  140MOL   H13233770   5.248   6.545   4.545  0.5315  0.0947 -2.3779
  140MOL   H13333771   5.697   6.837   4.574 -2.9896  1.4737  1.9487
  140MOL   C13433772   5.471   6.604   4.391  0.2229 -0.6012  0.0603
  140MOL   C13533773   5.410   6.496   4.287 -0.1459 -0.0461  0.3259
  140MOL   C13633774   5.386   6.358   4.362  0.2561 -0.0888 -0.0294
  140MOL   C13733775   5.270   6.531   4.235 -0.0180  0.0695 -0.6923
  140MOL   O13833776   5.201   6.631   4.266  0.1842 -0.3462  0.2221
  140MOL   O13933777   5.221   6.441   4.150  0.1365  0.2263  0.3239
  140MOL   H14033778   5.451   6.700   4.342 -0.9779 -0.8225  0.0993
  140MOL   H14133779   5.579   6.598   4.383  0.0134 -0.4593 -3.3590
  140MOL   H14233780   5.323   6.383   4.447  0.2681  4.4702 -1.2474
  140MOL   H14333781   5.480   6.321   4.404  0.1314 -0.3396  0.0270
  140MOL   H14433782   5.337   6.279   4.304  1.8775 -1.5446  0.5351
  140MOL   H14533783   5.143   6.476   4.111  0.9250  1.1843 -0.4116
  140MOL   C14633784   5.511   6.471   4.171 -0.5711  0.1023  0.0684
  140MOL   C14733785   5.578   6.586   4.083  0.0664  0.6784  0.6452
  140MOL   C14833786   5.454   6.669   4.024 -0.9193  0.2133 -0.1606
  140MOL   C14933787   5.676   6.678   4.162  0.1298  0.3429  0.1287
  140MOL   O15033788   5.666   6.803   4.160  0.1650 -0.2094  0.1978
  140MOL   O15133789   5.762   6.615   4.246 -0.3140 -0.4496  0.3312
  140MOL   H15233790   5.594   6.409   4.205 -0.6835 -1.5017 -2.5273
  140MOL   H15333791   5.460   6.397   4.109 -0.9081 -0.4173  0.9552
  140MOL   H15433792   5.430   6.747   4.096 -0.7243  0.0362  0.0977
  140MOL   H15533793   5.364   6.609   4.012 -1.1901  0.7538 -0.8489
  140MOL   H15633794   5.469   6.719   3.929 -1.2810 -0.4148 -0.5528
  140MOL   H15733795   5.807   6.683   4.294  1.6132 -1.9425  0.6921
  140MOL   C15833796   5.660   6.500   3.971 -0.4961  0.5965  0.4095
  140MOL   C15933797   5.771   6.556   3.878 -0.0790  0.2038 -0.8032
  140MOL   C16033798   5.711   6.672   3.795 -0.3378 -0.0006  0.1473
  140MOL   C16133799   5.895   6.603   3.959  0.0836  0.4057  0.0609
  140MOL   O16233800   5.937   6.717   3.954  0.1100  0.4755  0.3797
  140MOL   O16333801   5.963   6.497   4.020 -0.3200 -0.0482  0.0939
  140MOL   H16433802   5.714   6.427   4.031 -1.7506 -1.3128 -0.7501
  140MOL   H16533803   5.584   6.455   3.908  0.4464 -1.3766  0.6318
  140MOL   H16633804   5.636   6.636   3.725 -1.8625  1.5613  0.9523
  140MOL   H16733805   5.788   6.711   3.729 -1.0506  1.8265  0.3883
  140MOL   H16833806   5.664   6.744   3.862 -0.7263 -1.2311  1.2507
  140MOL   H16933807   6.044   6.535   4.051 -1.7221  2.2967  0.9411
  140MOL   C17033808   5.810   6.437   3.780 -0.0357 -0.2546  0.1029
  140MOL   C17133809   5.892   6.448   3.648 -0.5735 -0.2039  0.4697
  140MOL   C17233810   5.787   6.484   3.537  0.0440 -0.3631  0.6226
  140MOL   C17333811   6.010   6.551   3.660  0.8071 -0.0426  0.7311
  140MOL   O17433812   6.020   6.659   3.590  0.7621 -0.0351  0.6917
  140MOL   O17533813   6.100   6.511   3.751  0.5919  0.1510  0.1442
  140MOL   H17633814   5.864   6.362   3.838 -1.0529 -1.6144 -0.6692
  140MOL   H17733815   5.719   6.389   3.743 -0.3653  0.0561  0.5165
  140MOL   H17833816   5.742   6.580   3.563  0.2741  0.8961 -3.2409
  140MOL   H17933817   5.709   6.408   3.531 -0.0802 -0.2771  1.1429
  140MOL   H18033818   5.834   6.496   3.439 -0.5639  0.0186  0.3793
  140MOL   H18133819   6.167   6.577   3.757 -0.2893  1.2650 -1.6816
  140MOL   C18233820   5.941   6.302   3.625  0.0218  0.1918  0.2233
  140MOL   C18333821   6.009   6.249   3.481 -0.4102  0.1056 -0.8439
  140MOL   C18433822   5.892   6.222   3.386 -0.4832 -0.5534 -0.6448
  140MOL   C18533823   6.099   6.352   3.421 -0.0710 -0.7917  0.2906
  140MOL   O18633824   6.071   6.416   3.322 -0.2312  0.4307  0.0154
  140MOL   O18733825   6.214   6.381   3.490 -0.5641 -0.2628  0.1479
  140MOL   H18833826   6.003   6.278   3.712  0.6000  1.2427  0.1112
  140MOL   H18933827   5.860   6.232   3.645  0.9227 -1.6536 -2.3430
  140MOL   H19033828   5.812   6.167   3.437  0.3729 -1.1612  0.0629
  140MOL   H19133829   5.926   6.167   3.299 -0.1942  0.9057 -1.4540
  140MOL   H19233830   5.851   6.313   3.344  0.8808  0.7583  0.8111
  140MOL   H19333831   6.267   6.456   3.468 -0.3906  0.1395  1.8843
  140MOL   C19433832   6.081   6.115   3.505 -0.2846 -0.6461  0.6547
  140MOL   C19533833   6.164   6.030   3.401 -0.5821 -0.2973 -0.0136
  140MOL   C19633834   6.083   5.972   3.284  1.0394  0.1634  0.3404
  140MOL   C19733835   6.286   6.110   3.341  0.1851 -0.0778 -0.4210
  140MOL   O19833836   6.294   6.145   3.225 -0.5373 -0.2379 -0.0458
  140MOL   O19933837   6.372   6.149   3.437 -0.4876 -0.5603 -0.1504
  140MOL   H20033838   6.137   6.119   3.599  1.5078 -1.5187 -0.3466
  140MOL   H20133839   6.006   6.040   3.532  1.3844 -1.5994  2.8517
  140MOL   H20233840   6.070   6.031   3.194 -1.9976 -0.1341  0.5198
  140MOL   H20333841   5.980   5.953   3.317  1.7293 -1.8713  1.4310
  140MOL   H20433842   6.116   5.878   3.240 -1.0960 -0.1876 -0.5634
  140MOL   H20533843   6.427   6.221   3.408  0.1569 -1.0145 -0.0510
  140MOL   C20633844   6.219   5.905   3.492 -0.3628 -0.0763 -0.7128
  140MOL   C20733845   6.322   5.790   3.452  0.3960  0.4352  0.1542
  140MOL   C20833846   6.416   5.837   3.333  0.2097 -0.6846 -0.5761
  140MOL   C20933847   6.412   5.770   3.578  0.2596  0.5720 -0.9631
  140MOL   O21033848   6.360   5.732   3.681 -0.0527 -0.5716  0.1401
  140MOL   O21133849   6.544   5.792   3.565 -0.1289 -0.1244  0.0020
  140MOL   H21233850   6.258   5.951   3.582 -1.3479  0.4341 -0.5365
  140MOL   H21333851   6.132   5.850   3.529  0.8942 -1.3306  0.4720
  140MOL   H21433852   6.476   5.750   3.307  2.9744  0.3601  2.0069
  140MOL   H21533853   6.484   5.917   3.362 -0.4652  0.8449 -3.1070
  140MOL   H21633854   6.353   5.862   3.248 -2.5485  1.7872  2.0659
  140MOL   H21733855   6.586   5.804   3.649 -0.3623  2.5153 -0.2359
  140MOL   C21833856   6.242   5.656   3.419 -0.0918 -0.3525 -0.1786
  140MOL   C21933857   6.308   5.526   3.356 -0.6357 -0.2351  1.0531
  140MOL   C22033858   6.331   5.553   3.208 -0.0088  0.2066  1.0962
  140MOL   C22133859   6.443   5.477   3.428  0.2746  0.1591 -1.2799
  140MOL   O22233860   6.455   5.473   3.551 -0.1569 -0.1607 -0.0364
  140MOL   O22333861   6.542   5.446   3.346  0.0185  0.1602  0.0708
  140MOL   H22433862   6.192   5.630   3.512  0.3548  2.1462  0.7853
  140MOL   H22533863   6.158   5.673   3.352 -0.1906  3.9172  0.8770
  140MOL   H22633864   6.375   5.464   3.162  0.3907  1.0688 -0.2170
  140MOL   H22733865   6.383   5.643   3.175  0.6725 -1.3509 -2.2574
  140MOL   H22833866   6.236   5.555   3.155  0.6200 -1.3868 -0.1476
  140MOL   H22933867   6.623   5.431   3.391 -1.4335 -0.5585  2.5509
  140MOL   C23033868   6.192   5.422   3.366 -0.3143  0.3115  0.1703
  140MOL   C23133869   6.220   5.270   3.359  0.1038 -0.0986 -0.7552
  140MOL   C23233870   6.092   5.187   3.387  0.5655  0.9657 -0.5119
  140MOL   C23333871   6.293   5.222   3.228 -1.0395 -0.4747  0.2452
  140MOL   O23433872   6.234   5.157   3.144 -0.1920  0.6693  0.4742
  140MOL   O23533873   6.432   5.242   3.223  0.1924 -0.3485 -0.4109
  140MOL   H23633874   6.153   5.423   3.468 -0.1902  1.5771  0.2204
  140MOL   H23733875   6.107   5.437   3.300 -1.1223 -2.7054  0.4847
  140MOL   H23833876   6.010   5.210   3.320  0.4637 -1.4396 -1.2689
  140MOL   H23933877   6.041   5.204   3.482 -1.4558 -3.9376 -0.5517
  140MOL   H24033878   6.116   5.080   3.386  0.7985  1.0161 -0.3556
  140MOL   H24133879   6.468   5.307   3.281 -0.7325  1.2465 -1.5830
  140MOL   H24233880   6.291   5.239   3.435 -0.9654 -0.3569  0.1532
  141MOL     C133881   1.027   1.877   1.477  0.4462  0.3207 -1.5772
  141MOL     C233882   0.886   1.824   1.490 -0.0983  0.4349  0.7689
  141MOL     C333883   0.846   1.818   1.634  0.2900  0.1056  0.3427
  141MOL     C433884   0.798   1.923   1.413  1.0938  0.5405  0.5107
  141MOL     O533885   0.793   1.927   1.288  0.0198 -0.2571 -0.0074
  141MOL     O633886   0.729   2.011   1.493 -0.1047  0.0750 -0.4222
  141MOL     H733887   1.018   1.982   1.506 -0.1361  0.5799 -2.6635
  141MOL     H833888   1.060   1.875   1.373  3.7907 -2.0403 -0.5814
  141MOL     H933889   0.744   1.786   1.655 -0.0291  0.6024 -0.4338
  141MOL    H1033890   0.864   1.912   1.687 -2.0003 -0.5076  2.2988
  141MOL    H1133891   0.895   1.739   1.690  2.4250  1.8192  0.9553
  141MOL    H1233892   0.691   2.078   1.437  0.0208 -0.0372 -0.6426
  141MOL    H1333893   1.098   1.829   1.544 -1.8170  1.8692  2.0524
  141MOL    C1433894   0.889   1.681   1.421 -0.5537  0.7904 -0.4742
  141MOL    C1533895   0.778   1.572   1.435  0.6075 -0.3174 -0.5163
  141MOL    C1633896   0.639   1.639   1.438 -0.0262 -0.1139  0.2736
  141MOL    C1733897   0.779   1.482   1.306 -0.3789 -0.8565  0.1651
  141MOL    O1833898   0.681   1.456   1.237  0.2380  0.8695  0.2041
  141MOL    O1933899   0.909   1.447   1.280  0.6112  0.4516  0.3663
  141MOL    H2033900   0.906   1.699   1.315  2.9370  0.2325 -0.0679
  141MOL    H2133901   0.979   1.632   1.456  0.4672  1.6944 -1.7914
  141MOL    H2233902   0.561   1.565   1.455 -0.1578  0.4548  2.2732
  141MOL    H2333903   0.630   1.691   1.343  0.3384 -1.2133 -0.3774
  141MOL    H2433904   0.622   1.727   1.500 -0.2205  1.3562 -1.8138
  141MOL    H2533905   0.919   1.404   1.196 -0.8177 -1.6782  1.2415
  141MOL    C2633906   0.794   1.490   1.570 -0.4610 -1.2686 -0.4895
  141MOL    C2733907   0.770   1.340   1.596  0.5254 -0.2806  0.3794
  141MOL    C2833908   0.640   1.291   1.537  0.3709 -0.1946 -0.1875
  141MOL    C2933909   0.888   1.265   1.533  0.3779  0.1053 -1.0353
  141MOL    O3033910   0.893   1.193   1.436 -0.3906 -0.4637  0.1733
  141MOL    O3133911   0.998   1.301   1.597 -0.1889  0.2864  0.0043
  141MOL    H3233912   0.899   1.505   1.596 -1.0729 -0.3201  1.5267
  141MOL    H3333913   0.741   1.549   1.645  0.6806  0.9378 -1.3814
  141MOL    H3433914   0.634   1.183   1.543  1.2347 -0.2443 -0.2107
  141MOL    H3533915   0.637   1.319   1.432 -0.9893  0.9708  0.1486
  141MOL    H3633916   0.548   1.327   1.583 -0.3835 -2.6860  0.3149
  141MOL    H3733917   1.064   1.279   1.533  0.6522  1.4733  0.4408
  141MOL    C3833918   0.770   1.328   1.755 -0.7476 -0.3826  0.2276
  141MOL    C3933919   0.774   1.194   1.844  0.0956  0.2381 -0.8712
  141MOL    C4033920   0.678   1.238   1.961 -0.3063 -0.5578 -0.4916
  141MOL    C4133921   0.696   1.076   1.773  0.0838  0.7851 -0.1892
  141MOL    O4233922   0.576   1.054   1.783  0.1552  0.1186  0.2725
  141MOL    O4333923   0.773   1.012   1.678 -0.3437  0.3581 -0.3234
  141MOL    H4433924   0.850   1.395   1.786  0.1778  1.0486 -4.8504
  141MOL    H4533925   0.692   1.395   1.790  1.2210  2.6558 -0.9283
  141MOL    H4633926   0.658   1.164   2.039 -1.1188 -1.7516 -1.8109
  141MOL    H4733927   0.578   1.259   1.924 -1.6612 -3.1704  1.5641
  141MOL    H4833928   0.719   1.326   2.011 -0.7044  0.6029 -2.1728
  141MOL    H4933929   0.734   0.950   1.618 -0.0417  0.1369 -0.2947
  141MOL    C5033930   0.922   1.156   1.877  0.6745  0.3023  0.8235
  141MOL    C5133931   0.968   1.077   2.011  0.3492 -0.9428  0.1563
  141MOL    C5233932   0.979   1.189   2.120  0.3355 -0.0322  0.3201
  141MOL    C5333933   0.870   0.959   2.049  0.2359 -0.3922 -0.2206
  141MOL    O5433934   0.789   0.958   2.140 -0.7151  0.6566  0.4290
  141MOL    O5533935   0.879   0.853   1.962  0.4423  0.6982 -0.5506
  141MOL    H5633936   0.959   1.111   1.785 -0.5078 -0.1418  0.5628
  141MOL    H5733937   0.981   1.248   1.874 -0.6335  1.0893 -1.8269
  141MOL    H5833938   0.900   1.263   2.112 -0.4821 -0.9615 -0.3546
  141MOL    H5933939   1.067   1.253   2.119  0.6113 -0.4151 -0.5222
  141MOL    H6033940   0.981   1.147   2.221  0.6216 -1.0607 -0.0989
  141MOL    H6133941   0.809   0.791   1.974 -2.4187  4.0002  0.3619
  141MOL    C6233942   1.117   1.028   1.972 -0.5606 -0.3762 -0.1147
  141MOL    C6333943   1.203   0.944   2.071 -0.2794 -0.1611 -0.5691
  141MOL    C6433944   1.206   0.993   2.217 -0.0511  0.3190 -0.0194
  141MOL    C6533945   1.177   0.789   2.057  0.6290  0.2034  0.0982
  141MOL    O6633946   1.189   0.729   1.945  0.2510 -0.2272 -0.6438
  141MOL    O6733947   1.132   0.734   2.171 -0.2804 -0.0475 -0.4613
  141MOL    H6833948   1.110   0.972   1.879 -0.5431 -0.5809  0.0060
  141MOL    H6933949   1.166   1.117   1.934 -3.5666  1.0844 -0.7288
  141MOL    H7033950   1.292   0.958   2.274  0.5763  1.0321 -0.5182
  141MOL    H7133951   1.115   0.959   2.267 -0.3955  1.2492  0.0006
  141MOL    H7233952   1.209   1.102   2.214 -1.1191  0.3884  1.2375
  141MOL    H7333953   1.123   0.640   2.165 -0.3063 -0.2445  2.0168
  141MOL    C7433954   1.350   0.976   2.011 -0.5161  0.5256 -0.9489
  141MOL    C7533955   1.491   0.914   2.047  0.0496  0.0832  0.3396
  141MOL    C7633956   1.591   1.024   2.013  0.2310 -0.2216 -0.0185
  141MOL    C7733957   1.508   0.862   2.187  0.2289  0.0984 -0.0216
  141MOL    O7833958   1.470   0.754   2.231 -0.4396  0.0121 -0.1775
  141MOL    O7933959   1.563   0.953   2.268 -0.1396 -0.7133 -0.4254
  141MOL    H8033960   1.343   0.970   1.902  0.2873  1.7609 -1.0870
  141MOL    H8133961   1.360   1.081   2.041 -0.7184  0.3187 -0.1371
  141MOL    H8233962   1.694   0.990   2.030 -0.0764  0.3162  3.3485
  141MOL    H8333963   1.580   1.115   2.072 -1.6003 -0.2165 -0.3583
  141MOL    H8433964   1.601   1.044   1.907  1.9299 -0.5877  0.0527
  141MOL    H8533965   1.587   0.925   2.355  0.5002  1.2425  0.0422
  141MOL    C8633966   1.513   0.785   1.962 -1.3331  0.4975  0.2868
  141MOL    C8733967   1.658   0.720   1.938 -0.1694  0.5688 -0.1334
  141MOL    C8833968   1.747   0.718   2.064  0.0645 -0.1813 -0.1215
  141MOL    C8933969   1.630   0.572   1.903 -0.6149  0.2794  0.1739
  141MOL    O9033970   1.653   0.474   1.973  0.3620 -0.3486 -0.1844
  141MOL    O9133971   1.559   0.564   1.782  0.6371 -0.6154  0.6738
  141MOL    H9233972   1.439   0.708   1.981 -1.2206  0.0935 -0.8421
  141MOL    H9333973   1.491   0.801   1.856  1.5546 -0.0755 -0.4410
  141MOL    H9433974   1.832   0.659   2.030  1.9905  3.0098 -1.0304
  141MOL    H9533975   1.715   0.658   2.149  0.9824  0.4703  0.6916
  141MOL    H9633976   1.778   0.813   2.107 -2.9835  1.1965 -0.8380
  141MOL    H9733977   1.548   0.471   1.768  2.4096 -0.6378 -0.5669
  141MOL    C9833978   1.731   0.788   1.812 -1.3076 -0.2998  0.2390
  141MOL    C9933979   1.885   0.769   1.768 -0.1843  0.0235 -0.0730
  141MOL   C10033980   1.959   0.861   1.867  0.1222 -0.2123  0.9060
  141MOL   C10133981   1.934   0.629   1.775  0.8830  0.1401  0.5082
  141MOL   O10233982   1.880   0.533   1.720 -0.2120 -0.0026 -0.0353
  141MOL   O10333983   2.058   0.623   1.834  0.0798  0.2654  0.5026
  141MOL   H10433984   1.665   0.773   1.727 -0.5165  1.6728 -0.7733
  141MOL   H10533985   1.723   0.897   1.816  1.5715 -0.0655  1.0425
  141MOL   H10633986   1.918   0.960   1.888  3.5462  1.9670 -1.8946
  141MOL   H10733987   2.062   0.876   1.834  0.3087 -0.3365  1.4196
  141MOL   H10833988   1.961   0.814   1.966  0.3075 -0.5283  0.7525
  141MOL   H10933989   2.096   0.708   1.851 -1.5361  1.2663 -0.7086
  141MOL   C11033990   1.926   0.826   1.629 -0.4852 -0.3522  0.2660
  141MOL   C11133991   1.829   0.825   1.501 -0.6075  0.1258 -1.0919
  141MOL   C11233992   1.775   0.688   1.479  0.0854  0.2918 -0.2327
  141MOL   C11333993   1.705   0.920   1.522  0.4606 -0.1856 -0.3107
  141MOL   O11433994   1.606   0.919   1.451  0.0557  0.8586  0.5966
  141MOL   O11533995   1.728   1.016   1.611 -0.3522  0.0450 -0.0883
  141MOL   H11633996   1.960   0.929   1.638 -0.4637 -0.2546 -0.8090
  141MOL   H11733997   2.019   0.779   1.596  1.4371  2.2854  1.8380
  141MOL   H11833998   1.861   0.621   1.479  0.3932  0.6768  0.5023
  141MOL   H11933999   1.722   0.686   1.384 -0.1408 -1.7735 -0.0867
  141MOL   H12034000   1.702   0.653   1.553  0.0232  0.4480 -0.2199
  141MOL   H12134001   1.658   1.077   1.630 -1.1741 -0.8121 -0.2889
  141MOL   C12234002   1.911   0.850   1.368  0.9225  0.7614  0.1174
  141MOL   C12334003   1.998   0.976   1.343 -0.6457  0.3101 -0.1392
  141MOL   C12434004   1.942   1.114   1.394  0.3779 -0.2142  0.9784
  141MOL   C12534005   2.135   0.952   1.412 -0.2283 -0.3016 -0.2477
  141MOL   O12634006   2.176   0.838   1.430  0.3941  0.2083  0.0819
  141MOL   O12734007   2.204   1.066   1.432  0.0705  0.5477 -0.4172
  141MOL   H12834008   1.962   0.761   1.332 -1.2406  0.2460 -1.7767
  141MOL   H12934009   1.821   0.858   1.307 -0.2627  0.0166  1.7068
  141MOL   H13034010   1.961   1.128   1.501  5.0309 -0.4470  0.2447
  141MOL   H13134011   1.838   1.135   1.366  0.1657 -0.4190  1.5943
  141MOL   H13234012   2.007   1.191   1.355 -1.4814  0.8541 -0.0956
  141MOL   H13334013   2.288   1.052   1.472 -0.2093 -0.7919 -0.2569
  141MOL   C13434014   2.010   0.998   1.184 -0.1738  0.2996  0.2794
  141MOL   C13534015   2.041   0.885   1.074  0.1416 -0.7927 -0.6698
  141MOL   C13634016   2.162   0.794   1.106 -0.1339 -0.4655 -0.0207
  141MOL   C13734017   1.911   0.805   1.053 -0.4015 -0.0021 -0.4948
  141MOL   O13834018   1.794   0.853   1.062 -0.8786 -0.0379 -0.2257
  141MOL   O13934019   1.933   0.671   1.028 -0.0778  0.2520  0.2691
  141MOL   H14034020   1.920   1.055   1.158  0.3412  1.8181  1.7398
  141MOL   H14134021   2.089   1.072   1.171  0.9760 -1.2014 -1.5830
  141MOL   H14234022   2.253   0.854   1.100  0.2811 -1.4116 -4.5757
  141MOL   H14334023   2.177   0.703   1.049 -1.0057 -0.3694 -0.4074
  141MOL   H14434024   2.145   0.745   1.202 -1.7643 -1.4805 -0.7916
  141MOL   H14534025   1.853   0.623   1.014  1.4559 -2.1600 -0.4974
  141MOL   C14634026   2.069   0.964   0.938 -0.2380  0.8174 -0.0425
  141MOL   C14734027   2.109   0.910   0.790 -0.4172  0.1795  0.1638
  141MOL   C14834028   2.241   0.843   0.800  0.3143  0.1635 -0.2914
  141MOL   C14934029   1.999   0.818   0.738  0.0710  0.8644 -0.1384
  141MOL   O15034030   2.027   0.709   0.688 -0.0575 -0.7544  1.2192
  141MOL   O15134031   1.872   0.866   0.747  0.3499  0.1368 -0.2079
  141MOL   H15234032   1.984   1.030   0.920  0.0489  1.2999  0.3686
  141MOL   H15334033   2.148   1.035   0.959 -1.3821  2.1674 -0.2054
  141MOL   H15434034   2.310   0.895   0.866  0.4580 -0.8841  0.3966
  141MOL   H15534035   2.285   0.821   0.702  1.7967  0.0112  0.4000
  141MOL   H15634036   2.224   0.742   0.837  3.9979 -1.0308 -1.6433
  141MOL   H15734037   1.815   0.807   0.699  1.5203 -1.7815  0.7064
  141MOL   C15834038   2.120   1.040   0.708  0.2110 -0.1000  0.0653
  141MOL   C15934039   2.175   1.058   0.561 -0.9354  0.5560  0.5491
  141MOL   C16034040   2.326   1.065   0.565 -0.4756 -0.0468 -0.0546
  141MOL   C16134041   2.141   0.940   0.468 -0.1331  0.0536  0.4310
  141MOL   O16234042   2.217   0.845   0.454 -0.3410  0.0830  0.5455
  141MOL   O16334043   2.015   0.938   0.428 -1.0874 -1.0127 -0.5537
  141MOL   H16434044   2.026   1.094   0.714 -0.3144 -1.0327  0.4476
  141MOL   H16534045   2.190   1.099   0.766  1.3629 -0.7282 -0.6754
  141MOL   H16634046   2.377   1.088   0.472  1.0331 -0.5049  0.6471
  141MOL   H16734047   2.377   0.973   0.593 -0.4088  0.6229  2.1719
  141MOL   H16834048   2.358   1.144   0.634 -1.6548 -0.3026  0.8032
  141MOL   H16934049   1.984   0.855   0.395 -3.2475 -0.1840 -0.6732
  141MOL   C17034050   2.130   1.190   0.481 -1.0509 -0.0535  0.0579
  141MOL   C17134051   2.159   1.342   0.522 -0.1681 -0.5683 -0.5054
  141MOL   C17234052   2.060   1.434   0.451  0.3216  0.2979 -0.3773
  141MOL   C17334053   2.128   1.350   0.675  0.0491 -0.7245 -0.0423
  141MOL   O17434054   2.021   1.374   0.723  0.4208  0.4516  0.9089
  141MOL   O17534055   2.237   1.330   0.748 -0.0357  0.3617 -0.0818
  141MOL   H17634056   2.184   1.185   0.387  0.7102  2.0169  0.9128
  141MOL   H17734057   2.029   1.166   0.451 -0.1891 -0.1083 -2.8792
  141MOL   H17834058   2.090   1.430   0.346 -0.7441 -0.9359 -0.6447
  141MOL   H17934059   2.065   1.539   0.478  0.2700  0.0378  0.6543
  141MOL   H18034060   1.957   1.398   0.459  1.0258 -1.6839  0.1259
  141MOL   H18134061   2.208   1.346   0.837 -0.4076  0.4917 -0.2284
  141MOL   C18234062   2.309   1.384   0.481  0.4517  0.3602  0.3956
  141MOL   C18334063   2.357   1.538   0.456  0.3844  0.1194  0.2655
  141MOL   C18434064   2.324   1.578   0.311  0.0703  0.0645  0.0242
  141MOL   C18534065   2.288   1.641   0.549  0.4270  1.1176 -0.0071
  141MOL   O18634066   2.267   1.625   0.670 -0.5641  0.2555  0.7068
  141MOL   O18734067   2.260   1.756   0.487 -0.0172  0.1462 -0.1243
  141MOL   H18834068   2.378   1.322   0.539 -0.8050 -1.1452  0.3377
  141MOL   H18934069   2.326   1.334   0.386 -1.7363 -0.3487  0.3298
  141MOL   H19034070   2.367   1.499   0.248 -0.8550 -0.9434  0.6393
  141MOL   H19134071   2.367   1.669   0.270  0.6062 -1.3019 -2.6290
  141MOL   H19234072   2.223   1.591   0.273 -0.0801  2.3078  1.1459
  141MOL   H19334073   2.237   1.824   0.549 -2.4506 -1.2702  0.5907
  141MOL   C19434074   2.519   1.550   0.487 -0.4364  0.1162  0.1296
  141MOL   C19534075   2.647   1.489   0.414  0.5071  0.2087 -0.6322
  141MOL   C19634076   2.769   1.535   0.494  0.0646  0.4571 -0.4370
  141MOL   C19734077   2.640   1.329   0.416  0.7047 -0.4578  0.0944
  141MOL   O19834078   2.576   1.264   0.330  0.3162  0.4026  0.6832
  141MOL   O19934079   2.708   1.274   0.519  0.8196  0.7465 -0.3765
  141MOL   H20034080   2.544   1.655   0.498 -1.5546  0.4768 -0.5982
  141MOL   H20134081   2.527   1.517   0.591 -0.0333  0.5670  0.2405
  141MOL   H20234082   2.864   1.522   0.442 -0.1471 -0.4359 -0.6107
  141MOL   H20334083   2.777   1.488   0.592 -0.9483  1.1987  0.0069
  141MOL   H20434084   2.766   1.640   0.524 -3.0620 -0.2320  1.9866
  141MOL   H20534085   2.691   1.181   0.520 -1.1220  1.0472 -1.4261
  141MOL   C20634086   2.652   1.543   0.267  0.4056 -0.0779  0.5836
  141MOL   C20734087   2.777   1.544   0.175 -0.9535 -0.3596  0.7313
  141MOL   C20834088   2.854   1.676   0.213 -0.0955  0.5681  0.3966
  141MOL   C20934089   2.871   1.427   0.191  0.1805 -0.0424 -0.7569
  141MOL   O21034090   2.990   1.438   0.210  0.4968 -0.1043 -0.1756
  141MOL   O21134091   2.810   1.308   0.156  0.1605  0.2311 -0.6092
  141MOL   H21234092   2.580   1.489   0.207  0.4705  0.0970  0.3497
  141MOL   H21334093   2.612   1.644   0.265 -1.6392 -0.8840 -0.3097
  141MOL   H21434094   2.795   1.767   0.202 -3.6468 -1.5599  1.0837
  141MOL   H21534095   2.942   1.695   0.152  0.3972  0.8587  1.1863
  141MOL   H21634096   2.883   1.682   0.318 -0.6254 -2.2564  0.7343
  141MOL   H21734097   2.867   1.233   0.150 -1.1045 -0.8842  0.9146
  141MOL   C21834098   2.737   1.536   0.018  0.0198 -0.2092  0.4052
  141MOL   C21934099   2.699   1.672   7.699  0.3259  0.0655  0.0580
  141MOL   C22034100   2.589   1.753   0.010  0.8846  0.2320 -0.3321
  141MOL   C22134101   2.820   1.763   7.675 -0.5104 -0.4022 -0.1787
  141MOL   O22234102   2.827   1.881   7.716 -0.1626 -0.1257 -0.3251
  141MOL   O22334103   2.912   1.697   7.603  0.0787  0.7656  0.6356
  141MOL   H22434104   2.819   1.500   7.724 -0.3170  0.9690 -0.7631
  141MOL   H22534105   2.663   1.456   0.016 -0.8656  0.6438 -2.1516
  141MOL   H22634106   2.564   1.843   7.721 -0.0116  0.5147  0.4981
  141MOL   H22734107   2.630   1.786   0.106 -0.5854  0.1285  0.3406
  141MOL   H22834108   2.502   1.690   0.023  0.9397 -0.6173 -3.6224
  141MOL   H22934109   2.977   1.758   7.574 -0.0185  0.1251 -1.0350
  141MOL   C23034110   2.645   1.623   7.561 -0.3225  0.0727  0.5473
  141MOL   C23134111   2.580   1.733   7.468 -0.1641  0.4671  0.5775
  141MOL   C23234112   2.615   1.707   7.315  0.3621 -0.8476 -1.1166
  141MOL   C23334113   2.427   1.752   7.475  0.4608  0.5396  0.0496
  141MOL   O23434114   2.355   1.668   7.528  0.2561 -0.7840 -0.8526
  141MOL   O23534115   2.383   1.869   7.419 -0.4483  0.3075 -0.0536
  141MOL   H23634116   2.727   1.568   7.515  0.5943  1.9646 -0.1670
  141MOL   H23734117   2.579   1.537   7.566 -0.6464  0.3273  0.6711
  141MOL   H23834118   2.637   1.602   7.298 -0.0768 -0.6427 -2.9637
  141MOL   H23934119   2.714   1.750   7.300 -0.2796 -0.1211 -3.3221
  141MOL   H24034120   2.550   1.742   7.235 -0.6078 -0.7409 -0.2959
  141MOL   H24134121   2.289   1.862   7.428 -0.2144  0.2055  2.6623
  141MOL   H24234122   2.616   1.833   7.495  0.7011 -0.0600  1.4380
  142MOL     C134123   0.530   5.724   2.751 -0.7075  0.0947 -0.7164
  142MOL     C234124   0.643   5.628   2.772 -0.0312  0.1178  0.0286
  142MOL     C334125   0.739   5.693   2.869 -0.9583  0.7310 -0.2092
  142MOL     C434126   0.586   5.501   2.840 -0.1772  0.2457 -0.7138
  142MOL     O534127   0.472   5.484   2.867 -0.7026 -0.6353  0.3168
  142MOL     O634128   0.680   5.404   2.861  0.0261 -0.5820  0.3068
  142MOL     H734129   0.556   5.815   2.698  1.2654 -0.4193 -0.6893
  142MOL     H834130   0.491   5.754   2.848  3.0426 -1.5337  1.4524
  142MOL     H934131   0.829   5.632   2.881 -0.3277  1.5926 -0.5442
  142MOL    H1034132   0.695   5.702   2.968 -2.7205  0.4666 -0.9363
  142MOL    H1134133   0.776   5.793   2.847  3.3477 -0.6058  0.4430
  142MOL    H1234134   0.766   5.431   2.830  0.6468 -1.1157  1.5301
  142MOL    H1334135   0.446   5.678   2.700 -1.2139 -0.8804  0.9507
  142MOL    C1434136   0.728   5.611   2.640 -0.5530 -0.2786  0.4226
  142MOL    C1534137   0.664   5.550   2.513  0.0789 -0.2879  0.5446
  142MOL    C1634138   0.589   5.418   2.540 -0.0130 -0.0454  0.3161
  142MOL    C1734139   0.564   5.648   2.439  0.0075  0.5834 -0.0322
  142MOL    O1834140   0.577   5.768   2.443  0.4457  0.0826 -0.1550
  142MOL    O1934141   0.461   5.582   2.388  0.0165  0.0745 -0.2204
  142MOL    H2034142   0.762   5.712   2.615 -2.6844  0.2990 -0.2376
  142MOL    H2134143   0.822   5.563   2.666 -1.4241 -2.0378  0.4007
  142MOL    H2234144   0.492   5.435   2.588 -1.8672  0.7600 -3.4829
  142MOL    H2334145   0.651   5.356   2.605  1.6639  1.3224  0.0591
  142MOL    H2434146   0.557   5.352   2.460 -2.7852  2.0026 -0.3427
  142MOL    H2534147   0.410   5.635   2.329  0.9164 -0.0861 -1.1673
  142MOL    C2634148   0.781   5.521   2.418 -0.0054 -0.3468 -0.0330
  142MOL    C2734149   0.777   5.484   2.270 -0.2840 -0.0931 -0.4055
  142MOL    C2834150   0.668   5.377   2.229  0.3467  0.3162 -0.0869
  142MOL    C2934151   0.758   5.602   2.174 -0.0216 -0.2325 -1.2382
  142MOL    O3034152   0.757   5.716   2.215  0.5961 -0.1666  0.4150
  142MOL    O3134153   0.744   5.572   2.039  0.1049  0.1454  0.2190
  142MOL    H3234154   0.853   5.602   2.429 -0.7058  0.5113 -1.5866
  142MOL    H3334155   0.819   5.425   2.455 -1.9991 -1.1465 -0.0266
  142MOL    H3434156   0.677   5.349   2.124  4.1194 -1.0478  0.5358
  142MOL    H3534157   0.565   5.412   2.236 -0.7463 -2.7418 -0.1445
  142MOL    H3634158   0.672   5.289   2.293  0.2020 -0.2027 -0.7850
  142MOL    H3734159   0.719   5.644   1.983 -0.9618 -0.0129  0.4742
  142MOL    C3834160   0.920   5.414   2.230  0.0407  0.0676  0.3349
  142MOL    C3934161   1.073   5.469   2.259 -0.5301  0.0837  0.2542
  142MOL    C4034162   1.156   5.383   2.163 -0.5890  0.1106 -0.2911
  142MOL    C4134163   1.089   5.617   2.207  0.3671 -0.1595 -0.2447
  142MOL    O4234164   1.134   5.651   2.098 -0.1389  0.0245 -0.1250
  142MOL    O4334165   1.049   5.706   2.302 -0.2153  0.1425 -0.5782
  142MOL    H4434166   0.920   5.311   2.265 -0.9542 -0.0276  0.0614
  142MOL    H4534167   0.908   5.419   2.122  0.1851  1.7724  0.3889
  142MOL    H4634168   1.263   5.405   2.165 -0.8264  1.1823  0.9257
  142MOL    H4734169   1.137   5.403   2.057  0.2127  0.7673 -0.3145
  142MOL    H4834170   1.150   5.275   2.175  1.2994 -0.3267 -2.8201
  142MOL    H4934171   1.060   5.793   2.266  2.4746 -0.0532 -0.2905
  142MOL    C5034172   1.116   5.446   2.415 -0.1513 -0.5082 -0.1940
  142MOL    C5134173   1.262   5.481   2.472  0.3766  0.4662 -0.7433
  142MOL    C5234174   1.382   5.416   2.394  0.0339  0.2136  0.1135
  142MOL    C5334175   1.280   5.635   2.483  0.0830  0.2262  0.0739
  142MOL    O5434176   1.199   5.710   2.536 -0.0017  0.4984 -0.2339
  142MOL    O5534177   1.393   5.682   2.429  0.2228 -0.0561 -0.5082
  142MOL    H5634178   1.049   5.508   2.474  0.4387 -1.7994  1.9026
  142MOL    H5734179   1.103   5.340   2.439  1.3471 -0.9584 -1.2656
  142MOL    H5834180   1.371   5.310   2.373  2.2513 -0.3563  1.6126
  142MOL    H5934181   1.460   5.421   2.470  0.4794 -1.5442 -0.2099
  142MOL    H6034182   1.422   5.462   2.303  0.7476 -0.4384  0.0856
  142MOL    H6134183   1.401   5.776   2.438  1.0368 -0.1482 -0.2202
  142MOL    C6234184   1.280   5.417   2.617  0.1168  0.6075 -0.1877
  142MOL    C6334185   1.177   5.408   2.734 -0.9836  0.7146 -0.1057
  142MOL    C6434186   1.122   5.549   2.760  0.3212  0.5639 -0.2234
  142MOL    C6534187   1.057   5.308   2.708 -0.6667 -0.0824 -0.0595
  142MOL    O6634188   0.939   5.342   2.700 -0.1682 -1.0254 -0.3696
  142MOL    O6734189   1.103   5.182   2.696  0.1456  0.1241  0.1066
  142MOL    H6834190   1.314   5.315   2.602 -1.0076 -0.3809  3.3840
  142MOL    H6934191   1.366   5.461   2.666 -1.1344 -0.6841  3.3467
  142MOL    H7034192   1.062   5.588   2.678  0.3714  0.5841 -0.2503
  142MOL    H7134193   1.192   5.623   2.798 -1.5423  1.6245  1.2583
  142MOL    H7234194   1.053   5.546   2.845  1.0249 -2.3477  0.3108
  142MOL    H7334195   1.025   5.134   2.676 -1.4502  2.6979 -0.1529
  142MOL    C7434196   1.264   5.354   2.859  0.3249  0.7124 -0.1887
  142MOL    C7534197   1.220   5.361   3.013  0.7387  0.0109 -0.4950
  142MOL    C7634198   1.081   5.316   3.026  0.4157  0.3858 -0.1210
  142MOL    C7734199   1.314   5.262   3.084  0.6104  0.0842 -0.4506
  142MOL    O7834200   1.275   5.170   3.158  0.5171 -1.1513  0.3054
  142MOL    O7934201   1.443   5.273   3.041 -0.3384 -0.2331  0.0020
  142MOL    H8034202   1.294   5.250   2.846 -0.7838  0.2052  1.1501
  142MOL    H8134203   1.363   5.399   2.855  0.0234  1.5498  1.5749
  142MOL    H8234204   1.036   5.314   3.125 -1.0366  1.7148 -0.7395
  142MOL    H8334205   1.061   5.215   2.988  0.2695  0.1510  0.5686
  142MOL    H8434206   1.017   5.389   2.978  1.3289  2.7591  2.1903
  142MOL    H8534207   1.491   5.199   3.074 -2.4202 -1.7541 -0.3210
  142MOL    C8634208   1.248   5.508   3.066 -0.3437 -0.0272  0.3445
  142MOL    C8734209   1.269   5.552   3.218  0.3814 -0.1149 -0.2039
  142MOL    C8834210   1.158   5.487   3.307 -0.2969  0.0134  0.7019
  142MOL    C8934211   1.405   5.504   3.255 -0.0294 -0.2903 -0.1507
  142MOL    O9034212   1.506   5.526   3.186 -0.3777  0.7712 -0.0304
  142MOL    O9134213   1.409   5.432   3.375  0.0570  0.2284  0.3713
  142MOL    H9234214   1.317   5.552   2.994 -0.0536 -2.2145 -0.7707
  142MOL    H9334215   1.150   5.550   3.047  0.3704  0.3184 -2.8481
  142MOL    H9434216   1.154   5.499   3.415 -1.2647  0.1611  0.6484
  142MOL    H9534217   1.166   5.380   3.288 -0.1193  0.5483 -2.5636
  142MOL    H9634218   1.061   5.520   3.271 -0.3065 -1.5694 -0.7750
  142MOL    H9734219   1.318   5.448   3.396 -0.1792  1.5877 -1.5333
  142MOL    C9834220   1.244   5.710   3.228  0.2909 -1.1863 -0.4415
  142MOL    C9934221   1.285   5.796   3.359 -0.1289 -0.1952  0.5601
  142MOL   C10034222   1.240   5.735   3.487 -0.6006 -0.1581 -0.2669
  142MOL   C10134223   1.436   5.815   3.376  0.2333 -0.4022  0.0768
  142MOL   O10234224   1.498   5.787   3.481  0.7240  0.1845  0.1072
  142MOL   O10334225   1.504   5.848   3.259 -0.1216  0.6070  0.4527
  142MOL   H10434226   1.305   5.750   3.146  0.1557  0.8424  0.4126
  142MOL   H10534227   1.148   5.736   3.184  0.8819  2.1679  0.0517
  142MOL   H10634228   1.277   5.795   3.570 -0.1500 -0.3449 -0.3331
  142MOL   H10734229   1.279   5.638   3.519  0.1400  0.7233  1.5780
  142MOL   H10834230   1.131   5.730   3.486 -0.7559  1.7002  2.5043
  142MOL   H10934231   1.596   5.854   3.281  0.1278 -0.3056 -0.3029
  142MOL   C11034232   1.221   5.938   3.333  0.1328 -0.1148 -0.1387
  142MOL   C11134233   1.180   6.040   3.443 -0.2971  0.5595 -0.3008
  142MOL   C11234234   1.058   5.996   3.518  0.5694 -0.3240  1.0010
  142MOL   C11334235   1.291   6.070   3.540 -0.6329  0.5654  0.5654
  142MOL   O11434236   1.276   6.064   3.664  0.4435 -0.0863  0.3465
  142MOL   O11534237   1.412   6.101   3.482 -0.6659 -0.2028 -0.0602
  142MOL   H11634238   1.283   5.986   3.257 -4.6160  2.4567 -2.6100
  142MOL   H11734239   1.126   5.913   3.285 -0.3803  0.1034  0.7532
  142MOL   H11834240   1.083   5.922   3.594  0.7184 -1.4495 -0.1325
  142MOL   H11934241   0.997   5.935   3.452  1.8916 -0.3025 -0.2730
  142MOL   H12034242   0.998   6.071   3.569  0.8213 -0.3005  1.2657
  142MOL   H12134243   1.492   6.113   3.530  0.8341 -2.0045 -2.0031
  142MOL   C12234244   1.139   6.182   3.385  0.4551 -0.5710  0.5172
  142MOL   C12334245   1.037   6.202   3.274 -0.7963  0.5681 -0.2183
  142MOL   C12434246   0.919   6.108   3.280 -0.4568 -0.3155  0.1015
  142MOL   C12534247   0.984   6.343   3.286  0.7925  0.2144  0.1137
  142MOL   O12634248   0.862   6.367   3.298  0.4511  0.0351 -0.1687
  142MOL   O12734249   1.080   6.433   3.285 -0.0337 -0.2870  0.1824
  142MOL   H12834250   1.100   6.234   3.472 -0.9489  0.5836 -0.7781
  142MOL   H12934251   1.231   6.235   3.360  0.4923 -1.4647 -1.3593
  142MOL   H13034252   0.851   6.140   3.201 -0.5877 -0.1176  0.2939
  142MOL   H13134253   0.854   6.107   3.367 -1.4360 -1.2617 -0.6303
  142MOL   H13234254   0.935   6.004   3.251  0.4028 -0.2188  0.2254
  142MOL   H13334255   1.039   6.518   3.297 -0.8976 -0.5326 -0.9422
  142MOL   C13434256   1.105   6.190   3.129  0.0590 -0.0730 -0.3085
  142MOL   C13534257   1.038   6.203   2.988  0.9859  0.4219  0.6984
  142MOL   C13634258   0.941   6.088   2.954 -1.3997 -0.1894  0.2382
  142MOL   C13734259   0.962   6.340   2.974  0.5085 -0.1575 -0.0741
  142MOL   O13834260   1.016   6.436   2.918 -0.2932 -0.2323 -0.6026
  142MOL   O13934261   0.835   6.347   3.029 -0.4353  0.0222  0.4268
  142MOL   H14034262   1.186   6.262   3.140 -0.2649  0.2426  0.0230
  142MOL   H14134263   1.150   6.091   3.139 -0.8234 -0.3563  1.0266
  142MOL   H14234264   0.993   5.992   2.955 -1.3617 -0.1661  1.8916
  142MOL   H14334265   0.912   6.100   2.850  0.5950  0.2722 -0.2931
  142MOL   H14434266   0.854   6.078   3.018 -0.5216 -2.3224  1.1447
  142MOL   H14534267   0.804   6.435   3.011  0.9070  0.3806 -0.1761
  142MOL   C14634268   1.158   6.218   2.885 -1.1127 -0.6933  0.2016
  142MOL   C14734269   1.243   6.093   2.830  0.2765  0.0441  0.1161
  142MOL   C14834270   1.303   6.006   2.944 -0.6768  0.2382 -0.5222
  142MOL   C14934271   1.151   6.005   2.738 -0.1304 -0.6705 -0.3072
  142MOL   O15034272   1.059   6.050   2.665  0.3103 -0.0692 -0.0744
  142MOL   O15134273   1.185   5.874   2.751 -0.2026  0.1656  0.0942
  142MOL   H15234274   1.114   6.268   2.799  0.1160 -0.6753 -0.4158
  142MOL   H15334275   1.223   6.298   2.919 -1.0633  0.4600 -2.5279
  142MOL   H15434276   1.232   5.941   2.995 -0.4789  0.6567  0.3034
  142MOL   H15534277   1.328   6.083   3.016 -1.6538 -0.6116  0.7470
  142MOL   H15634278   1.397   5.957   2.917  0.8744  2.5465  0.5730
  142MOL   H15734279   1.135   5.823   2.689  0.2791 -1.3652  0.9368
  142MOL   C15834280   1.371   6.155   2.756 -0.7004  0.5275  0.9927
  142MOL   C15934281   1.455   6.095   2.628  0.0567 -1.1404  0.7853
  142MOL   C16034282   1.506   5.949   2.659  0.5186  0.5398  0.0591
  142MOL   C16134283   1.357   6.085   2.504 -0.2325 -0.0385 -0.3958
  142MOL   O16234284   1.327   5.980   2.447  0.3037  0.3322  0.5566
  142MOL   O16334285   1.289   6.196   2.481 -0.2809  0.7288  0.2935
  142MOL   H16434286   1.339   6.254   2.723  0.0287  0.5722  0.4017
  142MOL   H16534287   1.448   6.170   2.832  1.1656  0.1037 -0.7780
  142MOL   H16634288   1.574   5.953   2.744 -1.2642  2.7947  1.4479
  142MOL   H16734289   1.562   5.908   2.575 -1.0566 -0.5130 -0.4932
  142MOL   H16834290   1.422   5.888   2.692 -1.0620  1.5175 -2.0151
  142MOL   H16934291   1.232   6.166   2.412 -1.7324 -0.3510  1.9220
  142MOL   C17034292   1.569   6.201   2.605 -0.1287 -0.5926 -0.3550
  142MOL   C17134293   1.698   6.175   2.517  0.8991  0.4384  0.0286
  142MOL   C17234294   1.786   6.070   2.594  0.5447  1.5140  0.3244
  142MOL   C17334295   1.671   6.114   2.370  0.5006  0.3127 -0.2143
  142MOL   O17434296   1.561   6.107   2.316  0.4670 -0.0484 -0.1507
  142MOL   O17534297   1.774   6.060   2.309 -0.5251 -0.7515 -0.0818
  142MOL   H17634298   1.526   6.290   2.561  1.9434  2.2889  3.1438
  142MOL   H17734299   1.602   6.236   2.703  0.2264  1.1383 -1.0805
  142MOL   H17834300   1.781   6.073   2.703  1.0083 -0.9708  0.4512
  142MOL   H17934301   1.890   6.093   2.571  0.9480 -1.5415 -1.2415
  142MOL   H18034302   1.777   5.966   2.560 -0.0745  1.6527  0.0587
  142MOL   H18134303   1.736   6.025   2.229  2.5392 -0.0790 -1.8909
  142MOL   C18234304   1.787   6.300   2.497 -0.4269 -0.2739 -0.7349
  142MOL   C18334305   1.733   6.446   2.447 -0.4456  0.5276 -0.1110
  142MOL   C18434306   1.632   6.432   2.332 -0.1066 -0.2512  0.4805
  142MOL   C18534307   1.670   6.525   2.564  0.4764 -0.2135  0.4184
  142MOL   O18634308   1.682   6.489   2.678  0.7443  0.1319 -0.1957
  142MOL   O18734309   1.600   6.638   2.526  0.4767  0.4460 -0.3997
  142MOL   H18834310   1.840   6.310   2.592 -2.8561  1.5133  0.4803
  142MOL   H18934311   1.865   6.259   2.433  1.3950 -0.5885  1.6190
  142MOL   H19034312   1.673   6.385   2.242 -1.1543 -0.0578 -0.1084
  142MOL   H19134313   1.601   6.525   2.286  0.0944 -0.3694  0.1015
  142MOL   H19234314   1.538   6.382   2.354 -1.3213  0.3299 -3.1164
  142MOL   H19334315   1.539   6.661   2.594  0.6580  1.9545 -0.7414
  142MOL   C19434316   1.851   6.536   2.392 -0.7648 -0.3486 -0.1810
  142MOL   C19534317   1.998   6.551   2.459  0.2447 -0.2111 -0.0182
  142MOL   C19634318   1.983   6.572   2.611 -0.1932 -0.5171  0.3580
  142MOL   C19734319   2.070   6.419   2.424 -0.1316  1.3580  0.0410
  142MOL   O19834320   2.082   6.374   2.310 -0.5662 -0.0236  0.6281
  142MOL   O19934321   2.130   6.354   2.530  0.0288  0.2829  0.1841
  142MOL   H20034322   1.870   6.514   2.287  1.3061  2.7462 -0.5145
  142MOL   H20134323   1.820   6.639   2.378  1.0811  0.0933 -1.1934
  142MOL   H20234324   2.077   6.582   2.665 -0.1258  1.9309 -0.1463
  142MOL   H20334325   1.936   6.485   2.655 -0.3142 -0.6677 -0.0740
  142MOL   H20434326   1.919   6.654   2.644 -1.5485 -1.2130 -0.4959
  142MOL   H20534327   2.119   6.401   2.611 -1.7118 -1.8546  1.2414
  142MOL   C20634328   2.077   6.669   2.393 -0.4049 -0.2858  0.4531
  142MOL   C20734329   2.238   6.703   2.389  0.9709 -0.3643 -0.4173
  142MOL   C20834330   2.244   6.848   2.330 -0.8646  0.6958  0.7266
  142MOL   C20934331   2.303   6.702   2.525 -0.8841  0.2880 -0.5095
  142MOL   O21034332   2.338   6.806   2.580 -0.3473  0.2702 -0.2865
  142MOL   O21134333   2.338   6.576   2.570  0.4417 -0.3702 -0.1824
  142MOL   H21234334   2.051   6.677   2.287 -1.2526  1.0039  0.7383
  142MOL   H21334335   2.026   6.758   2.430 -0.7519 -0.3678  0.1743
  142MOL   H21434336   2.181   6.915   2.390  0.0270  2.1210  0.1010
  142MOL   H21534337   2.209   6.857   2.228  0.5896 -1.6949 -0.0276
  142MOL   H21634338   2.341   6.897   2.330 -0.5063  0.0092 -2.0237
  142MOL   H21734339   2.385   6.585   2.651 -0.6259 -0.5701  0.4617
  142MOL   C21834340   2.309   6.606   2.287 -1.2064  0.2210 -0.4753
  142MOL   C21934341   2.450   6.628   2.214 -0.3179 -0.0556  0.5953
  142MOL   C22034342   2.477   6.495   2.135  0.6478 -1.0080  0.3837
  142MOL   C22134343   2.442   6.746   2.111  0.4611 -0.0023  0.0268
  142MOL   O22234344   2.490   6.855   2.123  0.0602  0.3120 -0.2082
  142MOL   O22334345   2.372   6.713   1.998 -0.0895 -0.7065 -0.2593
  142MOL   H22434346   2.320   6.510   2.337  0.7436 -0.3258 -1.9181
  142MOL   H22534347   2.237   6.592   2.207 -2.0967 -0.9968  0.5105
  142MOL   H22634348   2.382   6.462   2.094 -0.2125  2.5823 -0.7905
  142MOL   H22734349   2.506   6.414   2.201 -1.9121 -2.8732 -0.7266
  142MOL   H22834350   2.557   6.493   2.060 -1.0365 -1.5536 -1.4318
  142MOL   H22934351   2.356   6.783   1.936  0.9849 -0.3190 -0.1175
  142MOL   C23034352   2.560   6.668   2.325  0.6151  0.1574  0.2726
  142MOL   C23134353   2.711   6.694   2.296  0.3765 -0.5045 -0.0307
  142MOL   C23234354   2.763   6.806   2.392 -0.2568 -0.7568  0.2587
  142MOL   C23334355   2.785   6.562   2.329 -0.2813  0.1725  0.1299
  142MOL   O23434356   2.843   6.537   2.435  0.2168  0.5850  0.1529
  142MOL   O23534357   2.765   6.474   2.226 -0.3189 -0.3010  0.2445
  142MOL   H23634358   2.525   6.759   2.374 -2.9377 -0.7326 -0.4859
  142MOL   H23734359   2.560   6.589   2.400  1.1166 -2.4342 -2.3284
  142MOL   H23834360   2.706   6.898   2.380  2.7086  0.9590 -1.1875
  142MOL   H23934361   2.859   6.840   2.352 -0.9852 -0.0818 -0.9159
  142MOL   H24034362   2.757   6.773   2.496  0.5978 -1.1969  0.1805
  142MOL   H24134363   2.822   6.402   2.248 -0.9317 -0.7617  0.3156
  142MOL   H24234364   2.724   6.714   2.189  0.9030  1.4427  0.3751
  143MOL     C134365   3.435   2.127   5.891  0.0741 -0.2145 -0.4493
  143MOL     C234366   3.346   2.241   5.941 -1.0130 -0.8259  0.0256
  143MOL     C334367   3.410   2.295   6.063  0.5552 -0.5395 -0.3366
  143MOL     C434368   3.330   2.362   5.840  0.4017  0.4040 -0.5539
  143MOL     O534369   3.386   2.374   5.731  0.0127 -0.2166  0.3323
  143MOL     O634370   3.252   2.462   5.894  0.0407  0.0088  0.1301
  143MOL     H734371   3.417   2.086   5.792 -0.0609 -1.1513 -0.0361
  143MOL     H834372   3.447   2.047   5.964  0.0031  1.1446  1.1080
  143MOL     H934373   3.449   2.214   6.125  0.1527  0.3704  1.1487
  143MOL    H1034374   3.361   2.362   6.133 -0.2182  0.6825 -2.0170
  143MOL    H1134375   3.505   2.340   6.035  0.8994 -0.4459  0.9670
  143MOL    H1234376   3.251   2.538   5.838 -0.3246  0.4008  0.6594
  143MOL    H1334377   3.539   2.158   5.881  0.5496 -1.4513  0.6145
  143MOL    C1434378   3.204   2.181   5.971  0.2497 -0.0604 -0.5098
  143MOL    C1534379   3.101   2.122   5.869  0.5541 -0.0544  0.6894
  143MOL    C1634380   2.982   2.073   5.960 -0.2898  0.1867  0.3513
  143MOL    C1734381   3.041   2.242   5.781  0.5380 -0.0192 -0.0925
  143MOL    O1834382   3.079   2.260   5.664 -0.0364  0.0159 -0.1528
  143MOL    O1934383   2.955   2.329   5.848 -0.0393  0.5513  0.4295
  143MOL    H2034384   3.219   2.102   6.044 -1.2517 -0.9411 -1.1183
  143MOL    H2134385   3.145   2.249   6.033 -1.1366  1.7273 -3.6553
  143MOL    H2234386   3.006   1.971   5.993  0.1409  0.0380 -0.4039
  143MOL    H2334387   2.888   2.073   5.904  0.3482 -0.5387 -0.7489
  143MOL    H2434388   2.971   2.134   6.049 -0.5510 -0.5732  0.8417
  143MOL    H2534389   2.920   2.392   5.787  0.3857  0.2647 -0.1224
  143MOL    C2634390   3.156   2.000   5.775 -0.1703 -0.2651 -0.0137
  143MOL    C2734391   3.064   1.893   5.691  0.4621 -0.4737  0.2680
  143MOL    C2834392   2.991   1.809   5.804  0.3125  0.1076 -0.2656
  143MOL    C2934393   2.948   1.962   5.609  0.5393  0.2227  0.1519
  143MOL    O3034394   2.833   1.987   5.648 -0.1495  0.2829 -0.2594
  143MOL    O3134395   2.984   1.981   5.478  0.3946 -0.9676  0.6129
  143MOL    H3234396   3.215   2.045   5.695  1.3146  0.9973  1.7641
  143MOL    H3334397   3.225   1.936   5.830  0.0352  0.6032  0.7504
  143MOL    H3434398   3.052   1.802   5.894  1.0250 -1.9081 -0.8726
  143MOL    H3534399   2.984   1.704   5.776  3.6223 -0.3919  0.5450
  143MOL    H3634400   2.894   1.836   5.845  0.6522 -0.2310  0.7658
  143MOL    H3734401   2.904   2.006   5.435  0.0742 -2.4789  0.3054
  143MOL    C3834402   3.146   1.805   5.587  0.1963  0.5753  0.8364
  143MOL    C3934403   3.264   1.704   5.624 -0.1327 -0.1398  0.3606
  143MOL    C4034404   3.231   1.627   5.751 -0.8617  0.1505  0.0818
  143MOL    C4134405   3.267   1.599   5.507 -0.1866 -0.5697 -0.3671
  143MOL    O4234406   3.213   1.619   5.399 -0.3669  0.4869  0.0412
  143MOL    O4334407   3.341   1.489   5.532  0.1610 -0.0256 -0.0470
  143MOL    H4434408   3.063   1.750   5.542  1.5480 -2.8122  2.3157
  143MOL    H4534409   3.183   1.872   5.509  0.4088  1.8264  1.9859
  143MOL    H4634410   3.302   1.548   5.778  0.8500  1.9271  0.9136
  143MOL    H4734411   3.134   1.577   5.757 -0.6822 -0.1418  0.5581
  143MOL    H4834412   3.229   1.688   5.841  1.6116 -0.2753  0.4551
  143MOL    H4934413   3.373   1.493   5.621  0.8463  0.4409 -0.3126
  143MOL    C5034414   3.402   1.777   5.659  0.4355 -0.4370  0.7784
  143MOL    C5134415   3.500   1.820   5.537  0.0073  0.3096 -0.2892
  143MOL    C5234416   3.556   1.690   5.466  0.5795  0.6180  0.6218
  143MOL    C5334417   3.428   1.927   5.441 -0.4495 -0.1390 -0.2689
  143MOL    O5434418   3.378   2.029   5.492  0.6755  0.1809  0.3478
  143MOL    O5534419   3.445   1.901   5.314  0.5864  0.0526  0.4021
  143MOL    H5634420   3.386   1.854   5.735  0.4373 -1.2193  1.5701
  143MOL    H5734421   3.460   1.722   5.732  3.0764  1.7012  0.3837
  143MOL    H5834422   3.563   1.614   5.544  2.2650  2.1897  2.0476
  143MOL    H5934423   3.651   1.707   5.416  0.0928 -1.9099 -1.2463
  143MOL    H6034424   3.489   1.657   5.387  0.4937  1.0019  0.5303
  143MOL    H6134425   3.402   1.965   5.260 -1.3700 -1.3632  0.2326
  143MOL    C6234426   3.621   1.888   5.614  0.0294  0.3845  0.1495
  143MOL    C6334427   3.757   1.948   5.556 -0.6714 -0.5335 -0.7364
  143MOL    C6434428   3.770   2.084   5.636  0.4494 -0.0881 -0.3592
  143MOL    C6534429   3.868   1.849   5.590  0.0030  0.9012  0.3917
  143MOL    O6634430   3.936   1.857   5.692  0.3262 -0.2428 -0.4027
  143MOL    O6734431   3.873   1.739   5.509 -0.0251 -0.3950  0.2458
  143MOL    H6834432   3.575   1.952   5.689  0.1342 -0.5923  1.0575
  143MOL    H6934433   3.654   1.814   5.688 -0.3157 -0.8203 -0.8907
  143MOL    H7034434   3.794   2.065   5.740  2.9976  1.1715 -0.6785
  143MOL    H7134435   3.673   2.132   5.639 -0.1161 -1.2355  0.0891
  143MOL    H7234436   3.854   2.144   5.600  0.6913 -0.5392 -0.5587
  143MOL    H7334437   3.951   1.688   5.527  0.3491 -0.2479 -0.9027
  143MOL    C7434438   3.743   1.989   5.402  0.0231 -0.4419 -0.6164
  143MOL    C7534439   3.857   2.028   5.311  0.4455  0.9696  0.2605
  143MOL    C7634440   3.954   1.903   5.287 -0.0111  0.8814  0.1932
  143MOL    C7734441   3.792   2.056   5.170  0.9105 -0.1953  0.1313
  143MOL    O7834442   3.813   2.003   5.059  0.0847  0.2819  0.0505
  143MOL    O7934443   3.707   2.149   5.182  0.2981  0.0388 -0.0084
  143MOL    H8034444   3.697   1.901   5.356  1.8932 -1.5057 -0.4822
  143MOL    H8134445   3.664   2.065   5.403 -0.3876 -0.8741  1.2601
  143MOL    H8234446   3.901   1.809   5.271  1.1889  0.3200 -0.5092
  143MOL    H8334447   4.012   1.887   5.378 -1.4019  2.6419  1.4336
  143MOL    H8434448   4.026   1.920   5.208  0.8424  1.4460  1.0770
  143MOL    H8534449   3.651   2.160   5.107 -0.6257  1.2477  0.8324
  143MOL    C8634450   3.937   2.151   5.357  0.4146  0.4246 -0.1178
  143MOL    C8734451   4.029   2.250   5.268  0.0930  0.4587 -0.3337
  143MOL    C8834452   3.943   2.338   5.178  0.2139  0.3703 -0.4570
  143MOL    C8934453   4.097   2.337   5.379 -0.2254  0.0185  0.3635
  143MOL    O9034454   4.159   2.288   5.466 -0.1812 -0.7526 -0.2823
  143MOL    O9134455   4.089   2.477   5.365  0.5709  0.0663 -0.1860
  143MOL    H9234456   3.860   2.215   5.402 -2.0257 -1.5464 -1.3791
  143MOL    H9334457   3.992   2.098   5.434  0.5824 -0.4794 -0.8656
  143MOL    H9434458   3.997   2.427   5.147  2.5609 -0.2845  1.6488
  143MOL    H9534459   3.850   2.380   5.217  1.7749  0.2016  3.5977
  143MOL    H9634460   3.939   2.280   5.085  1.5753 -0.3173 -0.0968
  143MOL    H9734461   4.133   2.518   5.438 -0.2240  1.7103 -0.6065
  143MOL    C9834462   4.137   2.165   5.197  0.1227  0.8831 -0.5104
  143MOL    C9934463   4.278   2.212   5.145  0.0895  0.0881  0.0083
  143MOL   C10034464   4.372   2.231   5.270  0.6116 -0.1577  0.2473
  143MOL   C10134465   4.334   2.085   5.078  0.1594 -0.7394 -0.2337
  143MOL   O10234466   4.433   2.019   5.110 -0.2177  0.5189 -0.0349
  143MOL   O10334467   4.263   2.047   4.973  0.1229 -0.0514  0.3048
  143MOL   H10434468   4.149   2.075   5.256 -0.2017  0.9904 -0.2777
  143MOL   H10534469   4.079   2.130   5.112  0.4110 -2.3542  0.5516
  143MOL   H10634470   4.358   2.171   5.359  1.4496 -0.3351  0.2636
  143MOL   H10734471   4.371   2.333   5.307 -0.9569  0.6865 -1.9999
  143MOL   H10834472   4.477   2.218   5.245  0.4092 -0.3048 -0.5533
  143MOL   H10934473   4.314   1.984   4.923  0.6456  1.0428 -0.5742
  143MOL   C11034474   4.275   2.351   5.070 -0.2701  0.2383  0.1722
  143MOL   C11134475   4.382   2.389   4.970 -0.0184  0.0038 -0.1957
  143MOL   C11234476   4.527   2.367   5.026  0.8778 -0.6351  0.2125
  143MOL   C11334477   4.363   2.315   4.833 -0.0003  0.1874 -0.1000
  143MOL   O11434478   4.460   2.279   4.763 -0.2553  0.4529 -0.1700
  143MOL   O11534479   4.231   2.299   4.809 -0.7051  0.1794  0.4792
  143MOL   H11634480   4.178   2.368   5.022 -0.0935 -1.5189 -0.8318
  143MOL   H11734481   4.279   2.420   5.154  2.8625 -0.6623  0.8237
  143MOL   H11834482   4.600   2.431   4.976  0.6493  0.3342  1.0826
  143MOL   H11934483   4.548   2.261   5.024 -3.5349 -1.6168  1.0604
  143MOL   H12034484   4.531   2.401   5.130  2.2054  1.7330 -0.5637
  143MOL   H12134485   4.216   2.238   4.738 -0.4699  0.3741  0.2596
  143MOL   C12234486   4.380   2.544   4.942  0.6795 -0.0158  0.0782
  143MOL   C12334487   4.375   2.667   5.043 -0.1052  0.0035 -0.4236
  143MOL   C12434488   4.229   2.687   5.090  0.4268 -0.2355 -0.8518
  143MOL   C12534489   4.455   2.653   5.173  0.0188  0.5489  0.4319
  143MOL   O12634490   4.403   2.644   5.286 -0.0458 -0.3710  0.1630
  143MOL   O12734491   4.589   2.666   5.150 -0.1976 -0.6417  0.1070
  143MOL   H12834492   4.454   2.565   4.865  0.4559  0.9908  0.1245
  143MOL   H12934493   4.285   2.564   4.893  0.9152  0.2942 -0.2570
  143MOL   H13034494   4.200   2.606   5.157  0.2226 -0.0680 -0.7384
  143MOL   H13134495   4.159   2.692   5.006  1.3955  0.2879 -1.6455
  143MOL   H13234496   4.220   2.782   5.143 -1.0806 -1.2819  0.8155
  143MOL   H13334497   4.619   2.657   5.061 -0.3199  1.0318 -0.1161
  143MOL   C13434498   4.433   2.803   4.987 -0.4687 -0.4849  0.0941
  143MOL   C13534499   4.353   2.894   4.888  0.0613 -0.0356 -0.1825
  143MOL   C13634500   4.232   2.966   4.961  0.7266 -0.3270 -0.1999
  143MOL   C13734501   4.451   3.004   4.835  0.4989 -0.3503  0.1454
  143MOL   O13834502   4.513   2.982   4.733  0.4204  0.2468 -0.4322
  143MOL   O13934503   4.456   3.118   4.906  0.3030 -0.3201 -0.2683
  143MOL   H14034504   4.454   2.872   5.068 -0.1067 -0.2996 -0.1537
  143MOL   H14134505   4.527   2.769   4.944  1.3624  3.0014  1.1731
  143MOL   H14234506   4.139   2.911   4.975 -0.1184  0.9320 -0.7830
  143MOL   H14334507   4.212   3.066   4.922 -1.0245  0.5133  2.6555
  143MOL   H14434508   4.254   2.986   5.066 -3.2230  0.1183  0.6248
  143MOL   H14534509   4.514   3.178   4.862 -0.5466  1.0120  0.3871
  143MOL   C14634510   4.307   2.812   4.765  0.3726  0.0136 -0.6709
  143MOL   C14734511   4.226   2.866   4.640 -0.1024 -0.0790  0.2594
  143MOL   C14834512   4.329   2.862   4.527 -0.0002 -0.3196 -0.2813
  143MOL   C14934513   4.116   2.759   4.611 -0.2649 -0.4743 -0.0156
  143MOL   O15034514   4.001   2.775   4.642  0.0614 -0.3683  0.3687
  143MOL   O15134515   4.163   2.644   4.553  0.2705  0.1409 -0.0120
  143MOL   H15234516   4.400   2.761   4.737  0.1179 -1.0507  0.3767
  143MOL   H15334517   4.245   2.733   4.808 -0.0221  0.7524  0.1150
  143MOL   H15434518   4.293   2.853   4.425  3.5443 -1.7894 -1.4790
  143MOL   H15534519   4.399   2.779   4.541 -0.6692 -1.0155 -1.0483
  143MOL   H15634520   4.386   2.955   4.536 -1.3631  0.4607  0.3526
  143MOL   H15734521   4.101   2.580   4.520  1.6055 -1.2960  0.2092
  143MOL   C15834522   4.158   3.004   4.675  0.2865 -0.5351 -0.2717
  143MOL   C15934523   4.100   3.114   4.576 -0.8105  0.0391  0.4429
  143MOL   C16034524   4.215   3.178   4.500  0.2475 -0.5744  0.2443
  143MOL   C16134525   3.994   3.044   4.482 -0.4351  0.0821 -0.7195
  143MOL   O16234526   3.887   3.001   4.535 -0.1056  0.2233 -0.3167
  143MOL   O16334527   4.041   3.004   4.360  0.4847 -0.3907  0.5311
  143MOL   H16434528   4.085   2.984   4.753 -1.4734 -1.1788 -2.0438
  143MOL   H16534529   4.235   3.065   4.723 -0.5558 -0.3445  0.8592
  143MOL   H16634530   4.279   3.234   4.567  0.1950  0.5180 -0.6051
  143MOL   H16734531   4.181   3.238   4.415  0.1768 -0.0499  0.6429
  143MOL   H16834532   4.285   3.111   4.448  0.9976  1.0606 -0.9026
  143MOL   H16934533   3.982   2.956   4.304  0.1100 -0.6811  1.1737
  143MOL   C17034534   4.030   3.225   4.670 -0.3371 -0.1770 -0.5095
  143MOL   C17134535   3.947   3.347   4.618 -0.0364 -0.8746  0.0216
  143MOL   C17234536   3.927   3.435   4.741 -0.0043  0.5805  0.1194
  143MOL   C17334537   4.037   3.435   4.526 -0.3751 -0.0698 -0.2125
  143MOL   O17434538   4.131   3.499   4.573 -0.0047  0.5319 -0.4318
  143MOL   O17534539   4.014   3.443   4.392  0.0467  0.0269  0.0177
  143MOL   H17634540   3.969   3.162   4.736  0.5531 -1.2498 -0.6948
  143MOL   H17734541   4.104   3.256   4.743 -3.4116  3.2887  1.3138
  143MOL   H17834542   3.888   3.533   4.715  2.3433  1.7418  0.9043
  143MOL   H17934543   4.012   3.444   4.809  0.2311 -0.4384 -0.0231
  143MOL   H18034544   3.855   3.380   4.802  0.8365 -1.7797 -0.9326
  143MOL   H18134545   4.082   3.491   4.348 -1.2367  2.3314  0.4877
  143MOL   C18234546   3.816   3.310   4.539 -0.3578  0.0226 -0.7900
  143MOL   C18334547   3.686   3.397   4.502  0.0926 -0.4472 -0.2022
  143MOL   C18434548   3.727   3.515   4.411  0.2607 -0.6785 -0.1082
  143MOL   C18534549   3.595   3.299   4.416  0.0766 -0.1124  0.5334
  143MOL   O18634550   3.565   3.313   4.301  0.0408  0.7963 -0.3718
  143MOL   O18734551   3.560   3.188   4.480  0.0281  0.3923  0.0141
  143MOL   H18834552   3.848   3.258   4.449 -0.6601  0.2255 -1.0198
  143MOL   H18934553   3.776   3.226   4.597 -3.8727  1.2357 -1.3009
  143MOL   H19034554   3.802   3.580   4.455  1.2256 -2.0627  0.3530
  143MOL   H19134555   3.645   3.577   4.375  0.3497 -1.0866 -1.0319
  143MOL   H19234556   3.759   3.477   4.314  2.1571  0.3025  0.1122
  143MOL   H19334557   3.524   3.138   4.409  0.6205  0.3853 -0.2860
  143MOL   C19434558   3.623   3.450   4.632  0.7849 -0.0146  0.2294
  143MOL   C19534559   3.474   3.483   4.653 -0.0149 -0.3392  0.1717
  143MOL   C19634560   3.413   3.552   4.534  0.2755  0.0638  0.3878
  143MOL   C19734561   3.397   3.350   4.675 -0.3094 -0.3949 -0.5199
  143MOL   O19834562   3.304   3.306   4.606  0.0075  0.5451 -0.1137
  143MOL   O19934563   3.443   3.284   4.786 -0.3342  0.1653  0.5591
  143MOL   H20034564   3.651   3.381   4.711  2.2747  1.3995  0.9720
  143MOL   H20134565   3.676   3.542   4.658 -0.6312  0.5254  1.3180
  143MOL   H20234566   3.432   3.509   4.436 -0.8945 -0.4577  0.3774
  143MOL   H20334567   3.455   3.650   4.509  1.2896 -0.4529  0.0836
  143MOL   H20434568   3.304   3.555   4.539  0.2209 -1.8632  0.6899
  143MOL   H20534569   3.394   3.209   4.816  0.0917 -0.3011  0.1241
  143MOL   C20634570   3.451   3.577   4.780  0.1489 -0.6669  0.1061
  143MOL   C20734571   3.312   3.632   4.835 -0.0213  0.6560 -0.3246
  143MOL   C20834572   3.205   3.526   4.841 -0.0602 -0.0709 -0.2844
  143MOL   C20934573   3.354   3.671   4.983  0.1665  0.5927  0.4180
  143MOL   O21034574   3.417   3.774   5.010  0.3785  0.1910  0.5881
  143MOL   O21134575   3.298   3.580   5.071  0.1748  0.1967 -0.4214
  143MOL   H21234576   3.511   3.529   4.858  1.8489 -1.1499 -1.4686
  143MOL   H21334577   3.517   3.664   4.774 -1.3830  0.4612 -0.4718
  143MOL   H21434578   3.118   3.553   4.900 -0.2496  1.6071 -1.2930
  143MOL   H21534579   3.249   3.438   4.888 -0.5787  0.6834  1.6198
  143MOL   H21634580   3.173   3.491   4.742  0.0019 -1.4361  0.1659
  143MOL   H21734581   3.259   3.506   5.027  0.9336  0.1097 -0.9557
  143MOL   C21834582   3.290   3.766   4.756  0.7442 -0.5621 -0.1234
  143MOL   C21934583   3.152   3.842   4.761  0.1343 -1.2768  0.0399
  143MOL   C22034584   3.052   3.774   4.664 -0.3363  0.1721 -0.5526
  143MOL   C22134585   3.084   3.851   4.901  0.1706  0.2916  0.7559
  143MOL   O22234586   3.002   3.769   4.942  0.6036 -0.7141 -0.3079
  143MOL   O22334587   3.119   3.957   4.978 -0.2713 -0.3297 -0.4698
  143MOL   H22434588   3.372   3.836   4.771 -0.6279  1.2306 -0.8746
  143MOL   H22534589   3.306   3.749   4.649  1.5168 -0.8597  0.0348
  143MOL   H22634590   3.021   3.672   4.691 -0.1314 -0.2250 -1.8012
  143MOL   H22734591   3.089   3.766   4.562 -0.0498 -1.9330 -0.3177
  143MOL   H22834592   2.959   3.831   4.658 -1.5282 -1.9148 -2.7558
  143MOL   H22934593   3.074   3.965   5.060  0.4996 -1.7482  0.1227
  143MOL   C23034594   3.181   3.985   4.704  0.1361 -0.0546  0.3286
  143MOL   C23134595   3.067   4.097   4.710 -0.5418  0.0085 -0.1031
  143MOL   C23234596   3.131   4.238   4.699 -0.3337  0.2524  0.2921
  143MOL   C23334597   2.938   4.080   4.629 -0.6646  0.4742  0.1533
  143MOL   O23434598   2.820   4.088   4.675 -0.5842  0.0495 -0.5362
  143MOL   O23534599   2.960   4.040   4.499  0.7511  0.2728  0.0409
  143MOL   H23634600   3.265   4.026   4.761 -0.2287 -0.4442  1.1537
  143MOL   H23734601   3.210   3.969   4.600 -0.5472 -2.1458  0.4370
  143MOL   H23834602   3.049   4.308   4.715 -2.9606 -2.5416 -0.6369
  143MOL   H23934603   3.168   4.261   4.599 -0.4473  1.1076  0.4447
  143MOL   H24034604   3.209   4.264   4.771  1.7404  0.6767 -2.0061
  143MOL   H24134605   3.049   4.029   4.471  0.6651 -1.2116  0.2939
  143MOL   H24234606   3.039   4.099   4.815 -2.2170  1.0395 -0.5534
  144MOL     C134607   4.981   6.356   6.278  0.1355  0.3108 -0.2209
  144MOL     C234608   5.067   6.344   6.150 -0.1404 -0.0745 -0.4086
  144MOL     C334609   5.064   6.484   6.083  0.2248 -1.0544  0.6759
  144MOL     C434610   5.210   6.321   6.198 -0.0684 -0.1676  0.3421
  144MOL     O534611   5.254   6.342   6.310 -0.2593 -0.1363 -0.3411
  144MOL     O634612   5.282   6.265   6.095  0.6789  0.3839  0.7179
  144MOL     H734613   4.997   6.457   6.317 -0.2200 -0.0735  0.9305
  144MOL     H834614   5.011   6.294   6.362  2.7922  1.0191 -0.5739
  144MOL     H934615   4.961   6.505   6.054  0.3930 -3.1563 -1.6783
  144MOL    H1034616   5.115   6.492   5.987 -1.4445 -1.7685 -0.2952
  144MOL    H1134617   5.095   6.575   6.133  0.8883 -0.2995 -1.0479
  144MOL    H1234618   5.363   6.246   6.140  0.2222 -2.2235  0.5040
  144MOL    H1334619   4.873   6.352   6.265 -0.0506  2.1505  0.5489
  144MOL    C1434620   5.019   6.229   6.046 -0.1869 -0.2596  0.2237
  144MOL    C1534621   5.010   6.072   6.077  0.0439 -0.0833 -0.7006
  144MOL    C1634622   5.146   6.002   6.109 -0.1843  0.5182  0.1877
  144MOL    C1734623   4.932   6.058   6.215  0.9492  0.2199  0.1899
  144MOL    O1834624   4.808   6.063   6.224 -0.2797  0.2037 -0.4700
  144MOL    O1934625   5.007   6.046   6.329 -0.4761 -0.3521  0.4390
  144MOL    H2034626   4.916   6.259   6.028 -0.3186 -1.0327 -0.3159
  144MOL    H2134627   5.081   6.252   5.959  0.2130  0.1475  0.6118
  144MOL    H2234628   5.200   6.053   6.189  0.0645  2.2197 -1.0339
  144MOL    H2334629   5.217   6.015   6.028 -0.9953 -3.8069 -1.3929
  144MOL    H2434630   5.144   5.896   6.134  2.8563  0.8568  2.0457
  144MOL    H2534631   4.950   6.062   6.402  2.0110  0.6996  2.2112
  144MOL    C2634632   4.927   5.986   5.969  0.0749  0.2468 -0.9015
  144MOL    C2734633   4.980   5.946   5.824  0.2055  0.2776  0.3210
  144MOL    C2834634   5.029   6.069   5.744  0.1274 -0.1233  0.1316
  144MOL    C2934635   5.098   5.846   5.841  0.5292  0.0525 -0.3621
  144MOL    O3034636   5.214   5.876   5.803  0.0706  0.5074  0.4999
  144MOL    O3134637   5.055   5.726   5.884 -0.1917 -0.6069 -0.1615
  144MOL    H3234638   4.885   5.900   6.021  0.1990 -0.2544 -1.6188
  144MOL    H3334639   4.847   6.059   5.954  0.5862  0.6143 -1.8945
  144MOL    H3434640   5.120   6.117   5.780  1.3622 -2.4457  0.2222
  144MOL    H3534641   4.956   6.149   5.744  2.1359  1.7775 -1.8426
  144MOL    H3634642   5.061   6.041   5.643  0.3893  0.6145  0.0114
  144MOL    H3734643   4.964   5.721   5.908 -0.4270  3.1578 -0.0043
  144MOL    C3834644   4.883   5.864   5.725 -0.6327 -0.7370  0.4829
  144MOL    C3934645   4.749   5.917   5.662 -0.2096  0.1110 -0.2535
  144MOL    C4034646   4.778   6.031   5.563  0.3169 -0.0316  0.2366
  144MOL    C4134647   4.721   5.794   5.567 -0.0603  0.3134  0.1973
  144MOL    O4234648   4.729   5.796   5.444  0.1320  1.2530  0.2741
  144MOL    O4334649   4.699   5.675   5.630 -0.3370 -0.7569  0.7858
  144MOL    H4434650   4.945   5.825   5.644  1.1201  2.4708  0.2106
  144MOL    H4534651   4.848   5.776   5.779  0.2383 -0.6331  1.2232
  144MOL    H4634652   4.783   6.125   5.618  1.1595 -0.8489  1.6128
  144MOL    H4734653   4.705   6.040   5.483  0.1237  1.9888  0.6154
  144MOL    H4834654   4.873   6.016   5.512  0.1396  0.9953 -0.3953
  144MOL    H4934655   4.652   5.613   5.577 -0.3137 -0.7327  0.7364
  144MOL    C5034656   4.635   5.959   5.760  0.3633  0.0708 -0.4745
  144MOL    C5134657   4.500   5.884   5.780 -0.0300  0.0773  0.1071
  144MOL    C5234658   4.424   5.990   5.864  0.2138  0.3821  0.2058
  144MOL    C5334659   4.418   5.866   5.651 -0.0091  0.5531 -0.4359
  144MOL    O5434660   4.352   5.765   5.626  0.1179 -0.5564  0.1297
  144MOL    O5534661   4.416   5.982   5.582 -0.2903  0.4435 -0.3013
  144MOL    H5634662   4.677   5.965   5.861  1.0533  2.1351 -0.8624
  144MOL    H5734663   4.613   6.059   5.724 -1.6638  0.5408  1.9223
  144MOL    H5834664   4.328   5.951   5.897  0.3806  0.4675  0.7939
  144MOL    H5934665   4.415   6.093   5.828  1.9111  0.6939  0.5899
  144MOL    H6034666   4.478   6.013   5.956 -0.8943  1.5504  0.5710
  144MOL    H6134667   4.361   5.976   5.505 -1.1841 -1.3842  0.4722
  144MOL    C6234668   4.515   5.741   5.859 -0.0579 -0.3492 -0.2117
  144MOL    C6334669   4.436   5.700   5.988 -0.7683 -0.2721  0.3209
  144MOL    C6434670   4.461   5.805   6.116 -0.2408  0.0891  0.4681
  144MOL    C6534671   4.289   5.691   5.945 -0.4552  0.0074 -0.0498
  144MOL    O6634672   4.246   5.608   5.866 -0.0326  0.0985  0.9880
  144MOL    O6734673   4.209   5.788   6.000  0.2442  0.3167 -0.4816
  144MOL    H6834674   4.505   5.660   5.786  3.8726 -0.3238 -0.8582
  144MOL    H6934675   4.619   5.741   5.891 -0.7997 -2.1764  2.4067
  144MOL    H7034676   4.426   5.765   6.211 -1.6045 -1.0283 -0.4783
  144MOL    H7134677   4.410   5.901   6.113  0.8364  0.7417  2.6704
  144MOL    H7234678   4.560   5.845   6.132 -0.3040  1.2898 -1.8167
  144MOL    H7334679   4.115   5.789   5.987 -0.2244  0.8302  2.6047
  144MOL    C7434680   4.480   5.554   6.040  0.5718 -0.6152 -0.7840
  144MOL    C7534681   4.625   5.496   6.061 -0.0599 -0.1668 -0.6007
  144MOL    C7634682   4.676   5.414   5.940 -0.3492 -0.1700 -0.5714
  144MOL    C7734683   4.736   5.603   6.090 -0.0448 -0.9528  0.8630
  144MOL    O7834684   4.759   5.650   6.202 -0.5700 -0.4172 -0.5244
  144MOL    O7934685   4.808   5.638   5.977  0.7056 -0.2418  0.1865
  144MOL    H8034686   4.430   5.567   6.136  0.9906 -3.1944 -0.1714
  144MOL    H8134687   4.411   5.483   5.995 -1.4660  0.8795 -0.0657
  144MOL    H8234688   4.775   5.372   5.954 -0.7616 -1.7813 -2.2570
  144MOL    H8334689   4.682   5.470   5.846  2.7478 -1.1078 -0.9844
  144MOL    H8434690   4.609   5.333   5.909 -0.8067 -0.0430  0.0736
  144MOL    H8534691   4.779   5.584   5.905  1.4645  1.0153 -1.0762
  144MOL    C8634692   4.625   5.405   6.184 -0.3868 -0.5484 -0.3867
  144MOL    C8734693   4.572   5.253   6.198  0.7739 -0.4442 -0.0252
  144MOL    C8834694   4.429   5.244   6.132  0.9171  0.5641  0.1790
  144MOL    C8934695   4.671   5.159   6.120  0.8182 -0.2632 -0.1665
  144MOL    O9034696   4.789   5.160   6.151 -0.3793 -0.7458 -0.2359
  144MOL    O9134697   4.620   5.077   6.021  0.2920  0.1629  0.1220
  144MOL    H9234698   4.731   5.393   6.206  0.0354 -0.8303 -2.5090
  144MOL    H9334699   4.591   5.458   6.273  1.6057 -2.4528  1.5776
  144MOL    H9434700   4.446   5.261   6.026  0.2202 -1.7747 -0.3394
  144MOL    H9534701   4.365   5.326   6.165 -0.9404 -1.7905  2.7026
  144MOL    H9634702   4.371   5.152   6.144 -0.6459  1.3566 -1.1955
  144MOL    H9734703   4.688   5.031   5.975  1.3854  1.6354  0.2584
  144MOL    C9834704   4.573   5.222   6.351  0.0867 -0.0882  0.6488
  144MOL    C9934705   4.546   5.084   6.426  0.2420  0.2545  0.0998
  144MOL   C10034706   4.436   5.002   6.357 -0.1257 -0.4706  0.5270
  144MOL   C10134707   4.675   5.000   6.434  0.6950  0.1678 -0.3748
  144MOL   O10234708   4.693   4.899   6.370  0.0677 -0.0575  0.6252
  144MOL   O10334709   4.755   5.041   6.541 -0.4880  0.2700 -0.0434
  144MOL   H10434710   4.670   5.258   6.386 -0.2851  0.4070  1.1628
  144MOL   H10534711   4.503   5.290   6.399  0.0877  0.6833 -0.4153
  144MOL   H10634712   4.347   5.062   6.376 -1.1592 -2.2892  1.5589
  144MOL   H10734713   4.418   4.907   6.407  1.2866 -0.9524  0.1438
  144MOL   H10834714   4.454   4.977   6.252 -1.7340  0.0118  0.1253
  144MOL   H10934715   4.827   4.980   6.548 -1.1507 -0.3537  1.4251
  144MOL   C11034716   4.489   5.131   6.574  0.4667  0.1356  0.1325
  144MOL   C11134717   4.431   5.024   6.680 -0.2356  0.5124  0.5981
  144MOL   C11234718   4.287   4.984   6.656  0.2063  0.1823  0.0257
  144MOL   C11334719   4.514   4.890   6.691  0.2776 -0.0491  0.9267
  144MOL   O11434720   4.461   4.778   6.671  0.3203 -0.5632  0.2734
  144MOL   O11534721   4.639   4.906   6.734 -0.1370 -0.5804  0.3968
  144MOL   H11634722   4.569   5.192   6.617  0.5938 -0.7033  1.1050
  144MOL   H11734723   4.413   5.208   6.560  1.0739  0.8225  0.5357
  144MOL   H11834724   4.265   4.949   6.555  1.6212 -0.6243 -0.0135
  144MOL   H11934725   4.224   5.069   6.680  3.1974  2.1392  1.2211
  144MOL   H12034726   4.245   4.906   6.720 -1.3481 -0.9184 -2.2515
  144MOL   H12134727   4.673   4.994   6.742  1.0096 -0.7806 -1.8113
  144MOL   C12234728   4.437   5.105   6.816 -0.1845  0.1413  0.5751
  144MOL   C12334729   4.394   5.069   6.970 -0.0667  0.4465  0.7579
  144MOL   C12434730   4.454   5.176   7.060  0.7207  0.0611 -0.4468
  144MOL   C12534731   4.239   5.068   6.982 -0.4086 -0.0627 -0.2318
  144MOL   O12634732   4.168   4.971   7.015 -0.0275 -0.2177  0.0992
  144MOL   O12734733   4.198   5.195   6.969 -0.3620 -0.1403 -0.2754
  144MOL   H12834734   4.545   5.118   6.826 -0.3333  1.1869  0.8253
  144MOL   H12934735   4.393   5.203   6.800 -0.6178 -0.2460 -0.6854
  144MOL   H13034736   4.450   5.277   7.018 -1.0933 -0.6184 -1.9655
  144MOL   H13134737   4.558   5.152   7.083  0.9740  2.0636  0.6189
  144MOL   H13234738   4.414   5.186   7.160 -1.3953 -2.5829 -0.9699
  144MOL   H13334739   4.107   5.205   6.945  0.3006  0.6454 -2.5592
  144MOL   C13434740   4.453   4.927   7.013  0.6588  0.3973 -0.1312
  144MOL   C13534741   4.449   4.866   7.162 -0.7386  0.2743 -0.2536
  144MOL   C13634742   4.426   4.966   7.278 -0.4517 -0.0065  0.5726
  144MOL   C13734743   4.336   4.774   7.169  0.3698 -1.1625 -0.9853
  144MOL   O13834744   4.263   4.770   7.271 -0.1284 -0.3514  0.5712
  144MOL   O13934745   4.310   4.691   7.064 -0.2160 -0.1995 -0.1027
  144MOL   H14034746   4.434   4.852   6.936  0.5011 -1.4854  1.7054
  144MOL   H14134747   4.555   4.948   6.981  0.9167 -0.6397 -0.0062
  144MOL   H14234748   4.335   5.026   7.266 -0.3750  0.5851  2.7367
  144MOL   H14334749   4.511   5.034   7.282 -0.9155  0.6044  0.1318
  144MOL   H14434750   4.428   4.916   7.375  0.4473 -0.2631  0.4251
  144MOL   H14534751   4.223   4.657   7.052  1.0049 -3.6058  0.3310
  144MOL   C14634752   4.564   4.768   7.188  0.3598  0.1074 -0.6991
  144MOL   C14734753   4.711   4.800   7.210 -0.8207  0.6452  0.0705
  144MOL   C14834754   4.768   4.875   7.086 -0.2488 -0.2187  0.0782
  144MOL   C14934755   4.718   4.882   7.335 -0.1229  0.4715 -0.3342
  144MOL   O15034756   4.699   4.829   7.441  0.4759 -0.7071 -0.3711
  144MOL   O15134757   4.748   5.013   7.329 -0.3426 -0.2022 -0.2226
  144MOL   H15234758   4.538   4.704   7.272 -0.7404 -0.4282 -1.4309
  144MOL   H15334759   4.570   4.702   7.102  1.4705 -3.9105  2.3276
  144MOL   H15434760   4.723   4.974   7.077 -1.1747 -0.8638 -3.0522
  144MOL   H15534761   4.748   4.823   6.992  3.3010 -1.9560  0.2253
  144MOL   H15634762   4.872   4.902   7.104 -1.4867  3.3465  2.3615
  144MOL   H15734763   4.790   5.034   7.247 -1.2378  0.9354 -0.4058
  144MOL   C15834764   4.780   4.660   7.234 -0.3247  0.4573  0.0386
  144MOL   C15934765   4.937   4.636   7.232 -0.2517  0.0069  0.0300
  144MOL   C16034766   5.004   4.738   7.328  0.3910 -0.1225 -0.1415
  144MOL   C16134767   4.969   4.490   7.292  0.4472  0.3010 -0.2782
  144MOL   O16234768   5.053   4.469   7.376 -0.8335  0.1739 -0.0846
  144MOL   O16334769   4.883   4.391   7.260 -0.1726  0.0502  0.2450
  144MOL   H16434770   4.745   4.614   7.326 -0.1096  0.3718  0.0749
  144MOL   H16534771   4.736   4.594   7.160 -1.2898  0.7670  0.3244
  144MOL   H16634772   4.996   4.831   7.272  2.4804 -1.1014 -2.1748
  144MOL   H16734773   5.108   4.727   7.359 -0.0058  0.0598  1.2917
  144MOL   H16834774   4.945   4.750   7.419  1.6282  1.2934  0.4936
  144MOL   H16934775   4.910   4.318   7.314  2.0244  1.4063  1.0582
  144MOL   C17034776   4.996   4.631   7.091  0.1897  0.2783  0.4440
  144MOL   C17134777   5.131   4.581   7.037  0.0095 -0.2657 -0.2279
  144MOL   C17234778   5.239   4.647   7.121  0.2676  0.2678 -0.3479
  144MOL   C17334779   5.162   4.423   7.036 -0.4504 -0.6798  0.2304
  144MOL   O17434780   5.084   4.342   7.085 -0.1405 -0.0050 -0.4798
  144MOL   O17534781   5.281   4.386   6.978  0.1983  0.0894 -0.1817
  144MOL   H17634782   4.919   4.569   7.044  0.5276 -1.4087  2.0861
  144MOL   H17734783   4.992   4.732   7.050 -0.2642  0.0415 -0.1063
  144MOL   H17834784   5.217   4.751   7.141  2.6624  0.6910  0.2144
  144MOL   H17934785   5.337   4.650   7.073  1.0641  1.0756  1.3027
  144MOL   H18034786   5.252   4.592   7.214 -0.2618 -0.5749 -0.7645
  144MOL   H18134787   5.290   4.293   6.964  0.8852 -0.0417  1.0723
  144MOL   C18234788   5.139   4.635   6.884  0.1308 -0.2360 -0.7146
  144MOL   C18334789   5.026   4.604   6.769  0.2596 -0.2426  0.3009
  144MOL   C18434790   4.982   4.457   6.781  0.2716  0.4034 -0.2936
  144MOL   C18534791   4.909   4.704   6.779  0.2196 -0.0846 -0.9803
  144MOL   O18634792   4.927   4.819   6.811 -0.6173 -0.0484  0.6240
  144MOL   O18734793   4.790   4.651   6.738  0.6848  0.2431 -0.1433
  144MOL   H18834794   5.157   4.743   6.885 -0.0855 -0.1961  0.8389
  144MOL   H18934795   5.241   4.614   6.853 -0.1452 -0.4315 -1.5027
  144MOL   H19034796   5.051   4.389   6.730 -0.0243  1.1756 -1.7568
  144MOL   H19134797   4.887   4.434   6.732  0.6130 -0.9201 -0.3773
  144MOL   H19234798   4.960   4.441   6.886  0.8240  2.7206  0.1909
  144MOL   H19334799   4.737   4.728   6.720  1.8941  2.0130  3.3497
  144MOL   C19434800   5.108   4.619   6.646  0.0055  0.1847  0.1457
  144MOL   C19534801   5.053   4.602   6.497  0.6368 -0.6248  0.2958
  144MOL   C19634802   4.967   4.477   6.482  0.0991 -0.3946  0.3348
  144MOL   C19734803   4.962   4.723   6.461  0.0563  0.3158 -0.1668
  144MOL   O19834804   4.959   4.834   6.522  0.6792 -0.2668 -0.4346
  144MOL   O19934805   4.893   4.699   6.345 -0.2354 -0.3159 -0.2524
  144MOL   H20034806   5.160   4.715   6.652 -1.3399  0.9311  0.0694
  144MOL   H20134807   5.191   4.548   6.655 -1.0905 -1.1955 -0.4514
  144MOL   H20234808   5.017   4.387   6.518  0.5725  0.7692  2.6924
  144MOL   H20334809   4.937   4.453   6.380 -0.3780  0.7910  0.1867
  144MOL   H20434810   4.871   4.500   6.530  0.2993  1.1884 -0.0130
  144MOL   H20534811   4.840   4.774   6.326 -0.0679  0.0683  0.7307
  144MOL   C20634812   5.180   4.588   6.397 -0.3547 -0.2117  0.5148
  144MOL   C20734813   5.321   4.661   6.408  0.2646 -0.1230  0.1155
  144MOL   C20834814   5.387   4.685   6.269  0.6803  0.4203  0.8270
  144MOL   C20934815   5.299   4.812   6.456  0.2245  0.3373 -0.1301
  144MOL   O21034816   5.340   4.873   6.555 -0.4153 -0.7591  0.5539
  144MOL   O21134817   5.209   4.871   6.374 -0.1728  0.7204 -0.4000
  144MOL   H21234818   5.195   4.484   6.369  0.4867  0.4805 -1.7352
  144MOL   H21334819   5.148   4.631   6.301 -0.4796 -2.3642 -0.4291
  144MOL   H21434820   5.340   4.768   6.217 -1.6630 -0.9647  0.6888
  144MOL   H21534821   5.368   4.610   6.193  1.4908  1.0787 -0.0419
  144MOL   H21634822   5.496   4.679   6.276  0.7867  0.4499 -0.6929
  144MOL   H21734823   5.174   4.950   6.412  0.9199  0.7469  0.5675
  144MOL   C21834824   5.413   4.593   6.511  0.3991  0.4523 -0.7984
  144MOL   C21934825   5.465   4.442   6.494  0.2160 -0.4861  0.2097
  144MOL   C22034826   5.585   4.414   6.595 -0.2628 -0.4207 -0.5311
  144MOL   C22134827   5.353   4.341   6.526 -0.1124  0.5917  0.5355
  144MOL   O22234828   5.298   4.262   6.442  0.0173 -0.1690 -0.2852
  144MOL   O22334829   5.322   4.345   6.657  0.1496  0.4719  0.4966
  144MOL   H22434830   5.506   4.649   6.512  1.8619 -1.9363  0.4402
  144MOL   H22534831   5.373   4.614   6.610 -0.1197  2.0943 -1.3327
  144MOL   H22634832   5.600   4.307   6.607  2.0424  0.1945  2.8346
  144MOL   H22734833   5.562   4.451   6.695  0.5143  1.4193 -1.0135
  144MOL   H22834834   5.680   4.449   6.554 -0.4904 -0.7004 -1.2905
  144MOL   H22934835   5.254   4.286   6.685  1.5113 -1.7821 -0.7761
  144MOL   C23034836   5.517   4.417   6.348  0.1889  0.5416  0.5788
  144MOL   C23134837   5.594   4.287   6.324 -0.3534  0.3155  0.4064
  144MOL   C23234838   5.540   4.205   6.206 -0.0914 -0.5608 -0.0088
  144MOL   C23334839   5.738   4.334   6.298 -0.4905  0.5089 -0.1228
  144MOL   O23434840   5.825   4.332   6.385 -0.0423 -0.5585 -0.5695
  144MOL   O23534841   5.759   4.387   6.174 -0.8243  0.0079  0.1640
  144MOL   H23634842   5.424   4.413   6.291  0.8345 -1.5322 -0.3811
  144MOL   H23734843   5.579   4.498   6.310  1.1502 -0.9728 -1.1437
  144MOL   H23834844   5.618   4.132   6.182  0.8484 -0.1209  1.6740
  144MOL   H23934845   5.511   4.251   6.111 -3.0995 -0.1123  1.0786
  144MOL   H24034846   5.457   4.145   6.243 -0.4525  0.1714  0.3716
  144MOL   H24134847   5.684   4.422   6.128  1.0113  3.9321 -0.0762
  144MOL   H24234848   5.589   4.228   6.415 -0.8469 -1.6267 -0.8640
  145MOL     C134849   2.251   6.762   0.249 -0.5363  0.7400 -0.6842
  145MOL     C234850   2.359   6.688   0.321 -0.3118 -0.1275  0.7565
  145MOL     C334851   2.298   6.616   0.443 -0.5367  0.0954 -0.5323
  145MOL     C434852   2.412   6.574   0.236 -0.6052  0.1396 -0.3697
  145MOL     O534853   2.377   6.455   0.243  0.0050 -0.4838 -0.3138
  145MOL     O634854   2.500   6.621   0.141 -0.0250 -0.0765 -0.6415
  145MOL     H734855   2.300   6.822   0.171  1.0627  0.0461 -0.2434
  145MOL     H834856   2.208   6.829   0.323  1.1866  0.5506  0.5117
  145MOL     H934857   2.215   6.674   0.485 -0.0694  0.3986 -0.0114
  145MOL    H1034858   2.367   6.621   0.527  0.5852  1.2034 -1.4993
  145MOL    H1134859   2.255   6.520   0.416 -1.8248  1.0436 -1.9486
  145MOL    H1234860   2.515   6.546   0.086  0.8178 -1.3538  1.2524
  145MOL    H1334861   2.177   6.697   0.202  2.0499 -1.2376 -2.1499
  145MOL    C1434862   2.483   6.779   0.362  0.7242  0.0005  0.1765
  145MOL    C1534863   2.469   6.909   0.447  0.1722  0.2475  0.3314
  145MOL    C1634864   2.434   7.021   0.346  0.2444  0.3922 -0.1661
  145MOL    C1734865   2.375   6.893   0.563 -0.4173  0.0533  0.2100
  145MOL    O1834866   2.391   6.810   0.652 -0.1128 -0.1124 -0.5803
  145MOL    O1934867   2.262   6.965   0.549 -0.1529 -0.5203  0.2636
  145MOL    H2034868   2.547   6.707   0.413  0.4146 -0.7250 -0.4570
  145MOL    H2134869   2.544   6.802   0.274 -0.1845 -2.3938 -1.1179
  145MOL    H2234870   2.331   7.004   0.313  0.0998  1.7685 -0.4451
  145MOL    H2334871   2.501   7.011   0.261  0.7353  0.1387  0.2491
  145MOL    H2434872   2.438   7.122   0.387 -0.5698 -0.7253  2.8874
  145MOL    H2534873   2.191   6.943   0.607  0.7969 -1.4065  1.1183
  145MOL    C2634874   2.619   6.934   0.500 -0.5997 -0.1391 -0.2778
  145MOL    C2734875   2.672   7.076   0.547  0.7467 -0.4102 -0.0201
  145MOL    C2834876   2.809   7.032   0.627 -0.0400  0.1558 -0.2555
  145MOL    C2934877   2.716   7.169   0.428 -0.1778  0.0586 -0.1912
  145MOL    O3034878   2.822   7.151   0.374 -0.0701 -0.7350 -0.0174
  145MOL    O3134879   2.621   7.262   0.391 -0.2383  0.4774 -0.0278
  145MOL    H3234880   2.628   6.868   0.586 -0.6785 -0.3335 -0.4196
  145MOL    H3334881   2.690   6.895   0.427 -1.7940 -0.1835 -1.4370
  145MOL    H3434882   2.868   6.968   0.561 -2.1342 -1.5410 -0.5295
  145MOL    H3534883   2.781   6.975   0.716  0.6655  0.8818  0.4412
  145MOL    H3634884   2.863   7.124   0.650  0.2723  0.0044 -0.3817
  145MOL    H3734885   2.668   7.316   0.330  1.3929  0.0657  0.8307
  145MOL    C3834886   2.576   7.158   0.644  0.0925  0.0195  0.1525
  145MOL    C3934887   2.618   7.273   0.751  0.4047  0.5680  0.5286
  145MOL    C4034888   2.485   7.295   0.825 -0.1340 -0.6879  0.1252
  145MOL    C4134889   2.720   7.212   0.855  0.4533  0.4615  0.4898
  145MOL    O4234890   2.838   7.239   0.861 -0.5502 -0.0249  0.9789
  145MOL    O4334891   2.659   7.122   0.937 -0.4517  0.2844 -0.0931
  145MOL    H4434892   2.497   7.206   0.587  2.5181  2.9382 -0.8657
  145MOL    H4534893   2.520   7.079   0.695 -0.9151  0.8788  0.3776
  145MOL    H4634894   2.431   7.374   0.773  2.7616  1.1626 -0.1947
  145MOL    H4734895   2.493   7.327   0.929 -1.7147  1.5270 -0.4013
  145MOL    H4834896   2.414   7.212   0.826 -1.0370  0.0802  0.2431
  145MOL    H4934897   2.722   7.094   1.003 -1.2228  0.3106  0.6583
  145MOL    C5034898   2.670   7.402   0.681  0.4770 -0.4180 -0.4801
  145MOL    C5134899   2.712   7.535   0.760 -0.1331  0.2254  0.0238
  145MOL    C5234900   2.638   7.546   0.898 -0.2743 -0.5800 -0.4072
  145MOL    C5334901   2.861   7.521   0.799  0.0682 -0.3626 -0.0984
  145MOL    O5434902   2.903   7.559   0.910 -0.8273 -0.4541  0.5325
  145MOL    O5534903   2.942   7.457   0.721 -0.4464 -0.2357  0.1860
  145MOL    H5634904   2.746   7.369   0.610  0.1499  0.1346 -1.1015
  145MOL    H5734905   2.582   7.427   0.620 -0.4731 -1.3368  0.4887
  145MOL    H5834906   2.529   7.537   0.903 -0.3761  0.6059 -0.1576
  145MOL    H5934907   2.659   7.644   0.941  1.4090  0.1634 -2.8330
  145MOL    H6034908   2.674   7.469   0.966  2.1481  1.8775  1.2135
  145MOL    H6134909   3.027   7.435   0.756 -0.7982 -1.9266  0.0024
  145MOL    C6234910   2.683   7.667   0.680  0.2722 -0.4624  0.4353
  145MOL    C6334911   2.772   7.725   0.565  0.0756  0.4403  0.2986
  145MOL    C6434912   2.710   0.098   0.524 -0.3653  0.3966 -0.8859
  145MOL    C6534913   2.916   7.762   0.613 -0.9241  0.4105 -0.8728
  145MOL    O6634914   3.016   7.697   0.594  0.6372  0.0748 -0.5529
  145MOL    O6734915   2.915   0.103   0.694 -0.2132 -0.0565  0.2011
  145MOL    H6834916   2.581   7.680   0.644  1.0713 -0.6813 -2.0038
  145MOL    H6934917   2.702   7.733   0.765  1.3107 -0.0711 -0.1004
  145MOL    H7034918   2.769   0.176   0.474 -1.8705  2.9186  1.1565
  145MOL    H7134919   2.686   0.149   0.617  1.3474  0.1781 -0.3026
  145MOL    H7234920   2.615   0.096   0.469 -0.7511  1.7137 -0.2875
  145MOL    H7334921   3.000   0.128   0.726  1.0019 -2.3642 -1.0731
  145MOL    C7434922   2.774   7.624   0.439 -0.0461 -0.2216 -0.9918
  145MOL    C7534923   2.827   7.665   0.289 -0.2469 -0.0816 -0.2977
  145MOL    C7634924   2.961   7.730   0.308 -0.6481 -0.1842 -0.1306
  145MOL    C7734925   2.846   7.537   0.219  0.3174  0.2139  0.6094
  145MOL    O7834926   2.799   7.429   0.256  0.0183 -0.4969 -0.4297
  145MOL    O7934927   2.928   7.551   0.104 -0.7331 -0.3105  0.3757
  145MOL    H8034928   2.838   7.540   0.466  2.5182  2.0420  0.2528
  145MOL    H8134929   2.681   7.568   0.429 -0.1703  0.0136 -1.1727
  145MOL    H8234930   2.956   0.051   0.372  0.1924 -1.2901  1.5240
  145MOL    H8334931   3.011   7.748   0.213 -2.5885  1.2358 -0.9328
  145MOL    H8434932   3.028   7.659   0.357 -0.9067  0.2127  0.8171
  145MOL    H8534933   2.936   7.468   0.061  1.2376 -0.2437  0.5848
  145MOL    C8634934   2.739   7.758   0.201  0.6017 -0.1313 -0.3172
  145MOL    C8734935   2.604   7.713   0.132  0.0018  0.5318  0.0316
  145MOL    C8834936   2.554   0.080   0.071  0.2381  0.0869  0.5880
  145MOL    C8934937   2.634   7.618   0.005  0.5406 -0.4286 -0.5208
  145MOL    O9034938   2.590   7.502   7.760  0.3578  0.7273 -0.3976
  145MOL    O9134939   2.714   7.678   7.680 -0.0664  0.4849 -0.1996
  145MOL    H9234940   2.723   0.071   0.273  1.7832  0.7565 -1.0311
  145MOL    H9334941   2.798   0.023   0.115  0.0353 -0.7121 -0.9272
  145MOL    H9434942   2.523   0.145   0.153 -1.2496 -1.4053  1.2485
  145MOL    H9534943   2.474   0.060   7.767  1.8430 -1.5825 -0.7716
  145MOL    H9634944   2.626   0.139   0.014 -0.2946 -1.2079 -1.4744
  145MOL    H9734945   2.709   7.622   7.604 -1.4762 -1.2324  1.1275
  145MOL    C9834946   2.509   7.657   0.242 -0.7117 -0.3302 -0.2041
  145MOL    C9934947   2.355   7.668   0.235  1.0956 -0.1981 -0.1185
  145MOL   C10034948   2.310   0.053   0.232 -0.0621  0.2810  0.2784
  145MOL   C10134949   2.302   7.594   0.109 -0.0674  0.6159  0.3439
  145MOL   O10234950   2.243   7.647   0.013  0.0627 -0.2276  0.2212
  145MOL   O10334951   2.331   7.467   0.110 -0.5113 -0.1861 -0.0735
  145MOL   H10434952   2.542   7.553   0.248  0.1984 -0.1205 -1.2753
  145MOL   H10534953   2.535   7.712   0.332  0.7024  0.9568 -1.3663
  145MOL   H10634954   2.326   0.096   0.133  1.2431 -3.6013 -1.2867
  145MOL   H10734955   2.376   0.106   0.300  2.2629 -1.3774 -0.5999
  145MOL   H10834956   2.207   0.078   0.257 -0.1479  1.8467 -1.4777
  145MOL   H10934957   2.306   7.428   0.027 -1.4217 -0.6272  0.4000
  145MOL   C11034958   2.292   7.616   0.375 -0.3087 -0.2626  0.0324
  145MOL   C11134959   2.148   7.558   0.394  0.7925 -0.2567  0.1946
  145MOL   C11234960   2.048   7.652   0.322  0.2503 -0.6835  0.1718
  145MOL   C11334961   2.144   7.412   0.336  0.2395 -0.6682  0.1231
  145MOL   O11434962   2.207   7.323   0.389 -0.6005  0.9714  0.3697
  145MOL   O11534963   2.066   7.398   0.223  0.2960  0.6905  0.0853
  145MOL   H11634964   2.366   7.546   0.415  0.3403  0.4678  0.1225
  145MOL   H11734965   2.300   7.698   0.445 -1.8159  1.6554 -1.9609
  145MOL   H11834966   1.954   7.602   0.300 -0.2739 -1.4009  3.8008
  145MOL   H11934967   2.085   7.672   0.221 -1.2747 -2.4162 -0.7600
  145MOL   H12034968   2.036   7.742   0.381 -0.1413 -0.2637 -0.5449
  145MOL   H12134969   2.056   7.305   0.209 -0.9265  1.1393 -2.0920
  145MOL   C12234970   2.129   7.554   0.549 -0.5986  1.1490 -0.7518
  145MOL   C12334971   1.997   7.499   0.619 -0.0425 -0.3940  0.4348
  145MOL   C12434972   1.945   7.358   0.570 -0.3426  0.3634 -0.5686
  145MOL   C12534973   2.037   7.486   0.769 -0.1884  0.5681 -0.2258
  145MOL   O12634974   2.031   7.380   0.834 -0.4202  0.2659  0.3945
  145MOL   O12734975   2.081   7.598   0.825  0.3318 -0.0712 -0.2963
  145MOL   H12834976   2.214   7.496   0.585 -2.0517  0.4318  1.6760
  145MOL   H12934977   2.162   7.651   0.584  0.0951  1.7153 -2.9113
  145MOL   H13034978   2.022   7.281   0.563 -0.5106  0.2832 -1.5739
  145MOL   H13134979   1.878   7.367   0.484 -0.9058  3.2570  0.1400
  145MOL   H13234980   1.878   7.315   0.644  2.3480 -0.5593  1.4198
  145MOL   H13334981   2.103   7.585   0.916  2.2173 -1.4618 -0.9023
  145MOL   C13434982   1.888   7.609   0.584  0.6094  0.4064  0.5110
  145MOL   C13534983   1.755   7.644   0.666 -0.0944  0.7639 -0.1593
  145MOL   C13634984   1.679   7.513   0.699 -0.6176  0.0878  0.3946
  145MOL   C13734985   1.783   7.726   0.794  0.4781  1.0014  0.4187
  145MOL   O13834986   1.721   7.708   0.900  0.2662  0.6968  0.9177
  145MOL   O13934987   1.872   0.057   0.771 -0.6023  0.6380 -0.1556
  145MOL   H14034988   1.939   7.704   0.569  1.3733 -0.0020  0.5001
  145MOL   H14134989   1.851   7.585   0.484 -1.9639  0.6635  1.3517
  145MOL   H14234990   1.674   7.442   0.616 -2.3250 -0.6107  1.0641
  145MOL   H14334991   1.576   7.537   0.723 -0.4970  2.2652 -1.1570
  145MOL   H14434992   1.721   7.459   0.783  2.2672  2.2603  0.4226
  145MOL   H14534993   1.875   0.100   0.856  1.4180  0.0829  0.0673
  145MOL   C14634994   1.668   7.738   0.564  0.0485  0.1281 -0.1694
  145MOL   C14734995   1.515   7.757   0.543 -0.9873  0.3779 -1.0910
  145MOL   C14834996   1.500   0.117   0.454 -0.0779  0.0497  0.7114
  145MOL   C14934997   1.456   7.641   0.470 -0.6612 -0.0130 -0.5391
  145MOL   O15034998   1.518   7.540   0.436  0.8249  0.6083 -0.3582
  145MOL   O15134999   1.327   7.636   0.448  0.7787  0.2726 -0.0539
  145MOL   H15235000   1.701   0.072   0.587  0.6251  0.1951 -1.2855
  145MOL   H15335001   1.719   7.726   0.468  1.3048 -0.6822  0.5826
  145MOL   H15435002   1.397   0.130   0.419 -0.1395 -1.6936  0.1879
  145MOL   H15535003   1.553   0.117   0.359 -2.2196 -0.6617 -0.5373
  145MOL   H15635004   1.525   0.210   0.505 -0.8487 -0.1268  1.4427
  145MOL   H15735005   1.294   7.564   0.397 -0.3291 -0.2503  1.3444
  145MOL   C15835006   1.449   0.012   0.680  0.1862  0.0111  0.7587
  145MOL   C15935007   1.369   0.144   0.728  0.1312  0.2696 -0.1622
  145MOL   C16035008   1.330   0.124   0.877 -0.1069 -0.2556 -0.0794
  145MOL   C16135009   1.458   0.272   0.739 -0.4680 -0.5088 -0.0190
  145MOL   O16235010   1.424   0.386   0.713 -0.5373  0.3470  0.2715
  145MOL   O16335011   1.577   0.248   0.797 -0.3488 -0.0986 -0.1350
  145MOL   H16435012   1.369   7.705   0.680 -0.5012  0.6603 -2.4484
  145MOL   H16535013   1.513   7.737   0.758  3.7220  1.7950 -1.0617
  145MOL   H16635014   1.232   0.078   0.890 -0.1124 -0.6884 -1.5992
  145MOL   H16735015   1.330   0.211   0.942 -1.7709 -0.4400  0.1960
  145MOL   H16835016   1.403   0.055   0.920  0.6452  1.7215  1.8622
  145MOL   H16935017   1.607   0.336   0.811  0.3724 -0.2397 -0.7790
  145MOL   C17035018   1.248   0.180   0.631  0.3584  0.4176 -0.4233
  145MOL   C17135019   1.101   0.222   0.673 -0.7702  0.1741 -0.4029
  145MOL   C17235020   1.050   0.281   0.536 -0.7356 -0.7075  0.0946
  145MOL   C17335021   1.016   0.094   0.707 -0.2809 -0.8061 -0.6646
  145MOL   O17435022   1.063   7.745   0.720  0.3695 -0.9923  0.1293
  145MOL   O17535023   0.885   0.132   0.712  0.1824 -0.3247 -0.3622
  145MOL   H17635024   1.276   0.252   0.554  0.4661 -0.6081 -1.3725
  145MOL   H17735025   1.235   0.095   0.563 -2.5235  1.3162 -1.0792
  145MOL   H17835026   1.105   0.374   0.520 -0.3045 -0.7293  1.4129
  145MOL   H17935027   0.950   0.323   0.535 -0.8601 -1.0147 -0.7332
  145MOL   H18035028   1.071   0.219   0.448  1.6896  2.7927 -1.9443
  145MOL   H18135029   0.835   0.051   0.719 -2.1707  0.9850 -1.4135
  145MOL   C18235030   1.095   0.335   0.785 -0.4220 -0.0927  1.2645
  145MOL   C18335031   0.979   0.397   0.864  0.2378 -0.0186 -0.5207
  145MOL   C18435032   0.860   0.434   0.770  0.6514 -0.3935  0.0555
  145MOL   C18535033   0.919   0.297   0.967  0.1757  0.4374  0.0571
  145MOL   O18635034   0.969   0.185   0.982 -0.8073  0.6832  0.3325
  145MOL   O18735035   0.811   0.346   1.037  0.4637  0.1740 -0.5051
  145MOL   H18835036   1.160   0.313   0.870  0.0768  0.7145  1.0980
  145MOL   H18935037   1.154   0.417   0.743 -0.8879 -0.1744  0.4391
  145MOL   H19035038   0.779   0.487   0.820  1.3450  1.3941 -0.6957
  145MOL   H19135039   0.799   0.355   0.726  2.2481  0.3664 -3.7563
  145MOL   H19235040   0.883   0.498   0.685 -2.1391  0.8313  0.1757
  145MOL   H19335041   0.801   0.287   1.111 -1.3374 -0.4449 -1.2110
  145MOL   C19435042   1.024   0.534   0.923 -0.4746 -0.3900  0.2603
  145MOL   C19535043   1.139   0.559   1.033  0.4166 -0.1075  0.1199
  145MOL   C19635044   1.150   0.431   1.133 -0.3939 -0.4473  0.6580
  145MOL   C19735045   1.274   0.557   0.949  0.0078 -0.3473 -0.7297
  145MOL   O19835046   1.369   0.479   0.973 -0.4263  0.1759 -0.2952
  145MOL   O19935047   1.292   0.664   0.869  0.0410  0.3519  0.0724
  145MOL   H20035048   1.035   0.604   0.840 -1.0231 -1.0138 -0.3401
  145MOL   H20135049   0.930   0.570   0.965  0.2160 -2.0094  3.3501
  145MOL   H20235050   1.153   0.332   1.086  0.4783 -0.8475  1.5381
  145MOL   H20335051   1.081   0.431   1.217  0.1820 -0.7112  1.1287
  145MOL   H20435052   1.246   0.432   1.184  1.9704  1.7074 -3.5054
  145MOL   H20535053   1.378   0.656   0.831 -0.7055 -0.5060 -1.5010
  145MOL   C20635054   1.102   0.692   1.100  0.2785 -0.4058  0.0527
  145MOL   C20735055   1.177   0.745   1.222 -0.4128 -0.0435  0.0364
  145MOL   C20835056   1.324   0.774   1.176 -0.5661  0.1107  0.1640
  145MOL   C20935057   1.108   0.882   1.247 -0.4582  0.3020 -0.8274
  145MOL   O21035058   1.161   0.996   1.232  0.4075 -0.1882  0.7766
  145MOL   O21135059   0.982   0.860   1.288 -0.3337  0.5131 -0.2830
  145MOL   H21235060   1.114   0.765   1.020  0.5205 -0.0170  0.4390
  145MOL   H21335061   0.995   0.693   1.121  0.5082 -0.8095  1.3057
  145MOL   H21435062   1.380   0.853   1.226 -1.7902  0.4956  0.9575
  145MOL   H21535063   1.317   0.825   1.080  3.9851 -2.6266 -1.7510
  145MOL   H21635064   1.382   0.682   1.171  1.1167  1.1798 -0.0007
  145MOL   H21735065   0.940   0.941   1.262 -2.6394 -0.5662 -0.0817
  145MOL   C21835066   1.161   0.646   1.346  0.4096  0.5080  0.1658
  145MOL   C21935067   1.190   0.680   1.500 -0.5747  0.6517 -0.4211
  145MOL   C22035068   1.246   0.551   1.565  0.8586  0.3854  0.1623
  145MOL   C22135069   1.296   0.784   1.515  0.5382 -0.2325  0.2414
  145MOL   O22235070   1.284   0.892   1.576  0.2087  0.1578 -0.1051
  145MOL   O22335071   1.418   0.739   1.460 -0.1894  0.1611  0.3176
  145MOL   H22435072   1.063   0.599   1.336 -0.4856  2.4316 -0.4280
  145MOL   H22535073   1.240   0.574   1.325  0.0029 -0.0006  0.3456
  145MOL   H22635074   1.334   0.523   1.507  0.0002 -0.0918 -0.9283
  145MOL   H22735075   1.175   0.469   1.553  0.7034  0.5521 -0.0861
  145MOL   H22835076   1.266   0.573   1.669 -0.6299  1.6390  0.2215
  145MOL   H22935077   1.487   0.803   1.458  1.3131 -1.4266 -0.3346
  145MOL   C23035078   1.056   0.711   1.568  0.2709  0.2339 -0.3029
  145MOL   C23135079   0.941   0.607   1.560 -0.3438  0.2699 -0.4602
  145MOL   C23235080   0.904   0.534   1.694 -0.1444  0.0940  0.3513
  145MOL   C23335081   0.809   0.657   1.501 -0.4468 -1.3799  0.3482
  145MOL   O23435082   0.762   0.773   1.514 -0.4705 -0.1790 -0.3419
  145MOL   O23535083   0.740   0.560   1.431 -0.5426  0.0278 -0.2118
  145MOL   H23635084   1.082   0.726   1.673  1.0865  1.4807 -0.6600
  145MOL   H23735085   1.028   0.809   1.529 -0.8513  0.8659  2.0086
  145MOL   H23835086   0.990   0.475   1.726 -0.3306 -0.2142  0.2908
  145MOL   H23935087   0.816   0.470   1.682 -0.2619  0.5159 -1.1482
  145MOL   H24035088   0.886   0.610   1.770  1.3641  1.2192 -0.3924
  145MOL   H24135089   0.652   0.592   1.420 -1.0970  0.2832  4.0565
  145MOL   H24235090   0.971   0.516   1.509 -0.4776  0.6839 -1.2832
  146MOL     C135091   3.128   6.616   6.095 -0.1175 -0.5321  0.4154
  146MOL     C235092   3.062   6.739   6.025  0.0559  0.4723  0.3969
  146MOL     C335093   3.075   6.713   5.866  0.1051  0.0214 -0.5058
  146MOL     C435094   2.911   6.747   6.068  0.1899  0.9035 -0.0427
  146MOL     O535095   2.854   6.667   6.142  1.2567  0.0360 -0.4286
  146MOL     O635096   2.837   6.845   6.007 -0.2192 -0.0174 -0.5736
  146MOL     H735097   3.234   6.609   6.071  0.1396  0.0198  1.3449
  146MOL     H835098   3.077   6.527   6.058  0.6566 -1.4739  1.5768
  146MOL     H935099   3.040   6.797   5.807 -1.1388  0.6405  1.0603
  146MOL    H1035100   3.021   6.624   5.836  0.6772  0.1691 -1.9924
  146MOL    H1135101   3.180   6.687   5.849  1.0603  1.5322  2.6142
  146MOL    H1235102   2.753   6.852   6.049  0.2652 -0.6852  0.5096
  146MOL    H1335103   3.109   6.609   6.203 -1.5572 -0.0054  0.2091
  146MOL    C1435104   3.138   6.878   6.055  0.3769 -0.3372 -0.4246
  146MOL    C1535105   3.143   6.955   6.187 -0.5880 -0.9498 -0.8685
  146MOL    C1635106   3.267   7.044   6.163  0.2978  0.2001  0.1670
  146MOL    C1735107   3.026   7.058   6.205  0.4096  0.1683 -0.3653
  146MOL    O1835108   3.033   7.179   6.175  0.2998 -0.3395 -0.0602
  146MOL    O1935109   2.919   7.000   6.275 -0.1458  0.0623 -0.2107
  146MOL    H2035110   3.239   6.850   6.027  0.3560 -1.0137  0.1424
  146MOL    H2135111   3.109   6.949   5.978  1.0335  1.7855  1.2325
  146MOL    H2235112   3.361   6.988   6.163  0.9601  1.2853 -1.6949
  146MOL    H2335113   3.270   7.122   6.239 -1.2464 -2.1382  2.7316
  146MOL    H2435114   3.259   7.090   6.065  2.0879  0.3656  0.0790
  146MOL    H2535115   2.866   7.077   6.289 -0.6749 -0.6528  2.0443
  146MOL    C2635116   3.162   6.864   6.317  0.1246  0.3885 -0.3802
  146MOL    C2735117   3.228   6.904   6.458  0.9378 -0.3456  0.0894
  146MOL    C2835118   3.184   6.795   6.565 -0.6701 -0.0836  1.3035
  146MOL    C2935119   3.380   6.895   6.438 -0.1105 -0.0606  0.4816
  146MOL    O3035120   3.451   6.992   6.412 -0.1260  0.4798 -0.0074
  146MOL    O3135121   3.420   6.771   6.450  0.1288 -0.3160  0.1713
  146MOL    H3235122   3.075   6.799   6.324 -1.3347  2.4885  1.4671
  146MOL    H3335123   3.230   6.790   6.272 -0.0311 -0.0685  0.1325
  146MOL    H3435124   3.212   6.694   6.537  1.1040  0.6681  0.2407
  146MOL    H3535125   3.078   6.802   6.590 -1.3046 -2.3719 -0.6523
  146MOL    H3635126   3.237   6.805   6.660 -0.5055 -0.1754  1.2205
  146MOL    H3735127   3.511   6.765   6.426  0.4831 -0.1543  1.4450
  146MOL    C3835128   3.169   7.051   6.500 -0.2691  0.2736 -0.0289
  146MOL    C3935129   3.171   7.119   6.643 -0.3871 -0.0196 -0.6479
  146MOL    C4035130   3.050   7.058   6.721 -0.0220 -0.3221 -0.3535
  146MOL    C4135131   3.305   7.075   6.713  0.2138  0.1294  0.1243
  146MOL    O4235132   3.317   6.989   6.800  0.1031  0.1356  0.1271
  146MOL    O4335133   3.413   7.145   6.665  0.2296  0.1285  0.1340
  146MOL    H4435134   3.225   7.119   6.436  0.3722 -1.3387 -1.2135
  146MOL    H4535135   3.063   7.041   6.475  0.1725  0.2579 -1.9645
  146MOL    H4635136   3.067   6.959   6.763  0.7332  1.3568  3.4897
  146MOL    H4735137   2.945   7.067   6.691 -0.0421 -1.0115 -0.5152
  146MOL    H4835138   3.055   7.122   6.808 -1.6246 -0.4294 -0.1602
  146MOL    H4935139   3.489   7.095   6.688  0.4538 -0.2744 -1.4613
  146MOL    C5035140   3.179   7.275   6.632  0.3021  0.0774  0.1760
  146MOL    C5135141   3.054   7.368   6.605  0.6978  0.2885 -0.0650
  146MOL    C5235142   3.117   7.506   6.587 -0.4459 -0.1884 -0.3787
  146MOL    C5335143   3.005   7.316   6.468 -0.8007 -0.7281 -0.6903
  146MOL    O5435144   2.893   7.267   6.453  0.1887  0.1299  0.0330
  146MOL    O5535145   3.098   7.340   6.369  0.0012 -0.3418  0.0865
  146MOL    H5635146   3.217   7.316   6.726 -0.9276 -0.2352  0.8179
  146MOL    H5735147   3.262   7.297   6.564 -0.3936 -3.1523 -1.8243
  146MOL    H5835148   3.198   7.509   6.514 -0.5522 -0.9363 -0.5261
  146MOL    H5935149   3.167   7.550   6.673  1.1554 -0.9115 -0.9319
  146MOL    H6035150   3.041   7.576   6.550  0.6226  1.4575  0.4692
  146MOL    H6135151   3.070   7.293   6.292  2.1291 -4.3458  1.6070
  146MOL    C6235152   2.943   7.357   6.721 -0.2432  0.4515  0.7139
  146MOL    C6335153   2.850   7.475   6.762 -0.2008 -0.2294  0.4001
  146MOL    C6435154   2.936   7.579   6.848  0.4416  0.7398  0.4470
  146MOL    C6535155   2.783   7.541   6.646  0.1366 -0.3829 -0.2504
  146MOL    O6635156   2.781   7.664   6.632  0.2547 -0.3018 -0.5299
  146MOL    O6735157   2.723   7.450   6.575 -0.2817  0.3798  0.3929
  146MOL    H6835158   2.876   7.275   6.695  1.0212 -0.4925  0.3497
  146MOL    H6935159   2.993   7.321   6.811  1.0849  1.8471  0.5562
  146MOL    H7035160   2.987   7.643   6.775  0.2315 -0.5630 -0.8496
  146MOL    H7135161   3.016   7.524   6.898  0.8490  0.4219 -0.5481
  146MOL    H7235162   2.873   7.643   6.910 -0.9956  2.1155 -2.3302
  146MOL    H7335163   2.746   7.368   6.617 -0.2387  1.0477  1.7198
  146MOL    C7435164   2.752   7.423   6.879  0.3327 -0.0590 -0.3255
  146MOL    C7535165   2.595   7.419   6.867 -0.0584 -0.4187  0.1671
  146MOL    C7635166   2.541   7.564   6.840  0.3672 -0.5571 -0.7456
  146MOL    C7735167   2.540   7.324   6.757 -0.1441 -0.0991 -0.1640
  146MOL    O7835168   2.614   7.239   6.709 -0.0221 -0.1976 -0.9081
  146MOL    O7935169   2.409   7.347   6.719  0.1295 -0.2536 -0.5795
  146MOL    H8035170   2.786   7.322   6.902 -2.7281 -0.5768  2.2739
  146MOL    H8135171   2.770   7.473   6.975  0.7103  0.2477 -0.5531
  146MOL    H8235172   2.589   7.644   6.897 -1.0366  0.9202 -1.5910
  146MOL    H8335173   2.436   7.575   6.865  0.9046  0.4727  1.1794
  146MOL    H8435174   2.544   7.594   6.735 -3.2512  0.6646 -0.5704
  146MOL    H8535175   2.383   7.292   6.647 -0.5408  0.9867 -1.3018
  146MOL    C8635176   2.528   7.380   7.002  0.7175  1.0767 -0.1603
  146MOL    C8735177   2.547   7.261   7.101 -0.3177 -0.3339  0.8684
  146MOL    C8835178   2.434   7.268   7.205  0.4426  0.1757  0.1558
  146MOL    C8935179   2.526   7.128   7.025 -0.4823 -0.1812 -0.1841
  146MOL    O9035180   2.414   7.093   6.997 -0.0471  0.2058  1.0049
  146MOL    O9135181   2.646   7.058   7.001 -0.3191 -0.6282  0.0612
  146MOL    H9235182   2.540   7.467   7.066  1.4434 -0.2752  1.5867
  146MOL    H9335183   2.420   7.384   6.989  0.3731 -1.5347  1.5411
  146MOL    H9435184   2.440   7.183   7.272  0.6413 -0.7523 -1.0150
  146MOL    H9535185   2.341   7.255   7.150 -1.0364 -0.3752  2.6965
  146MOL    H9635186   2.423   7.357   7.267 -1.6078  0.9875 -1.3146
  146MOL    H9735187   2.634   6.978   6.952 -0.2106 -0.5126 -0.1584
  146MOL    C9835188   2.692   7.273   7.168 -0.5082  0.8045 -0.3320
  146MOL    C9935189   2.731   7.368   7.289 -0.3004 -0.1138 -0.0823
  146MOL   C10035190   2.698   7.517   7.258  0.8188 -0.0402 -0.3373
  146MOL   C10135191   2.662   7.319   7.424  0.0627  0.2263 -0.1866
  146MOL   O10235192   2.643   7.200   7.445  0.1995 -0.0290  0.1990
  146MOL   O10335193   2.626   7.423   7.506 -0.1407  0.4384 -0.0901
  146MOL   H10435194   2.722   7.175   7.205  1.9234  0.9906 -1.7299
  146MOL   H10535195   2.762   7.282   7.085  0.6040  0.5895  0.5795
  146MOL   H10635196   2.754   7.557   7.174  0.1775 -0.3848 -0.9362
  146MOL   H10735197   2.720   7.574   7.349  1.3034 -1.5445  0.5101
  146MOL   H10835198   2.591   7.534   7.244  0.6903  0.1557  0.8136
  146MOL   H10935199   2.587   7.406   7.590 -0.0287  0.4506 -0.0357
  146MOL   C11035200   2.888   7.348   7.292  0.8388 -0.0489 -0.6302
  146MOL   C11135201   2.993   7.402   7.401 -0.0882  0.3915  0.1155
  146MOL   C11235202   2.989   7.557   7.411 -0.0363 -0.1377  0.2510
  146MOL   C11335203   2.973   7.330   7.537 -0.0060 -0.3465  0.3568
  146MOL   O11435204   2.966   7.385   7.647 -0.8014 -0.0083 -0.1104
  146MOL   O11535205   2.949   7.196   7.528 -0.5496  0.0125  0.3521
  146MOL   H11635206   2.898   7.239   7.296  0.0882 -0.0751  1.1795
  146MOL   H11735207   2.922   7.388   7.197 -1.2435 -1.8334 -2.1812
  146MOL   H11835208   2.916   7.589   7.485 -1.9417 -3.0072 -0.3129
  146MOL   H11935209   2.961   7.602   7.317 -1.5908 -0.4151  0.5752
  146MOL   H12035210   3.075   7.601   7.462 -0.3636  1.4040 -0.5006
  146MOL   H12135211   2.927   7.156   7.611  0.0471 -0.8033  0.1185
  146MOL   C12235212   3.124   7.368   7.331 -0.2684  0.0436 -0.2968
  146MOL   C12335213   3.271   7.356   7.392 -0.0293  0.5671  1.0182
  146MOL   C12435214   3.306   7.493   7.459 -0.2667  0.2244  0.3878
  146MOL   C12535215   3.283   7.249   7.502  0.1913  0.2461 -0.1319
  146MOL   O12635216   3.345   7.265   7.605 -0.0474  0.0191  0.2758
  146MOL   O12735217   3.216   7.131   7.473 -0.7107  0.4299 -0.0639
  146MOL   H12835218   3.107   7.275   7.277 -2.4458  0.5608 -0.5732
  146MOL   H12935219   3.137   7.443   7.254  1.7182 -1.5353 -1.5501
  146MOL   H13035220   3.272   7.561   7.382 -2.8131  0.5752  1.7606
  146MOL   H13135221   3.411   7.514   7.479  0.1212 -1.1368 -0.1252
  146MOL   H13235222   3.246   7.501   7.550  0.5038 -1.0738  1.0274
  146MOL   H13335223   3.232   7.062   7.535  0.2559  0.0519 -0.7080
  146MOL   C13435224   3.388   7.350   7.278  0.4662 -0.4518  0.0595
  146MOL   C13535225   3.365   7.254   7.152  0.3125 -0.3530  0.0394
  146MOL   C13635226   3.333   7.110   7.195 -0.2829  0.8200 -0.0430
  146MOL   C13735227   3.265   7.309   7.054 -0.1638 -0.5589  0.1597
  146MOL   O13835228   3.254   7.422   7.029  0.3822 -0.4743 -0.0649
  146MOL   O13935229   3.179   7.213   7.011 -0.2295  0.3002 -0.2757
  146MOL   H14035230   3.400   7.447   7.231  3.4198 -1.1786 -0.7606
  146MOL   H14135231   3.481   7.333   7.332  0.7954  2.4451  0.4461
  146MOL   H14235232   3.356   7.040   7.114  0.8571  1.8829 -0.6449
  146MOL   H14335233   3.229   7.090   7.222  0.3188 -3.4074 -0.6019
  146MOL   H14435234   3.389   7.075   7.281  0.7912  1.0603 -0.6433
  146MOL   H14535235   3.204   7.130   7.049  0.5595  1.0904  0.9486
  146MOL   C14635236   3.497   7.223   7.069 -0.3773 -0.0751  1.5240
  146MOL   C14735237   3.611   7.327   7.046  0.7062  0.1313  0.2296
  146MOL   C14835238   3.557   7.454   6.979 -0.4422 -0.7039 -0.0108
  146MOL   C14935239   3.697   7.360   7.171 -0.1049  0.7474  0.3210
  146MOL   O15035240   3.726   7.269   7.250 -0.4451  0.1363 -0.0891
  146MOL   O15135241   3.741   7.486   7.180  0.3576  0.1562  0.4656
  146MOL   H15235242   3.549   7.145   7.124  0.2058  0.8414  2.2942
  146MOL   H15335243   3.480   7.180   6.971  0.8007  1.1877  0.7607
  146MOL   H15435244   3.497   7.419   6.895  0.9515  0.7343 -1.6474
  146MOL   H15535245   3.631   7.525   6.943  0.4575 -0.5024  2.1886
  146MOL   H15635246   3.490   7.505   7.047  0.3323 -2.6912  2.3241
  146MOL   H15735247   3.784   7.503   7.262  1.0294 -1.9691  0.5793
  146MOL   C15835248   3.696   7.253   6.935  0.1841  0.3033  0.0410
  146MOL   C15935249   3.834   7.292   6.870  0.0207  0.3241  0.1357
  146MOL   C16035250   3.843   7.442   6.831 -0.2188 -0.3453 -0.9521
  146MOL   C16135251   3.949   7.275   6.970  0.7027  0.5133  0.3960
  146MOL   O16235252   4.056   7.333   6.958 -0.3279 -0.3546 -0.2287
  146MOL   O16335253   3.931   7.178   7.067 -0.4439  0.3198  0.6304
  146MOL   H16435254   3.721   7.151   6.965 -1.1350  0.6259  2.2793
  146MOL   H16535255   3.634   7.256   6.845  1.2559  0.6640 -0.7064
  146MOL   H16635256   3.753   7.463   6.772 -0.2810  0.1361 -0.6882
  146MOL   H16735257   3.929   7.473   6.772  2.7584 -2.2399  2.2547
  146MOL   H16835258   3.833   7.498   6.923 -0.5542  0.5980 -1.5548
  146MOL   H16935259   4.005   7.161   7.123 -0.4524 -0.3420  0.4472
  146MOL   C17035260   3.853   7.221   6.728 -0.5310 -0.3082 -1.4820
  146MOL   C17135261   3.876   7.068   6.707 -0.6810 -0.3647 -0.4507
  146MOL   C17235262   4.003   7.013   6.775 -0.5409  0.4116 -0.1823
  146MOL   C17335263   3.745   6.995   6.758 -0.3886 -0.6227  0.1573
  146MOL   O17435264   3.637   7.023   6.718  0.4557 -0.2504  0.5693
  146MOL   O17535265   3.771   6.895   6.847 -0.0695  0.1929  0.3079
  146MOL   H17635266   3.769   7.231   6.660  0.4014 -1.3171 -2.8070
  146MOL   H17735267   3.934   7.275   6.680  0.1764  0.9339  1.0009
  146MOL   H17835268   4.015   6.906   6.760 -0.1761  0.6625 -1.7622
  146MOL   H17935269   3.996   7.024   6.883  2.2912  0.0183  0.0992
  146MOL   H18035270   4.091   7.065   6.735 -1.6345  1.4442 -1.2870
  146MOL   H18135271   3.685   6.857   6.840 -0.5254  1.5842 -2.1931
  146MOL   C18235272   3.875   7.040   6.553 -0.2896  0.4364 -0.0164
  146MOL   C18335273   3.936   6.914   6.481 -0.1023 -0.8351 -0.0001
  146MOL   C18435274   4.093   6.924   6.490  0.9112  0.4094 -0.1870
  146MOL   C18535275   3.891   6.779   6.549 -1.0980 -0.0616 -0.3672
  146MOL   O18635276   3.975   6.704   6.592  0.1134 -0.6562  0.3346
  146MOL   O18735277   3.762   6.753   6.558  0.2375 -0.4612  0.2934
  146MOL   H18835278   3.783   7.069   6.503  0.2014  1.5814 -0.2624
  146MOL   H18935279   3.942   7.118   6.515  0.0530  1.3457  2.3588
  146MOL   H19035280   4.125   6.916   6.594 -0.7884  1.8752  0.4806
  146MOL   H19135281   4.130   7.025   6.471 -0.1542  1.2137  1.8185
  146MOL   H19235282   4.151   6.854   6.430  3.5708  0.9729  1.6153
  146MOL   H19335283   3.767   6.664   6.588  0.0860 -0.2667  0.8895
  146MOL   C19435284   3.876   6.909   6.334 -0.3437  0.0027  0.1867
  146MOL   C19535285   3.951   6.843   6.206  0.1929 -0.2610 -0.1918
  146MOL   C19635286   4.048   6.943   6.145  0.2747  0.2960 -0.0438
  146MOL   C19735287   4.029   6.713   6.243  0.1676 -0.2255 -0.1619
  146MOL   O19835288   4.148   6.702   6.214  0.6195 -0.0283  0.5479
  146MOL   O19935289   3.954   6.610   6.285 -0.1395  0.6284  0.2154
  146MOL   H20035290   3.778   6.862   6.337 -0.2585 -0.2259 -0.4453
  146MOL   H20135291   3.842   7.010   6.312  0.2987 -0.1839 -1.7237
  146MOL   H20235292   4.113   6.966   6.229  0.4130 -1.3685  0.3197
  146MOL   H20335293   4.008   7.034   6.101 -2.6319 -0.4819  0.8615
  146MOL   H20435294   4.100   6.889   6.066 -0.8754  0.9421 -1.2598
  146MOL   H20535295   4.015   6.538   6.289 -0.5279  0.1726 -1.3596
  146MOL   C20635296   3.845   6.808   6.098  0.3426  1.0231 -0.1611
  146MOL   C20735297   3.756   6.897   6.005 -0.5518 -0.3010 -0.9098
  146MOL   C20835298   3.691   6.998   6.104 -0.2921  0.7470  0.0186
  146MOL   C20935299   3.837   6.969   5.894 -0.1272  0.4127 -0.3203
  146MOL   O21035300   3.827   7.094   5.875 -0.0908 -0.1064  0.8009
  146MOL   O21135301   3.919   6.888   5.827  0.2359 -0.3927  0.8481
  146MOL   H21235302   3.905   6.750   6.027 -0.4025  1.1938 -0.9283
  146MOL   H21335303   3.783   6.736   6.150  0.2790  1.0030 -0.2651
  146MOL   H21435304   3.622   7.060   6.047  3.3784  0.9142 -4.5501
  146MOL   H21535305   3.760   7.077   6.137 -0.8603  0.5803  1.6592
  146MOL   H21635306   3.653   6.937   6.186  0.2525  0.1886 -0.1454
  146MOL   H21735307   3.960   6.940   5.761  1.0291  1.4527  2.7360
  146MOL   C21835308   3.633   6.822   5.948 -0.8080 -0.0741  0.1057
  146MOL   C21935309   3.629   6.716   5.833 -0.1404 -0.1579  0.5811
  146MOL   C22035310   3.650   6.787   5.693 -0.2330  0.4717  0.4384
  146MOL   C22135311   3.743   6.613   5.853  0.2279 -0.1626  0.0595
  146MOL   O22235312   3.826   6.574   5.764 -0.0173 -0.6756  0.2472
  146MOL   O22335313   3.739   6.553   5.977  0.0747  0.3700  0.1516
  146MOL   H22435314   3.590   6.766   6.031  0.2033  0.6625  1.1315
  146MOL   H22535315   3.556   6.896   5.926  0.3804  1.5096  1.1626
  146MOL   H22635316   3.655   6.706   5.621  2.2700  1.5092 -0.5942
  146MOL   H22735317   3.734   6.853   5.674  0.8705 -0.7750  0.9351
  146MOL   H22835318   3.558   6.841   5.668 -0.1841  0.6049  0.5444
  146MOL   H22935319   3.815   6.498   5.965 -0.8060 -1.4333  2.4750
  146MOL   C23035320   3.487   6.642   5.822 -0.4580 -0.0557 -0.1936
  146MOL   C23135321   3.463   6.529   5.722 -0.7013  0.1400 -0.1250
  146MOL   C23235322   3.387   6.411   5.784 -0.6399  0.1175 -0.1139
  146MOL   C23335323   3.382   6.581   5.605  0.3029  0.3315  0.0331
  146MOL   O23435324   3.341   6.692   5.589 -0.5261  0.0032  0.2797
  146MOL   O23535325   3.349   6.483   5.513 -0.2592  0.5295 -0.5549
  146MOL   H23635326   3.470   6.595   5.919  0.2690  0.1061  0.0132
  146MOL   H23735327   3.410   6.718   5.833 -0.6080 -0.3768  1.0132
  146MOL   H23835328   3.427   6.384   5.882 -1.5614  1.7179  0.7232
  146MOL   H23935329   3.382   6.320   5.724  0.9505  0.5685 -0.9446
  146MOL   H24035330   3.282   6.437   5.801 -0.6545 -0.1426  0.2065
  146MOL   H24135331   3.298   6.519   5.442 -1.4511  0.3018  0.1664
  146MOL   H24235332   3.554   6.487   5.679 -0.2747 -1.2680  2.1143
  147MOL     C135333   4.615   0.703   6.645 -0.1423  0.4845  0.2285
  147MOL     C235334   4.593   0.684   6.494 -0.6814  0.0319 -0.3576
  147MOL     C335335   4.734   0.704   6.423 -0.1254 -0.8396  0.7937
  147MOL     C435336   4.543   0.534   6.467  0.3376 -0.6146  0.2590
  147MOL     O535337   4.613   0.448   6.420  0.5452  0.8837 -0.3456
  147MOL     O635338   4.415   0.512   6.510  0.4550  0.0407  0.0048
  147MOL     H735339   4.640   0.607   6.691 -0.5333  1.1835  1.9341
  147MOL     H835340   4.528   0.743   6.697 -0.7186 -1.5643  0.9016
  147MOL     H935341   4.802   0.779   6.463 -1.3757  0.1082  1.1756
  147MOL    H1035342   4.713   0.737   6.321 -1.5118  0.0088  1.3335
  147MOL    H1135343   4.794   0.614   6.414  0.0901 -0.4525 -1.8827
  147MOL    H1235344   4.406   0.418   6.498 -1.0529 -0.0984  1.8942
  147MOL    H1335345   4.705   0.763   6.658  0.3836  0.0669 -1.3562
  147MOL    C1435346   4.484   0.784   6.432 -0.3448  0.4660 -0.1933
  147MOL    C1535347   4.499   0.942   6.426  0.4780  0.1310  0.3335
  147MOL    C1635348   4.520   0.998   6.572 -0.0039  0.2071 -0.2733
  147MOL    C1735349   4.614   0.991   6.340 -0.2528 -0.0241 -0.1074
  147MOL    O1835350   4.696   1.073   6.373  0.2585  0.3399  0.0687
  147MOL    O1935351   4.599   0.943   6.218  0.3729  0.3945 -0.2531
  147MOL    H2035352   4.453   0.746   6.335  3.1656  1.6405 -1.8617
  147MOL    H2135353   4.390   0.758   6.481 -0.8657  0.3218 -1.2512
  147MOL    H2235354   4.524   1.107   6.583  2.0095  0.1831 -0.5875
  147MOL    H2335355   4.609   0.968   6.627 -0.0464  2.3735  1.0404
  147MOL    H2435356   4.435   0.963   6.630  0.2727  0.5279  0.3264
  147MOL    H2535357   4.663   0.979   6.158  1.0505  1.0047  0.8288
  147MOL    C2635358   4.361   1.011   6.390 -0.5049  0.5867 -0.1286
  147MOL    C2735359   4.332   1.150   6.319 -0.4671 -0.1156 -0.1297
  147MOL    C2835360   4.180   1.151   6.313 -0.6030  0.4987  0.5913
  147MOL    C2935361   4.379   1.262   6.412 -0.5708 -0.1363  0.0713
  147MOL    O3035362   4.481   1.324   6.401  0.5170 -0.5143  0.0963
  147MOL    O3135363   4.296   1.267   6.514  0.0488  0.4257  0.0393
  147MOL    H3235364   4.311   0.933   6.332  2.0898  0.2602 -2.0019
  147MOL    H3335365   4.298   0.991   6.477 -1.5452  1.2621 -0.7231
  147MOL    H3435366   4.135   1.083   6.241  1.7045 -1.9864  1.4169
  147MOL    H3535367   4.117   1.240   6.308 -4.7571 -2.3142 -0.3085
  147MOL    H3635368   4.134   1.106   6.402  1.7599 -1.1032  1.0486
  147MOL    H3735369   4.343   1.326   6.571 -1.2074  0.6362  0.8856
  147MOL    C3835370   4.394   1.168   6.178  0.3087  0.2181 -0.5774
  147MOL    C3935371   4.334   1.276   6.067 -0.2004 -0.1630 -0.9698
  147MOL    C4035372   4.203   1.219   6.013 -0.6916  0.2127 -0.4207
  147MOL    C4135373   4.308   1.415   6.139  0.1646  0.1896  0.8065
  147MOL    O4235374   4.197   1.457   6.171  0.2654  0.3144  0.6014
  147MOL    O4335375   4.419   1.481   6.166  0.5712 -0.3745  0.0154
  147MOL    H4435376   4.500   1.192   6.192  0.3531 -1.2360  1.9667
  147MOL    H4535377   4.404   1.074   6.124  5.0940 -0.9120  1.9289
  147MOL    H4635378   4.226   1.116   5.986 -0.8996  0.1912 -0.5194
  147MOL    H4735379   4.162   1.270   5.926 -0.8913  0.5588 -0.1235
  147MOL    H4835380   4.125   1.201   6.087 -0.4074 -2.2236 -0.6750
  147MOL    H4935381   4.406   1.554   6.226 -1.5779  1.3721 -2.4391
  147MOL    C5035382   4.447   1.289   5.961 -0.8607 -0.6375  0.2816
  147MOL    C5135383   4.429   1.355   5.819 -0.2520  0.1459 -0.1836
  147MOL    C5235384   4.574   1.376   5.774 -0.0623  0.4883  0.4118
  147MOL    C5335385   4.365   1.245   5.733 -1.0445  0.0709 -0.0684
  147MOL    O5435386   4.429   1.143   5.700  0.2456  0.3089 -0.3858
  147MOL    O5535387   4.233   1.258   5.709 -0.0722 -0.8229 -0.4107
  147MOL    H5635388   4.524   1.345   6.013  0.6981 -1.3506 -1.2347
  147MOL    H5735389   4.498   1.193   5.959  0.5772  0.1295 -1.0762
  147MOL    H5835390   4.632   1.446   5.835 -0.1833  0.7935  0.1803
  147MOL    H5935391   4.582   1.420   5.675  0.2725  1.3481  0.8123
  147MOL    H6035392   4.632   1.285   5.760 -0.2928  0.5087 -0.7335
  147MOL    H6135393   4.201   1.186   5.655  1.0403 -1.2694 -0.4860
  147MOL    C6235394   4.342   1.483   5.805  0.1207  0.7049 -0.7072
  147MOL    C6335395   4.333   1.578   5.677 -0.7782  0.2444 -0.8281
  147MOL    C6435396   4.350   1.506   5.533  0.2600  0.0868 -0.1712
  147MOL    C6535397   4.195   1.651   5.678 -0.5448  0.1595  0.3246
  147MOL    O6635398   4.107   1.628   5.591 -0.5404  0.6250 -0.2431
  147MOL    O6735399   4.177   1.736   5.776 -0.0020 -0.4508 -0.1757
  147MOL    H6835400   4.242   1.461   5.842  0.2266  1.2467 -0.0731
  147MOL    H6935401   4.389   1.539   5.886  1.3224 -3.3912  1.5650
  147MOL    H7035402   4.270   1.433   5.522  0.5542 -0.6314  2.0832
  147MOL    H7135403   4.440   1.445   5.520 -0.3486 -0.6106 -1.1731
  147MOL    H7235404   4.355   1.564   5.442 -0.7430  1.1440  0.4460
  147MOL    H7335405   4.092   1.775   5.762  0.6255  0.3002 -1.9771
  147MOL    C7435406   4.446   1.692   5.674  0.7599  0.6531 -0.1174
  147MOL    C7535407   4.460   1.832   5.598  0.3560 -0.4213  0.3358
  147MOL    C7635408   4.419   1.831   5.448  0.1888  0.3211 -0.5687
  147MOL    C7735409   4.367   1.940   5.667 -0.3812  0.7154  0.7983
  147MOL    O7835410   4.264   1.982   5.614  0.0935 -0.1370 -0.2640
  147MOL    O7935411   4.392   1.968   5.797 -0.5525  0.4515  0.0646
  147MOL    H8035412   4.461   1.715   5.780  0.1510  0.8762 -0.0736
  147MOL    H8135413   4.534   1.635   5.643  0.0828 -1.2283  1.2757
  147MOL    H8235414   4.432   1.930   5.403 -1.5509  0.8879  0.1316
  147MOL    H8335415   4.317   1.792   5.440  0.6174 -1.1667  1.0136
  147MOL    H8435416   4.472   1.761   5.383 -0.4545  1.8652 -2.8291
  147MOL    H8535417   4.321   2.027   5.820 -0.7268  0.2238  0.1036
  147MOL    C8635418   4.609   1.879   5.599 -0.0927  0.1837  0.1357
  147MOL    C8735419   4.730   1.832   5.511  0.5497  0.4034 -0.1606
  147MOL    C8835420   4.706   1.910   5.377 -0.4662 -0.5979  0.2174
  147MOL    C8935421   4.856   1.892   5.579 -0.3343 -0.4119  0.0843
  147MOL    O9035422   4.917   1.995   5.541  0.1416 -0.0099  0.6135
  147MOL    O9135423   4.887   1.825   5.694 -0.1453 -0.2150  0.1979
  147MOL    H9235424   4.598   1.985   5.577  0.0144 -0.0698 -1.1556
  147MOL    H9335425   4.644   1.893   5.701 -0.3370  3.2828 -0.1454
  147MOL    H9435426   4.652   2.005   5.389  0.2052 -0.1546 -0.2600
  147MOL    H9535427   4.649   1.857   5.301  1.6434 -1.8987 -0.4709
  147MOL    H9635428   4.795   1.940   5.322 -0.4224 -0.2372  0.4783
  147MOL    H9735429   4.951   1.867   5.749 -1.8474  0.6580  1.5675
  147MOL    C9835430   4.745   1.679   5.483  0.9016 -0.5858 -0.2547
  147MOL    C9935431   4.862   1.599   5.419 -0.1500  0.0409  0.8175
  147MOL   C10035432   4.926   1.688   5.307 -0.1255 -0.4311  0.1368
  147MOL   C10135433   4.977   1.558   5.520 -0.3658  0.1148 -0.1406
  147MOL   O10235434   5.094   1.590   5.500 -0.9548 -0.5892  0.6247
  147MOL   O10335435   4.938   1.499   5.633  0.0306 -0.0834 -0.1537
  147MOL   H10435436   4.722   1.622   5.573  0.1363  0.3816  0.1616
  147MOL   H10535437   4.656   1.648   5.428  0.4215  0.3215  0.0085
  147MOL   H10635438   4.958   1.788   5.337 -1.2875 -0.2156  0.6936
  147MOL   H10735439   4.863   1.691   5.219  1.7173 -0.5169 -1.2151
  147MOL   H10835440   5.017   1.640   5.271 -0.8753 -1.7262 -0.0735
  147MOL   H10935441   5.007   1.503   5.696 -0.5577  0.5038  0.4718
  147MOL   C11035442   4.801   1.456   5.361 -0.0957 -0.2299  1.2853
  147MOL   C11135443   4.868   1.346   5.269 -0.5128 -0.7651 -0.0594
  147MOL   C11235444   4.926   1.415   5.141 -0.1730  0.3265 -0.4422
  147MOL   C11335445   4.974   1.261   5.344 -0.3080 -0.1331 -0.2630
  147MOL   O11435446   4.992   1.267   5.466 -0.7716  0.5111  0.3567
  147MOL   O11535447   5.047   1.181   5.255 -0.3424 -0.3797  0.0532
  147MOL   H11635448   4.768   1.395   5.445  0.4750 -1.9680  0.2720
  147MOL   H11735449   4.707   1.487   5.315 -0.2082 -1.1801  0.8764
  147MOL   H11835450   4.942   1.352   5.054  1.5379 -0.5108  0.4355
  147MOL   H11935451   5.021   1.467   5.145 -0.3355  0.8162 -2.6439
  147MOL   H12035452   4.850   1.483   5.103  0.5363  1.7363  0.5848
  147MOL   H12135453   5.103   1.120   5.302 -2.4531 -1.1358  1.6979
  147MOL   C12235454   4.759   1.239   5.225  0.1854 -0.5679  0.2965
  147MOL   C12335455   4.669   1.146   5.319  0.0865  0.1043 -0.4244
  147MOL   C12435456   4.726   1.124   5.462 -0.0437 -0.0200 -0.4040
  147MOL   C12535457   4.528   1.211   5.340  0.0808  0.4563  0.8102
  147MOL   O12635458   4.501   1.323   5.293 -0.7494 -0.2685 -0.5958
  147MOL   O12735459   4.445   1.143   5.419  0.2033  0.2695 -0.1441
  147MOL   H12835460   4.691   1.288   5.155 -2.0008 -0.9355  2.0931
  147MOL   H12935461   4.817   1.181   5.154 -0.5079  0.9574 -1.5644
  147MOL   H13035462   4.822   1.074   5.455 -1.2260 -2.1360 -2.1057
  147MOL   H13135463   4.658   1.060   5.519 -0.6743  0.4128 -0.6699
  147MOL   H13235464   4.743   1.213   5.522  4.4174  1.3734 -3.4785
  147MOL   H13335465   4.500   1.076   5.457  0.6542  1.4855  1.4102
  147MOL   C13435466   4.662   1.000   5.261  1.1525 -0.1546 -0.3483
  147MOL   C13535467   4.630   0.959   5.113 -0.2416  0.2990 -0.7033
  147MOL   C13635468   4.594   0.814   5.139 -0.7787  0.4640 -0.0673
  147MOL   C13735469   4.508   1.038   5.067 -0.1181 -0.4546  0.8034
  147MOL   O13835470   4.505   1.144   5.002  0.2689 -0.0104 -0.0167
  147MOL   O13935471   4.391   0.973   5.098  0.0582 -0.0335 -0.5729
  147MOL   H14035472   4.759   0.953   5.277  0.2347 -1.7294  0.7887
  147MOL   H14135473   4.598   0.941   5.328 -0.6636  1.6613 -0.4332
  147MOL   H14235474   4.680   0.762   5.181 -0.4974  0.1816 -0.9751
  147MOL   H14335475   4.561   0.763   5.048 -0.7795 -1.2209  0.8478
  147MOL   H14435476   4.506   0.806   5.203 -0.2103  1.0546  0.7918
  147MOL   H14535477   4.319   1.022   5.061 -0.5954  0.2023  0.9622
  147MOL   C14635478   4.753   0.988   5.015  0.2065 -0.3867  0.4436
  147MOL   C14735479   4.793   0.886   4.901 -0.1143  0.1298  0.6746
  147MOL   C14835480   4.856   0.758   4.973 -0.5052  0.2859 -0.0452
  147MOL   C14935481   4.674   0.831   4.813  0.0239 -0.3499  0.0624
  147MOL   O15035482   4.670   0.719   4.769  0.3433  0.9030 -0.2621
  147MOL   O15135483   4.579   0.930   4.793  0.2649 -0.0068  0.2041
  147MOL   H15235484   4.749   1.087   4.970  4.5010 -0.7770 -0.9870
  147MOL   H15335485   4.845   1.002   5.071  1.3090 -0.4643 -1.3522
  147MOL   H15435486   4.794   0.677   5.010  0.3523 -0.3683 -0.0423
  147MOL   H15535487   4.903   0.805   5.060  0.9359  1.0055 -1.2052
  147MOL   H15635488   4.939   0.723   4.913  1.8368  1.3139  2.4828
  147MOL   H15735489   4.528   0.892   4.722  0.3315 -1.2119  0.7920
  147MOL   C15835490   4.918   0.942   4.808  0.3107  0.5709 -0.2611
  147MOL   C15935491   4.932   1.076   4.729  0.0950  0.2759  0.2862
  147MOL   C16035492   4.793   1.113   4.672  0.3825  0.4130 -0.3020
  147MOL   C16135493   4.974   1.190   4.831 -0.3477  0.2787  0.0143
  147MOL   O16235494   5.022   1.168   4.942 -0.4922  0.2572  0.3666
  147MOL   O16335495   4.937   1.318   4.791 -0.3235  0.0105  0.1252
  147MOL   H16435496   5.009   0.932   4.867  0.3209 -0.9229 -0.5140
  147MOL   H16535497   4.928   0.858   4.739 -0.8210  0.8808 -0.8202
  147MOL   H16635498   4.762   1.029   4.610 -0.1045  0.8475 -0.6513
  147MOL   H16735499   4.806   1.203   4.611 -1.9440  0.6066 -0.5509
  147MOL   H16835500   4.710   1.131   4.741 -0.7525  0.1534 -1.5695
  147MOL   H16935501   4.882   1.322   4.715  0.8627 -0.2248 -0.7633
  147MOL   C17035502   5.042   1.065   4.614  0.5551 -0.0528  0.1242
  147MOL   C17135503   5.190   1.004   4.628  0.3719  0.4994 -0.5889
  147MOL   C17235504   5.257   1.081   4.746 -0.1723 -0.1786 -0.1176
  147MOL   C17335505   5.180   0.856   4.645  0.6602 -0.3976 -1.1343
  147MOL   O17435506   5.210   0.802   4.751 -0.1251  0.2022 -0.1120
  147MOL   O17535507   5.103   0.792   4.549  0.1536  0.3466  0.3176
  147MOL   H17635508   4.998   0.997   4.541  3.3278 -2.3245  0.4482
  147MOL   H17735509   5.039   1.157   4.556  1.1777 -0.6548 -0.8758
  147MOL   H17835510   5.234   1.187   4.735 -0.5814 -0.4661 -2.1643
  147MOL   H17935511   5.366   1.077   4.749 -0.1007  2.0929  1.3148
  147MOL   H18035512   5.217   1.060   4.846 -0.2150 -1.5895 -0.4181
  147MOL   H18135513   5.099   0.710   4.596 -0.2012  1.3142  2.0310
  147MOL   C18235514   5.270   1.041   4.499 -0.3444  0.7196  0.2238
  147MOL   C18335515   5.396   0.957   4.449 -0.2632  0.4513 -0.2378
  147MOL   C18435516   5.495   0.907   4.559 -0.3289  0.0980  0.3387
  147MOL   C18535517   5.358   0.825   4.372  0.1227  0.2115  0.5517
  147MOL   O18635518   5.401   0.709   4.393  0.2590  0.0701 -0.1967
  147MOL   O18735519   5.264   0.856   4.280 -0.0052  0.2305 -0.1577
  147MOL   H18835520   5.197   1.040   4.418  1.8209  1.4809 -1.7879
  147MOL   H18935521   5.288   1.148   4.509 -0.8421  0.6948  1.4103
  147MOL   H19035522   5.577   0.850   4.514 -1.4890 -1.4104  0.1127
  147MOL   H19135523   5.442   0.846   4.631  0.8842 -1.0113  0.3009
  147MOL   H19235524   5.540   0.985   4.621 -0.0059  1.0305 -1.0257
  147MOL   H19335525   5.221   0.777   4.252 -0.3587  0.6616 -0.8370
  147MOL   C19435526   5.466   1.044   4.346 -0.1851 -0.1336 -0.5023
  147MOL   C19535527   5.570   1.163   4.375 -0.3197  0.7242 -0.2740
  147MOL   C19635528   5.522   1.255   4.488  0.5701 -0.3050  0.6868
  147MOL   C19735529   5.712   1.099   4.427  0.5248  0.1206  0.2405
  147MOL   O19835530   5.745   0.979   4.411 -0.4763 -0.3167 -0.3207
  147MOL   O19935531   5.805   1.192   4.476  0.6940 -0.0358 -0.1077
  147MOL   H20035532   5.512   0.977   4.273 -0.7756 -0.7599 -0.3099
  147MOL   H20135533   5.384   1.082   4.286  1.1296  1.4742 -1.3217
  147MOL   H20235534   5.519   1.218   4.591  1.4608 -1.3808  0.3338
  147MOL   H20335535   5.425   1.303   4.474 -0.1599 -2.1762 -0.9208
  147MOL   H20435536   5.586   1.341   4.505  0.1671 -0.2561  2.0034
  147MOL   H20535537   5.894   1.170   4.498  0.4205 -0.6361  0.4210
  147MOL   C20635538   5.609   1.236   4.239 -0.6959  0.6216  0.3937
  147MOL   C20735539   5.517   1.350   4.183 -0.5654 -0.1770 -0.4856
  147MOL   C20835540   5.534   1.486   4.257 -0.4964 -0.0183  0.3451
  147MOL   C20935541   5.557   1.374   4.038  0.3231  0.2837 -0.1960
  147MOL   O21035542   5.594   1.479   3.998  0.4907  0.5764 -0.0770
  147MOL   O21135543   5.535   1.263   3.963 -0.1251 -0.4980  0.1892
  147MOL   H21235544   5.713   1.268   4.241 -0.5724  0.3464 -0.9238
  147MOL   H21335545   5.604   1.156   4.165 -1.4796  1.0020  0.0289
  147MOL   H21435546   5.501   1.569   4.195 -0.3874 -1.5833 -1.9068
  147MOL   H21535547   5.637   1.495   4.290 -0.4703 -0.3392  0.3603
  147MOL   H21635548   5.478   1.493   4.350 -1.7477 -1.4588 -0.2605
  147MOL   H21735549   5.563   1.267   3.873  1.5522  0.8130  0.7396
  147MOL   C21835550   5.355   1.321   4.193  0.0841  0.1252  0.6106
  147MOL   C21935551   5.234   1.416   4.165 -0.2382  0.0062  0.0041
  147MOL   C22035552   5.206   1.513   4.289  0.2504 -0.0928 -0.1500
  147MOL   C22135553   5.238   1.480   4.026  0.7966  1.0305  0.2042
  147MOL   O22235554   5.289   1.424   3.928 -0.0623  0.0582 -0.1663
  147MOL   O22335555   5.172   1.597   4.025  0.1751  0.2759  0.0904
  147MOL   H22435556   5.339   1.234   4.130  2.7744 -0.7569  1.0980
  147MOL   H22535557   5.336   1.300   4.298 -1.0904  0.0333  0.3869
  147MOL   H22635558   5.128   1.589   4.285  1.3626  1.2217  2.1287
  147MOL   H22735559   5.293   1.579   4.289  1.4182 -1.5985 -0.3475
  147MOL   H22835560   5.212   1.459   4.384  1.1016 -1.1340 -0.7742
  147MOL   H22935561   5.183   1.648   3.947  0.8040  0.7292  0.4671
  147MOL   C23035562   5.108   1.321   4.171  0.0233 -0.0420  0.0015
  147MOL   C23135563   4.963   1.392   4.138 -0.4395 -0.2451 -0.4227
  147MOL   C23235564   4.922   1.377   3.986 -0.0264 -0.1596 -0.0483
  147MOL   C23335565   4.853   1.346   4.229  0.2995  0.1778 -0.3609
  147MOL   O23435566   4.876   1.294   4.339  0.0372 -0.0475 -0.1044
  147MOL   O23535567   4.732   1.379   4.180 -0.1602  0.3065  0.3979
  147MOL   H23635568   5.118   1.241   4.098 -3.0170 -2.1752  1.8688
  147MOL   H23735569   5.115   1.261   4.261 -0.0170 -2.6337 -1.6847
  147MOL   H23835570   4.850   1.454   3.958  3.2855  3.3379  0.6007
  147MOL   H23935571   4.886   1.283   3.943  1.2374  0.5290 -2.7530
  147MOL   H24035572   5.004   1.416   3.925  0.4113 -0.8629  0.0837
  147MOL   H24135573   4.673   1.338   4.240  1.4633 -0.2465  1.6561
  147MOL   H24235574   4.978   1.498   4.162 -0.0659 -0.2351 -0.6830
  148MOL     C135575   4.539   6.155   0.970  0.0616 -0.7526  0.2189
  148MOL     C235576   4.629   6.075   1.070  0.9361  0.1760  0.3787
  148MOL     C335577   4.768   6.080   1.003  0.7989 -0.2980 -0.0302
  148MOL     C435578   4.634   6.141   1.207  0.1362 -0.0996  0.1058
  148MOL     O535579   4.721   6.113   1.290  1.0886  0.0640 -0.4893
  148MOL     O635580   4.535   6.224   1.221 -0.2191  0.4387 -0.3154
  148MOL     H735581   4.572   6.259   0.978 -1.2736 -0.4514  2.1549
  148MOL     H835582   4.439   6.153   1.012  0.9308 -0.9055  2.3387
  148MOL     H935583   4.847   6.034   1.062 -0.6730 -0.3043  2.0070
  148MOL    H1035584   4.799   6.184   0.989  1.0239 -0.2371  0.8980
  148MOL    H1135585   4.782   6.028   0.908 -0.0243 -1.2734  0.3749
  148MOL    H1235586   4.521   6.261   1.307 -2.0376 -2.5230  0.7640
  148MOL    H1335587   4.529   6.134   0.863 -1.1620  1.0054 -0.0395
  148MOL    C1435588   4.599   5.920   1.086  0.0113 -0.9894 -0.2825
  148MOL    C1535589   4.451   5.868   1.097  0.5849  0.1496 -0.1489
  148MOL    C1635590   4.381   5.956   1.207 -0.1152  0.0004 -0.2159
  148MOL    C1735591   4.375   5.895   0.963  0.2420 -1.2750 -0.0377
  148MOL    O1835592   4.267   5.957   0.966  0.4220  0.6749 -0.1252
  148MOL    O1935593   4.431   5.861   0.845 -0.3810  0.3697  0.2593
  148MOL    H2035594   4.651   5.867   1.006 -0.5848 -1.1040 -0.5961
  148MOL    H2135595   4.651   5.883   1.174 -0.4760 -1.6626 -0.2781
  148MOL    H2235596   4.278   5.930   1.231  0.2844 -1.8451 -0.4074
  148MOL    H2335597   4.383   6.062   1.184 -0.8712 -0.1378 -0.9543
  148MOL    H2435598   4.441   5.945   1.298  0.2318 -0.9249 -0.5424
  148MOL    H2535599   4.375   5.871   0.769 -0.7860  1.3888  0.6874
  148MOL    C2635600   4.440   5.716   1.130  0.1141 -0.4236  0.9704
  148MOL    C2735601   4.318   5.621   1.125  0.6743 -1.2625  0.0665
  148MOL    C2835602   4.198   5.692   1.199 -0.0136  0.1546  0.2806
  148MOL    C2935603   4.291   5.571   0.976  0.1166  0.0449 -0.1079
  148MOL    O3035604   4.381   5.554   0.895  0.3458 -0.2963  0.2174
  148MOL    O3135605   4.158   5.564   0.951  0.4692 -0.4147 -0.7794
  148MOL    H3235606   4.518   5.683   1.061 -1.3076 -1.0726 -0.3760
  148MOL    H3335607   4.485   5.707   1.228  1.1170  3.4063  0.9423
  148MOL    H3435608   4.150   5.777   1.150 -1.4957  0.4002  2.0757
  148MOL    H3535609   4.231   5.724   1.297  1.4380  0.1060 -0.1849
  148MOL    H3635610   4.111   5.626   1.208  0.4462 -0.5620 -0.4750
  148MOL    H3735611   4.149   5.549   0.858  0.1826 -1.3884 -0.6039
  148MOL    C3835612   4.336   5.492   1.212 -0.8358  0.0600 -0.3681
  148MOL    C3935613   4.434   5.372   1.186  0.1552 -0.1872  1.0313
  148MOL    C4035614   4.363   5.273   1.086  0.3949 -0.3991 -0.0365
  148MOL    C4135615   4.565   5.419   1.124 -0.0042  0.5070  0.3177
  148MOL    O4235616   4.605   5.390   1.015 -0.2977 -0.0139  0.2289
  148MOL    O4335617   4.637   5.483   1.216  0.2117  0.0984  0.0025
  148MOL    H4435618   4.341   5.531   1.313  1.2865  0.0804 -0.4513
  148MOL    H4535619   4.239   5.442   1.209 -1.0541  0.4952 -0.5185
  148MOL    H4635620   4.438   5.196   1.067  1.1856  0.4464 -0.3186
  148MOL    H4735621   4.317   5.307   0.993  0.4252 -1.4587 -0.4490
  148MOL    H4835622   4.275   5.235   1.139 -0.4320 -0.1469 -1.2001
  148MOL    H4935623   4.719   5.497   1.171  0.2627 -1.0240 -0.2789
  148MOL    C5035624   4.456   5.290   1.324  0.7385  0.0343  0.4319
  148MOL    C5135625   4.519   5.149   1.341  0.3852 -0.6312  0.8380
  148MOL    C5235626   4.419   5.043   1.289 -0.1452 -0.1957 -0.5268
  148MOL    C5335627   4.648   5.131   1.264  0.6406 -0.5298  0.3490
  148MOL    O5435628   4.669   5.039   1.186 -0.7364  0.3372  0.0753
  148MOL    O5535629   4.738   5.234   1.285  0.1031  0.3546  0.0006
  148MOL    H5635630   4.493   5.360   1.399 -1.8256  1.1551  0.7320
  148MOL    H5735631   4.358   5.275   1.370 -0.9694  0.4695 -2.9069
  148MOL    H5835632   4.401   5.045   1.182  0.8604 -0.7521 -0.7090
  148MOL    H5935633   4.321   5.054   1.336 -0.3926  1.4935 -1.4081
  148MOL    H6035634   4.455   4.943   1.311  1.4504  0.2134 -1.2112
  148MOL    H6135635   4.720   5.304   1.345  1.0358  0.1487  0.5476
  148MOL    C6235636   4.544   5.134   1.494 -0.3257  0.0819  0.2177
  148MOL    C6335637   4.632   5.024   1.568 -0.0453 -0.0321  0.1615
  148MOL    C6435638   4.587   4.878   1.535  0.8891 -0.2555 -0.1916
  148MOL    C6535639   4.786   5.029   1.536  0.0370  0.1745 -0.0977
  148MOL    O6635640   4.859   4.935   1.509  0.3456 -0.3226  0.9278
  148MOL    O6735641   4.835   5.158   1.530 -0.7338  0.0130 -0.4221
  148MOL    H6835642   4.589   5.227   1.528  1.0035 -1.3080  2.4610
  148MOL    H6935643   4.445   5.133   1.538  0.7568  0.0418  2.7855
  148MOL    H7035644   4.626   4.800   1.600 -1.2069  0.2009  1.6594
  148MOL    H7135645   4.619   4.861   1.432 -1.1609  0.0151 -0.8987
  148MOL    H7235646   4.479   4.867   1.545  0.9033  0.0738  0.3163
  148MOL    H7335647   4.926   5.154   1.504 -0.0217 -2.9586  2.2001
  148MOL    C7435648   4.614   5.037   1.726  0.2113  0.5856  0.2335
  148MOL    C7535649   4.615   5.166   1.822  0.3458  0.2740  0.2654
  148MOL    C7635650   4.751   5.244   1.816  0.0980 -1.1162  0.4931
  148MOL    C7735651   4.491   5.257   1.795 -0.0088  0.5224 -0.1493
  148MOL    O7835652   4.499   5.376   1.769  0.2262 -0.1004  0.2256
  148MOL    O7935653   4.374   5.193   1.798 -0.8198 -1.1678  0.4292
  148MOL    H8035654   4.521   4.983   1.745  0.3381  0.8022  1.5150
  148MOL    H8135655   4.684   4.971   1.778  0.4964 -0.2488 -1.1778
  148MOL    H8235656   4.827   5.166   1.816 -0.7402 -1.9613 -0.7910
  148MOL    H8335657   4.770   5.321   1.890  0.4458 -1.2957  0.5924
  148MOL    H8435658   4.778   5.293   1.722 -2.4528  1.4067  1.0097
  148MOL    H8535659   4.307   5.258   1.788  1.2329  0.5541 -3.2287
  148MOL    C8635660   4.607   5.104   1.968 -0.2561  0.2124 -0.4026
  148MOL    C8735661   4.625   5.170   2.107 -1.2118  0.0694  0.3862
  148MOL    C8835662   4.783   5.162   2.140  0.6360  0.0033  0.2971
  148MOL    C8935663   4.573   5.317   2.105 -0.2660 -0.0921 -0.5763
  148MOL    O9035664   4.635   5.413   2.130  0.1721 -0.4561  0.2725
  148MOL    O9135665   4.436   5.328   2.096 -0.1030  0.1498 -0.3042
  148MOL    H9235666   4.513   5.050   1.970  0.4254 -1.0394 -1.4379
  148MOL    H9335667   4.687   5.030   1.961 -0.4472  0.0831 -1.3189
  148MOL    H9435668   4.845   5.192   2.055 -0.0164 -1.2910 -0.6470
  148MOL    H9535669   4.831   5.067   2.160 -0.2438 -0.5122 -0.0296
  148MOL    H9635670   4.807   5.231   2.221 -1.2284  1.7955 -0.6259
  148MOL    H9735671   4.413   5.417   2.120 -2.7095 -0.5625  0.0222
  148MOL    C9835672   4.546   5.070   2.211  0.6584  0.2143  0.4706
  148MOL    C9935673   4.530   5.083   2.369 -0.0422  0.1502  0.1603
  148MOL   C10035674   4.671   5.074   2.430 -0.4074  0.0398  0.6876
  148MOL   C10135675   4.449   5.208   2.401 -0.2837  0.1162 -0.2660
  148MOL   O10235676   4.342   5.241   2.353 -0.1416 -0.1655  0.2048
  148MOL   O10335677   4.515   5.285   2.490 -0.3643 -0.0020 -0.6176
  148MOL   H10435678   4.445   5.089   2.178  0.5067  0.8510  1.2990
  148MOL   H10535679   4.572   4.968   2.182 -1.8522 -0.6713  1.2538
  148MOL   H10635680   4.724   4.982   2.405 -0.3645 -0.2579  1.8658
  148MOL   H10735681   4.657   5.093   2.536  1.6423 -0.8654  1.1560
  148MOL   H10835682   4.734   5.161   2.408 -0.9622  0.5869  1.2792
  148MOL   H10935683   4.466   5.359   2.523 -1.7051 -0.9767 -0.3997
  148MOL   C11035684   4.452   4.951   2.413  0.4700  1.0484  0.0964
  148MOL   C11135685   4.381   4.925   2.548  0.6483  0.9295  0.2575
  148MOL   C11235686   4.375   4.771   2.564 -0.2012  0.0174 -0.3972
  148MOL   C11335687   4.465   4.972   2.666  0.3359 -0.1593  0.3099
  148MOL   O11435688   4.435   5.061   2.746 -0.3724 -0.2789 -0.2964
  148MOL   O11535689   4.577   4.893   2.681  0.0899 -0.2293  0.6353
  148MOL   H11635690   4.381   4.933   2.333 -0.8106 -0.7200  1.5774
  148MOL   H11735691   4.525   4.872   2.399 -0.0027  0.5331  0.5100
  148MOL   H11835692   4.462   4.710   2.543 -0.6674 -0.1601 -1.8912
  148MOL   H11935693   4.306   4.742   2.485 -0.1868  1.2960 -0.8857
  148MOL   H12035694   4.351   4.755   2.669 -0.0633 -1.1151 -0.5313
  148MOL   H12135695   4.599   4.890   2.773  1.6936  0.9439  0.2964
  148MOL   C12235696   4.236   5.000   2.545 -0.8877 -0.1524  0.2449
  148MOL   C12335697   4.110   4.964   2.628  0.0615 -0.0235 -0.5111
  148MOL   C12435698   4.061   4.825   2.567 -0.0914  0.3810 -0.5030
  148MOL   C12535699   4.146   4.957   2.780 -0.3108 -0.0508  0.2135
  148MOL   O12635700   4.153   4.853   2.843 -0.0816  0.3737 -0.1252
  148MOL   O12735701   4.184   5.084   2.832  0.1090  0.9773  0.0549
  148MOL   H12835702   4.257   5.104   2.570  1.2139 -0.4899  0.0252
  148MOL   H12935703   4.207   5.005   2.440 -1.7850 -0.4447  0.4754
  148MOL   H13035704   4.115   4.735   2.595 -0.4831  0.6631  1.1839
  148MOL   H13135705   4.064   4.826   2.458 -0.7955  0.3387 -0.5221
  148MOL   H13235706   3.956   4.803   2.583  0.2354  0.1665  1.4166
  148MOL   H13335707   4.223   5.081   2.918  1.1053  0.4126 -0.4049
  148MOL   C13435708   3.991   5.062   2.595 -0.5520 -0.0393 -0.1388
  148MOL   C13535709   3.861   5.105   2.680 -0.0980 -0.1200  0.4174
  148MOL   C13635710   3.746   5.159   2.586 -0.0171 -0.6008 -0.3319
  148MOL   C13735711   3.801   4.974   2.727 -0.5567 -0.3074 -0.5795
  148MOL   O13835712   3.745   4.896   2.652  0.2701 -0.2669  0.5856
  148MOL   O13935713   3.813   4.944   2.860 -0.0084 -0.2387 -0.6662
  148MOL   H14035714   4.041   5.155   2.567 -2.2371  1.0987  0.5817
  148MOL   H14135715   3.962   5.036   2.493  1.7059  2.2578 -1.4425
  148MOL   H14235716   3.763   5.252   2.531  0.4009  0.0432  0.8808
  148MOL   H14335717   3.646   5.167   2.629 -0.2818 -1.3101 -0.7981
  148MOL   H14435718   3.724   5.090   2.504  0.8114  0.3731 -1.4025
  148MOL   H14535719   3.774   4.861   2.883  1.6883 -1.1227 -0.9536
  148MOL   C14635720   3.876   5.207   2.798  0.0991  0.0085 -0.4956
  148MOL   C14735721   3.889   5.363   2.774  0.0207 -0.7367 -0.5751
  148MOL   C14835722   3.760   5.426   2.726  0.3402  0.0679  0.3202
  148MOL   C14935723   3.927   5.423   2.909 -0.3374  0.1722  0.6871
  148MOL   O15035724   3.858   5.499   2.977 -0.7125 -0.6740 -1.1023
  148MOL   O15135725   4.054   5.386   2.940  0.6584  0.2095 -0.0450
  148MOL   H15235726   3.793   5.197   2.867  0.2153  0.9620 -0.2074
  148MOL   H15335727   3.961   5.172   2.857 -2.2344 -4.8491  0.2675
  148MOL   H15435728   3.759   5.458   2.622 -0.7577 -0.3141  0.2066
  148MOL   H15535729   3.729   5.513   2.783  1.6205  0.6796  0.0896
  148MOL   H15635730   3.676   5.356   2.730  0.4340 -0.2320 -2.0830
  148MOL   H15735731   4.089   5.402   3.027  2.7073  0.1984 -0.8324
  148MOL   C15835732   3.990   5.401   2.663  0.3033 -0.3370  0.2700
  148MOL   C15935733   4.059   5.539   2.633  0.0521  0.0250 -0.5807
  148MOL   C16035734   3.955   5.660   2.646 -0.5617  0.7190 -0.1790
  148MOL   C16135735   4.178   5.554   2.726 -1.0870  0.3102  0.0739
  148MOL   O16235736   4.187   5.640   2.812 -0.6338  0.2608  0.2821
  148MOL   O16335737   4.271   5.460   2.705 -0.2196  0.1377  0.5733
  148MOL   H16435738   4.071   5.333   2.690  1.4870  0.5005 -1.1594
  148MOL   H16535739   3.956   5.366   2.566  0.7687 -1.7714  0.5980
  148MOL   H16635740   3.910   5.661   2.746 -1.4667  1.4756 -0.5929
  148MOL   H16735741   3.886   5.660   2.562 -1.6314  1.4555  0.6723
  148MOL   H16835742   4.007   5.756   2.652  0.4710  0.2458 -1.3426
  148MOL   H16935743   4.310   5.460   2.791  0.8866  1.1085  0.0823
  148MOL   C17035744   4.105   5.543   2.478 -0.9129 -0.1487  0.0869
  148MOL   C17135745   4.196   5.650   2.399 -0.0529  0.7767 -0.2260
  148MOL   C17235746   4.341   5.632   2.457  0.4729  0.3019 -0.4762
  148MOL   C17335747   4.219   5.605   2.247 -0.4614  0.0924 -0.5605
  148MOL   O17435748   4.318   5.537   2.215 -0.0693  0.4685  0.3144
  148MOL   O17535749   4.115   5.625   2.167  0.6542 -0.0757  0.3915
  148MOL   H17635750   4.167   5.453   2.466  0.4521  0.5944  1.4063
  148MOL   H17735751   4.019   5.518   2.415 -0.4933  2.0788 -1.4229
  148MOL   H17835752   4.418   5.681   2.397  2.1279 -1.7793 -0.1426
  148MOL   H17935753   4.376   5.529   2.469  1.5859  0.7918  0.6706
  148MOL   H18035754   4.355   5.673   2.557  0.4744  1.1229 -0.8113
  148MOL   H18135755   4.055   5.688   2.202 -1.6292 -1.0016 -1.6838
  148MOL   C18235756   4.121   5.787   2.425 -0.0526 -0.0230  0.8109
  148MOL   C18335757   4.164   5.921   2.348  0.4437  0.8860 -0.3231
  148MOL   C18435758   4.314   5.923   2.318  1.1108  0.0267  0.0247
  148MOL   C18535759   4.087   5.929   2.215 -0.3710 -0.2395 -0.8537
  148MOL   O18635760   3.989   5.859   2.195  0.0386  0.5156  0.0104
  148MOL   O18735761   4.145   6.015   2.127  0.0072  0.3840 -0.1421
  148MOL   H18835762   4.014   5.771   2.426  0.2128 -1.8820  1.2850
  148MOL   H18935763   4.147   5.814   2.527 -1.6721  2.4673  0.5801
  148MOL   H19035764   4.372   5.905   2.409  1.0590 -1.1968 -0.1758
  148MOL   H19135765   4.342   6.011   2.260 -2.4442 -0.2768 -2.2853
  148MOL   H19235766   4.336   5.849   2.241 -1.5161  0.2607 -0.9794
  148MOL   H19335767   4.121   6.026   2.036  0.2274 -0.6272 -0.3215
  148MOL   C19435768   4.140   6.041   2.445  1.0938 -0.0578  0.3010
  148MOL   C19535769   4.001   6.111   2.476 -0.3330  0.7847 -0.1272
  148MOL   C19635770   3.936   6.180   2.343 -0.1200 -0.3276  0.0234
  148MOL   C19735771   3.895   6.005   2.513  0.8567  0.2777 -0.0068
  148MOL   O19835772   3.830   5.937   2.437  0.0214  0.0634 -0.5485
  148MOL   O19935773   3.880   5.995   2.647  0.2231  0.3989  0.2674
  148MOL   H20035774   4.202   6.034   2.534  1.9808  0.6393 -0.2663
  148MOL   H20135775   4.197   6.113   2.387  0.8407  0.6590  0.9322
  148MOL   H20235776   3.850   6.243   2.368 -0.3364 -0.8312  0.5636
  148MOL   H20335777   3.908   6.104   2.270  1.8605 -1.6019  0.5592
  148MOL   H20435778   4.021   6.232   2.299  1.2576 -0.9155  1.9275
  148MOL   H20535779   3.806   5.941   2.672  1.9726 -2.0092  0.4646
  148MOL   C20635780   4.028   6.217   2.583  0.0662  0.0584 -0.6657
  148MOL   C20735781   4.123   6.342   2.573  0.4035 -0.5007 -0.5670
  148MOL   C20835782   4.261   6.326   2.509  0.2704  0.5498 -0.5908
  148MOL   C20935783   4.055   6.455   2.485 -0.1314  0.1015  0.0232
  148MOL   O21035784   3.937   6.452   2.442  0.0074  0.1880 -0.2492
  148MOL   O21135785   4.135   6.562   2.457  0.1775 -0.1216 -0.2682
  148MOL   H21235786   3.935   6.261   2.618 -0.3740 -0.3220 -1.3504
  148MOL   H21335787   4.049   6.164   2.676 -2.8982  2.7765  1.6476
  148MOL   H21435788   4.312   6.235   2.540 -1.4378 -0.0990  0.3996
  148MOL   H21535789   4.330   6.406   2.533 -0.7272  0.7212  1.8241
  148MOL   H21635790   4.254   6.323   2.400 -0.1897  0.7355 -0.5664
  148MOL   H21735791   4.086   6.623   2.404  0.9909  0.1183 -0.7596
  148MOL   C21835792   4.152   6.405   2.717 -0.1836 -0.3721  0.9044
  148MOL   C21935793   4.185   6.324   2.847 -0.0434  0.4975 -0.5283
  148MOL   C22035794   4.052   6.288   2.918 -0.1882 -0.0702 -0.1562
  148MOL   C22135795   4.267   6.194   2.815  0.1809 -1.0969 -0.1612
  148MOL   O22235796   4.386   6.199   2.783 -0.4558 -0.3503  0.2761
  148MOL   O22335797   4.200   6.072   2.834  0.1254  0.2190  0.0040
  148MOL   H22435798   4.246   6.457   2.694 -0.4229  0.1633  1.1182
  148MOL   H22535799   4.100   6.499   2.736  0.6910  0.3454 -0.1299
  148MOL   H22635800   4.060   6.210   2.994  1.6706  0.4228  0.1702
  148MOL   H22735801   3.978   6.243   2.852 -0.3923  0.4504 -0.2865
  148MOL   H22835802   4.009   6.378   2.963 -1.3748 -0.1092 -1.1953
  148MOL   H22935803   4.266   6.005   2.830  0.2210  0.2445  1.0818
  148MOL   C23035804   4.269   6.426   2.941 -0.4106 -0.5603 -0.4207
  148MOL   C23135805   4.295   6.386   3.092 -0.4046 -0.8720 -0.5611
  148MOL   C23235806   4.379   6.261   3.108 -1.0625 -0.6807 -0.0017
  148MOL   C23335807   4.373   6.498   3.167 -0.3968  1.2504 -0.9685
  148MOL   O23435808   4.338   6.615   3.160 -0.2147  0.5343 -0.8022
  148MOL   O23535809   4.471   6.454   3.252  0.1633  0.2462  0.0979
  148MOL   H23635810   4.364   6.456   2.899 -0.2992 -2.6526 -1.7116
  148MOL   H23735811   4.215   6.520   2.927  0.1834 -0.1796 -0.1685
  148MOL   H23835812   4.482   6.267   3.073 -1.3816 -0.5846 -0.9325
  148MOL   H23935813   4.334   6.170   3.066  0.9265 -2.4616  1.6092
  148MOL   H24035814   4.381   6.230   3.213  0.2457 -0.9551 -0.0982
  148MOL   H24135815   4.507   6.525   3.301  1.0523 -0.2062  0.1142
  148MOL   H24235816   4.198   6.359   3.133  0.4294 -0.3313  1.8219
  149MOL     C135817   6.629   0.695   6.952  0.0216  0.8780  0.3907
  149MOL     C235818   6.524   0.623   7.035 -0.0280  0.0275 -0.3977
  149MOL     C335819   6.442   0.536   6.927 -0.5699  0.6555 -0.8508
  149MOL     C435820   6.593   0.524   7.137  0.0559  0.1878 -0.6249
  149MOL     O535821   6.714   0.527   7.158 -0.0182 -0.5233 -0.8184
  149MOL     O635822   6.514   0.431   7.192  0.0998  0.0927 -0.1957
  149MOL     H735823   6.574   0.760   6.885  0.9768 -0.7262 -2.0112
  149MOL     H835824   6.680   0.628   6.883  1.4786  1.6030  0.7522
  149MOL     H935825   6.508   0.458   6.888 -0.8260 -0.0905  0.1735
  149MOL    H1035826   6.396   0.599   6.851 -0.5759  2.0258  0.2623
  149MOL    H1135827   6.360   0.486   6.978  0.9722 -2.1423 -1.0269
  149MOL    H1235828   6.574   0.376   7.240 -1.1868  0.6010  2.0745
  149MOL    H1335829   6.707   0.753   7.002 -0.9245  2.9444 -0.4581
  149MOL    C1435830   6.425   0.713   7.110  0.1092 -0.8770 -0.7074
  149MOL    C1535831   6.466   0.829   7.214 -0.2046 -0.5318 -0.1565
  149MOL    C1635832   6.553   0.765   7.334  0.7240 -0.7500 -0.1646
  149MOL    C1735833   6.543   0.934   7.136 -0.7418  0.0238 -0.2783
  149MOL    O1835834   6.654   0.983   7.168 -0.6483  1.2543  0.3370
  149MOL    O1935835   6.467   0.973   7.026  0.1072  0.0263  0.2017
  149MOL    H2035836   6.362   0.751   7.030  1.6269 -1.0373 -1.9799
  149MOL    H2135837   6.358   0.645   7.164 -1.5039 -1.1014 -2.9425
  149MOL    H2235838   6.654   0.735   7.308  1.3158  0.2054  1.0111
  149MOL    H2335839   6.504   0.682   7.385 -1.3183  0.7694  0.3936
  149MOL    H2435840   6.579   0.839   7.409  0.8984  0.8314 -1.7330
  149MOL    H2535841   6.500   1.050   6.983 -2.4270  0.4763 -1.0344
  149MOL    C2635842   6.338   0.909   7.270 -0.3338  0.4097  0.3038
  149MOL    C2735843   6.213   0.841   7.328 -0.4996  0.4998 -0.2248
  149MOL    C2835844   6.124   0.955   7.392 -0.4980 -1.0089 -0.5539
  149MOL    C2935845   6.128   0.779   7.211  0.4992 -0.5259 -0.0762
  149MOL    O3035846   6.101   0.659   7.195  0.5423  0.0695  0.3381
  149MOL    O3135847   6.086   0.880   7.125  0.4233 -0.6593  0.2007
  149MOL    H3235848   6.374   0.985   7.339  0.3256  0.5745 -0.2149
  149MOL    H3335849   6.300   0.967   7.186 -1.3704 -0.2636  0.2986
  149MOL    H3435850   6.163   0.981   7.490  0.5860 -0.7749 -1.0417
  149MOL    H3535851   6.024   0.915   7.414  0.2270 -1.8290  1.3077
  149MOL    H3635852   6.111   1.049   7.339 -1.6000 -0.0494  1.3514
  149MOL    H3735853   6.026   0.845   7.062  1.0504 -1.1900 -0.1022
  149MOL    C3835854   6.265   0.729   7.439  0.1096 -0.0587 -0.1183
  149MOL    C3935855   6.187   0.669   7.565  0.3698  0.4366 -0.4281
  149MOL    C4035856   6.138   0.774   7.671  0.3362  0.0830  0.0869
  149MOL    C4135857   6.066   0.591   7.519 -0.6992 -0.5819 -0.1804
  149MOL    O4235858   5.947   0.639   7.534  0.9559  0.6077  0.1169
  149MOL    O4335859   6.097   0.473   7.461  0.5905  0.0138 -0.2510
  149MOL    H4435860   6.290   0.644   7.376  0.9011  0.6744 -0.8140
  149MOL    H4535861   6.355   0.779   7.474  0.8428 -0.5853 -1.2184
  149MOL    H4635862   6.214   0.837   7.717 -1.3291  1.4499  1.0131
  149MOL    H4735863   6.091   0.721   7.754  0.2102  0.6087  0.3557
  149MOL    H4835864   6.067   0.846   7.629 -2.5736 -2.0972  1.0622
  149MOL    H4935865   6.011   0.441   7.437  0.0124  1.4251 -0.1734
  149MOL    C5035866   6.295   0.562   7.624  0.1752 -0.2352 -0.8019
  149MOL    C5135867   6.317   0.515   0.006 -0.1558  0.8025  0.1388
  149MOL    C5235868   6.370   0.627   0.097 -0.1460 -0.5289 -0.2369
  149MOL    C5335869   6.180   0.473   0.050 -0.2786  0.7499 -0.7365
  149MOL    O5435870   6.122   0.518   0.150 -0.4235 -0.3648 -0.7838
  149MOL    O5535871   6.131   0.376   7.741 -0.2837 -0.3760 -0.2486
  149MOL    H5635872   6.301   0.477   7.556  2.0038 -0.8241  0.0622
  149MOL    H5735873   6.393   0.607   7.607 -0.1724  0.1992 -1.7023
  149MOL    H5835874   6.411   0.580   0.187  1.0948 -0.1476 -0.5894
  149MOL    H5935875   6.293   0.691   0.139 -1.7682 -1.6589 -1.4423
  149MOL    H6035876   6.442   0.695   0.051 -1.2942  1.2300  0.5016
  149MOL    H6135877   6.043   0.366   0.006 -0.9976  0.4245 -1.8934
  149MOL    C6235878   6.411   0.387   0.016  0.1254  0.2953 -0.2405
  149MOL    C6335879   6.545   0.372   7.699 -0.1275 -0.3975 -0.2544
  149MOL    C6435880   6.620   0.247   7.750  0.2876 -0.1835  0.4371
  149MOL    C6535881   6.522   0.339   7.551 -0.0289 -0.7076 -0.0462
  149MOL    O6635882   6.586   0.378   7.454  0.0627 -0.5461  0.0891
  149MOL    O6735883   6.427   0.249   7.539 -0.3468  0.3324 -0.1422
  149MOL    H6835884   6.431   0.370   0.122 -0.7000 -4.4505 -0.7311
  149MOL    H6935885   6.368   0.290   7.758  1.7395 -1.0650  2.0312
  149MOL    H7035886   6.712   0.215   7.701  1.7998  0.5629  2.6958
  149MOL    H7135887   6.557   0.158   7.751 -0.6382  0.4278 -1.2502
  149MOL    H7235888   6.665   0.252   0.082  2.4530 -2.4849 -0.3807
  149MOL    H7335889   6.415   0.234   7.447  0.5837  2.2773 -0.5856
  149MOL    C7435890   6.631   0.503   7.719  0.4424  0.0438  0.3327
  149MOL    C7535891   6.784   0.514   7.732  0.2827 -0.2158  0.3876
  149MOL    C7635892   6.811   0.669   7.745 -0.6134 -0.1613 -0.4761
  149MOL    C7735893   6.837   0.459   0.099 -0.7904 -0.3585 -0.9105
  149MOL    O7835894   6.918   0.363   0.106  0.3117  0.4224 -0.1634
  149MOL    O7935895   6.780   0.513   0.212  0.4214  0.0757  0.1551
  149MOL    H8035896   6.593   0.580   7.651  0.5381  1.6072  1.9951
  149MOL    H8135897   6.598   0.541   0.048 -2.4383  0.0971 -0.6382
  149MOL    H8235898   6.800   0.721   7.649 -0.4452 -2.2090 -1.6399
  149MOL    H8335899   6.912   0.692   0.012 -1.0971 -0.5843  1.2862
  149MOL    H8435900   6.749   0.714   0.055 -1.9591 -1.4404 -0.7886
  149MOL    H8535901   6.827   0.481   0.288 -1.4650  1.4127  1.9325
  149MOL    C8635902   6.845   0.456   7.600  0.4969  0.6568 -0.3374
  149MOL    C8735903   7.001   0.428   7.568  0.5107  1.0303  0.1442
  149MOL    C8835904   7.088   0.545   7.624 -0.1138  0.4919  1.3049
  149MOL    C8935905   7.045   0.291   7.617 -0.0661 -0.3175 -0.1640
  149MOL    O9035906   7.140   0.279   7.695 -0.0186  0.0906  1.1504
  149MOL    O9135907   6.966   0.191   7.575  0.0953  0.4663  0.0318
  149MOL    H9235908   6.798   0.359   7.581  3.6831 -1.1476  0.6361
  149MOL    H9335909   6.816   0.522   7.519  0.3182  0.8311 -0.1313
  149MOL    H9435910   7.092   0.528   7.732 -0.5795 -1.4982  1.0137
  149MOL    H9535911   7.045   0.640   7.592  0.7785 -0.0431 -1.5472
  149MOL    H9635912   7.189   0.538   7.585 -0.5797  1.7086 -0.1617
  149MOL    H9735913   6.993   0.107   7.608  0.0567  0.6499  0.5341
  149MOL    C9835914   7.010   0.432   7.409 -0.0675 -0.8686  0.0664
  149MOL    C9935915   7.130   0.373   7.319 -0.9724 -0.0272 -0.4234
  149MOL   C10035916   7.133   0.465   7.200 -0.0043  0.0562 -0.4765
  149MOL   C10135917   7.268   0.372   7.391 -0.6700 -0.0099 -1.3686
  149MOL   O10235918   7.342   0.473   7.375  0.4247 -0.0599 -0.9998
  149MOL   O10335919   7.305   0.260   7.466  0.7965 -0.0437  0.2684
  149MOL   H10435920   6.919   0.378   7.382 -1.0153  0.7828 -0.1291
  149MOL   H10535921   6.985   0.532   7.374 -0.8584 -1.0962 -0.0364
  149MOL   H10635922   7.139   0.569   7.232 -0.1111  0.1290 -0.6886
  149MOL   H10735923   7.040   0.463   7.143 -0.6419  1.1895  0.5038
  149MOL   H10835924   7.207   0.441   7.122 -1.1109 -0.8146 -1.2726
  149MOL   H10935925   7.398   0.257   7.482  0.7303  1.3412  0.9430
  149MOL   C11035926   7.099   0.221   7.269 -0.5689  0.1526  0.3253
  149MOL   C11135927   7.179   0.145   7.154  0.1567  0.1984 -0.0739
  149MOL   C11235928   7.136   0.188   7.008  0.5208 -0.0156  0.0924
  149MOL   C11335929   7.339   0.138   7.154  0.3152  0.2303  1.0310
  149MOL   O11435930   7.403   0.038   7.142 -0.0468  0.1062 -0.2453
  149MOL   O11535931   7.396   0.259   7.161 -0.1410 -0.5180 -0.0805
  149MOL   H11635932   7.098   0.152   7.353 -0.6931 -0.7833 -0.4463
  149MOL   H11735933   6.993   0.221   7.243 -1.2192  1.8439  2.7610
  149MOL   H11835934   7.042   0.242   7.002 -0.1863 -1.3538 -1.1904
  149MOL   H11935935   7.116   0.105   6.940  0.7107  1.6212 -2.0492
  149MOL   H12035936   7.191   0.268   6.958 -0.6613 -1.6936 -4.1314
  149MOL   H12135937   7.490   0.257   7.149 -0.1542  1.0323 -0.4898
  149MOL   C12235938   7.131   7.758   7.167 -0.7522  0.1534 -0.2092
  149MOL   C12335939   6.980   7.706   7.170  0.3497  0.1795  0.2884
  149MOL   C12435940   6.893   7.765   7.058 -0.7406 -0.5178  0.2297
  149MOL   C12535941   6.991   7.550   7.139  0.0355  0.1185  0.6608
  149MOL   O12635942   6.919   7.487   7.060  0.8040 -0.8898 -0.0270
  149MOL   O12735943   7.091   7.491   7.208 -0.2688 -0.2903 -0.3223
  149MOL   H12835944   7.190   7.703   7.095 -1.7419  0.3681 -1.1968
  149MOL   H12935945   7.173   7.729   7.263 -0.8412  2.3105  0.5256
  149MOL   H13035946   6.796   7.717   7.044  0.6601 -2.1350 -4.8932
  149MOL   H13135947   6.934   7.765   6.957 -1.2392  1.0894  0.0165
  149MOL   H13235948   6.867   0.100   7.087  0.3783 -0.2240  0.2297
  149MOL   H13335949   7.100   7.397   7.197 -0.0263 -0.0895 -1.9624
  149MOL   C13435950   6.913   7.730   7.311  0.4308  1.0704 -0.4595
  149MOL   C13535951   6.786   7.650   7.370 -0.0225  0.0677  0.3137
  149MOL   C13635952   6.763   7.740   7.498  0.2064  0.3197 -0.0874
  149MOL   C13735953   6.663   7.668   7.281 -0.8341  0.9694 -0.5539
  149MOL   O13835954   6.598   7.571   7.244  0.7558 -0.3344 -0.5931
  149MOL   O13935955   6.648   0.030   7.246  0.3019  0.9298 -0.9493
  149MOL   H14035956   6.984   7.706   7.390 -0.5746  2.9919  1.0719
  149MOL   H14135957   6.894   0.070   7.316 -3.7267  0.5804 -3.0204
  149MOL   H14235958   6.840   7.727   7.573  0.4493 -0.0372 -0.4012
  149MOL   H14335959   6.676   7.706   7.556  1.1883  0.3695  1.4505
  149MOL   H14435960   6.755   0.079   7.474  1.3820  0.8297  1.7228
  149MOL   H14535961   6.569   0.036   7.194 -1.9270 -1.3775  1.9845
  149MOL   C14635962   6.819   7.494   7.401  0.7264  0.0923 -0.4007
  149MOL   C14735963   6.745   7.409   7.519  0.6832 -0.3519  0.7200
  149MOL   C14835964   6.589   7.449   7.547 -0.6933  0.7730  0.7366
  149MOL   C14935965   6.750   7.258   7.489 -0.7942  0.5360 -0.3641
  149MOL   O15035966   6.655   7.189   7.465  0.4366  0.2393  0.5195
  149MOL   O15135967   6.876   7.218   7.472  0.3063 -0.2253 -0.0507
  149MOL   H15235968   6.815   7.436   7.309 -0.3797  1.6258 -1.3323
  149MOL   H15335969   6.925   7.500   7.429  0.0922  0.5216  2.0545
  149MOL   H15435970   6.596   7.530   7.620  1.7879 -0.0014  1.4373
  149MOL   H15535971   6.533   7.366   7.589  1.0806 -0.8510 -0.0317
  149MOL   H15635972   6.531   7.487   7.463 -1.6167  1.5498  1.7095
  149MOL   H15735973   6.875   7.141   7.417  0.5268 -0.7133  0.6191
  149MOL   C15835974   6.824   7.442   7.652  0.4227  0.6006  0.2038
  149MOL   C15935975   6.821   7.352   0.018 -0.7483 -0.0259 -1.2149
  149MOL   C16035976   6.674   7.291   0.037 -0.4233  0.4882  0.0670
  149MOL   C16135977   6.921   7.236   0.007 -0.0843  0.7650 -0.2528
  149MOL   O16235978   7.038   7.261   7.742 -0.0404  0.4676 -0.7659
  149MOL   O16335979   6.866   7.111   0.025 -0.1953 -0.1337 -0.5852
  149MOL   H16435980   6.930   7.462   7.633  0.9410  0.0990  2.4156
  149MOL   H16535981   6.780   7.535   7.686  2.1935  1.8199 -0.7511
  149MOL   H16635982   6.635   7.228   7.724  2.9930 -3.3442  1.2462
  149MOL   H16735983   6.609   7.378   0.051 -1.1183 -0.1739  1.0283
  149MOL   H16835984   6.675   7.224   0.123  1.8771  2.4806  1.6462
  149MOL   H16935985   6.934   7.052   0.051 -0.3608 -0.2574 -0.4315
  149MOL   C17035986   6.872   7.446   0.131  0.1700  0.0394  0.3326
  149MOL   C17135987   6.894   7.417   0.282 -0.4367  0.7499 -0.9865
  149MOL   C17235988   6.773   7.352   0.340 -0.1693 -0.3865  0.3880
  149MOL   C17335989   7.014   7.322   0.317 -0.1332  0.3394 -0.4877
  149MOL   O17435990   7.114   7.360   0.378 -0.4554  0.0298  0.8435
  149MOL   O17535991   6.992   7.186   0.298 -0.0104 -0.1953 -0.0971
  149MOL   H17635992   6.947   7.512   0.087  0.9119 -0.5457  0.7104
  149MOL   H17735993   6.785   7.512   0.135  0.2097  0.0314  1.8374
  149MOL   H17835994   6.785   7.361   0.448  0.5295 -0.7571  0.3457
  149MOL   H17935995   6.767   7.245   0.320  1.2604 -0.1428 -1.5033
  149MOL   H18035996   6.678   7.403   0.324  0.0379  1.2656  3.8198
  149MOL   H18135997   7.056   7.127   0.335  0.2174 -0.3095 -0.6626
  149MOL   C18235998   6.911   7.558   0.349 -0.4629  0.1994  0.1506
  149MOL   C18335999   7.021   7.669   0.313  0.1158  1.3552 -0.6008
  149MOL   C18436000   7.153   7.615   0.250  0.2106 -0.7445 -0.2355
  149MOL   C18536001   6.971   0.019   0.220  0.8433 -0.2504  0.9720
  149MOL   O18636002   6.893   0.001   0.130  0.1092  0.9316  0.8076
  149MOL   O18736003   7.022   0.146   0.247  0.0449 -0.5229 -0.2602
  149MOL   H18836004   6.813   7.603   0.335 -1.1506 -1.1282  0.5788
  149MOL   H18936005   6.914   7.533   0.455 -1.1298  1.2855  0.4315
  149MOL   H19036006   7.141   7.547   0.165 -0.9927  1.2051 -1.6584
  149MOL   H19136007   7.226   7.563   0.311  0.5104 -1.1676 -0.9437
  149MOL   H19236008   7.222   7.696   0.227 -1.7496  0.8645 -0.6537
  149MOL   H19336009   6.988   0.203   0.180 -2.9653 -4.2248 -2.0630
  149MOL   C19436010   7.078   7.725   0.456  0.6938  0.2148  0.0044
  149MOL   C19536011   6.990   0.028   0.569  0.1526  0.6967 -0.5576
  149MOL   C19636012   7.011   7.708   0.698  0.2630 -0.1835 -0.3129
  149MOL   C19736013   7.068   0.164   0.604  0.0898  0.5995  0.1865
  149MOL   O19836014   7.106   0.194   0.718 -0.5618  0.1408 -0.5017
  149MOL   O19936015   7.078   0.248   0.501 -0.0644  0.0192  0.5410
  149MOL   H20036016   7.125   7.645   0.515 -0.7272  0.4340  1.4946
  149MOL   H20136017   7.161   0.022   0.428  0.1899  1.2122  0.7662
  149MOL   H20236018   6.956   7.615   0.691 -1.0546  0.6659 -1.5361
  149MOL   H20336019   6.983   7.764   0.787 -1.9754 -0.2399 -0.9464
  149MOL   H20436020   7.117   7.686   0.710  0.3769  0.6843  0.3186
  149MOL   H20536021   7.043   0.211   0.422 -1.3585 -1.7725  1.9095
  149MOL   C20636022   6.839   0.054   0.528  0.0415  1.5926 -0.4289
  149MOL   C20736023   6.734   0.153   0.594  0.1632 -0.3797  0.4253
  149MOL   C20836024   6.763   0.170   0.748 -0.1940  0.1547  0.1366
  149MOL   C20936025   6.760   0.298   0.532  0.0938  0.2363  0.0851
  149MOL   O21036026   6.816   0.316   0.423 -0.0619 -0.3777  0.3050
  149MOL   O21136027   6.690   0.398   0.588  0.6379 -0.2422 -0.4553
  149MOL   H21236028   6.839   0.074   0.421 -1.2196  0.5521 -0.6369
  149MOL   H21336029   6.794   7.724   0.546  0.0757  1.3421 -1.7174
  149MOL   H21436030   6.862   0.212   0.767  1.1783 -1.6973 -2.6222
  149MOL   H21536031   6.746   0.090   0.820 -3.1473  0.2041 -0.4229
  149MOL   H21636032   6.699   0.240   0.803 -0.3413 -1.5204  2.1577
  149MOL   H21736033   6.685   0.481   0.544  0.4138 -1.0446 -1.9803
  149MOL   C21836034   6.579   0.115   0.576 -0.3195  0.1730 -0.3913
  149MOL   C21936035   6.494   0.106   0.440  0.5759  0.4089 -0.1790
  149MOL   C22036036   6.477   0.247   0.388  0.0387 -0.7324 -0.1609
  149MOL   C22136037   6.569   0.013   0.341 -0.1852  0.1183  0.0455
  149MOL   O22236038   6.575   7.658   0.340 -0.4053  0.2048 -0.4268
  149MOL   O22336039   6.652   0.091   0.265 -0.3265  0.1516  0.4606
  149MOL   H22436040   6.563   0.019   0.624 -0.3631 -0.0414 -0.8283
  149MOL   H22536041   6.526   0.191   0.632 -1.1982 -1.0011  0.3844
  149MOL   H22636042   6.411   0.314   0.443  0.2480 -0.7526  0.1170
  149MOL   H22736043   6.420   0.245   0.295 -2.1155 -2.6775  1.1670
  149MOL   H22836044   6.568   0.303   0.366 -0.2473  0.4770  1.6181
  149MOL   H22936045   6.703   0.032   0.212 -2.4968 -0.3672 -1.1160
  149MOL   C23036046   6.358   0.035   0.456  0.3261  0.0511  0.2871
  149MOL   C23136047   6.264   0.015   0.330  0.1981 -0.1335  0.6933
  149MOL   C23236048   6.200   7.638   0.343 -0.0436 -0.2183 -0.3788
  149MOL   C23336049   6.156   0.128   0.319  0.4973  0.4212 -0.1773
  149MOL   O23436050   6.151   0.220   0.395  0.7560  0.1347  0.6717
  149MOL   O23536051   6.072   0.104   0.223 -0.7576 -0.7330  0.5536
  149MOL   H23636052   6.382   7.701   0.487  0.1800  0.8210  3.0524
  149MOL   H23736053   6.319   0.076   0.549  0.3397 -0.0347  0.3299
  149MOL   H23836054   6.155   7.621   0.441  0.7586 -0.3572 -0.0298
  149MOL   H23936055   6.274   7.561   0.320  3.1120  2.4256  0.5024
  149MOL   H24036056   6.122   7.617   0.270 -1.1060 -1.0784  0.9760
  149MOL   H24136057   5.992   0.153   0.239  1.0458  1.9266  1.8209
  149MOL   H24236058   6.316   0.017   0.234 -1.3435 -0.5304 -0.1625
  150MOL     C136059   1.625   0.417   1.322  0.2407  0.6260 -0.1582
  150MOL     C236060   1.619   0.277   1.259  0.7741 -0.5170 -0.2965
  150MOL     C336061   1.479   0.213   1.292  0.0552 -0.6207 -0.1199
  150MOL     C436062   1.633   0.293   1.104 -0.7501 -0.5477  0.2934
  150MOL     O536063   1.667   0.390   1.043  0.1061  0.0320 -0.2352
  150MOL     O636064   1.599   0.174   1.054  0.0197  0.2135 -0.3189
  150MOL     H736065   1.599   0.402   1.427 -0.8458 -0.4925 -0.5638
  150MOL     H836066   1.538   0.470   1.282  1.1095  0.8406 -1.7921
  150MOL     H936067   1.395   0.264   1.245 -0.2464 -0.7084  0.3331
  150MOL    H1036068   1.462   0.216   1.399  2.8802  0.1611  0.3542
  150MOL    H1136069   1.485   0.109   1.260 -0.4256 -1.1468  1.4661
  150MOL    H1236070   1.596   0.166   0.960  0.6078 -2.2602 -0.1442
  150MOL    H1336071   1.720   0.467   1.309  1.9831 -2.9257 -1.7588
  150MOL    C1436072   1.723   0.192   1.329 -0.1082  0.4353 -0.7103
  150MOL    C1536073   1.877   0.218   1.338  0.4654 -0.1516 -0.3391
  150MOL    C1636074   1.934   0.266   1.202  0.2222 -0.5719 -0.2210
  150MOL    C1736075   1.908   0.333   1.440 -0.5255  0.1352  0.6847
  150MOL    O1836076   1.985   0.430   1.409 -0.4194  0.2958  0.2001
  150MOL    O1936077   1.850   0.315   1.564  0.1273 -0.3733 -0.0160
  150MOL    H2036078   1.693   0.179   1.433  1.9700 -1.4357 -0.3167
  150MOL    H2136079   1.699   0.088   1.306 -0.3851  0.4943 -0.6920
  150MOL    H2236080   1.910   0.186   1.132 -3.5315 -0.9030  1.3013
  150MOL    H2336081   2.035   0.306   1.209  0.2198 -0.6374  0.2290
  150MOL    H2436082   1.892   0.355   1.154  3.0187  1.0297  0.1465
  150MOL    H2536083   1.864   0.387   1.623 -0.8729 -0.4811  0.3599
  150MOL    C2636084   1.953   0.085   1.399 -0.2525 -0.4199  0.4655
  150MOL    C2736085   2.004   7.738   1.312  0.1538 -0.6401  0.3862
  150MOL    C2836086   1.896   7.688   1.214  0.1583 -0.2175  0.5396
  150MOL    C2936087   2.123   0.032   1.231 -0.5670 -0.5862  0.2718
  150MOL    O3036088   2.146   0.023   1.110 -0.5201  0.7090 -0.3971
  150MOL    O3136089   2.203   0.097   1.321  0.7857 -0.2996 -0.2765
  150MOL    H3236090   2.025   0.133   1.465 -1.3149 -0.3982  1.6332
  150MOL    H3336091   1.883   0.043   1.472 -1.4827  0.1649 -0.3539
  150MOL    H3436092   1.817   7.627   1.259  0.0457 -1.1455 -0.8881
  150MOL    H3536093   1.939   7.626   1.136 -1.5500  1.0655 -1.4732
  150MOL    H3636094   1.844   7.766   1.159  1.0574  0.9028  1.2637
  150MOL    H3736095   2.279   0.144   1.290 -0.7436  0.7368 -2.5664
  150MOL    C3836096   2.051   7.623   1.416  0.3177  0.1921 -0.4143
  150MOL    C3936097   2.141   7.497   1.391  0.0493  0.3187 -0.1503
  150MOL    C4036098   2.136   7.408   1.517 -0.0142  0.1693  0.3581
  150MOL    C4136099   2.090   7.418   1.266 -0.0269 -0.2141 -0.3216
  150MOL    O4236100   2.119   7.457   1.157 -0.2111 -0.3514  0.1166
  150MOL    O4336101   2.017   7.312   1.291 -0.2168 -0.0547  0.0231
  150MOL    H4436102   2.100   7.680   1.494 -0.8253  2.4640 -1.3103
  150MOL    H4536103   1.959   7.585   1.462 -0.1256  0.4069 -1.1110
  150MOL    H4636104   2.190   7.313   1.513 -1.1341 -0.4164 -1.6282
  150MOL    H4736105   2.030   7.387   1.533  0.2340 -2.6196 -1.4279
  150MOL    H4836106   2.181   7.455   1.605  0.3649  2.6500 -1.1267
  150MOL    H4936107   2.003   7.267   1.209 -0.6533 -2.6473  1.4581
  150MOL    C5036108   2.294   7.547   1.375 -0.2807 -0.2392 -0.0968
  150MOL    C5136109   2.423   7.451   1.374  0.1763 -0.0326  0.3386
  150MOL    C5236110   2.395   7.322   1.289 -0.3237 -0.5429 -0.1201
  150MOL    C5336111   2.523   7.542   1.297 -0.3791 -0.5983  0.4778
  150MOL    O5436112   2.515   7.666   1.310  0.0721 -0.7501  0.2925
  150MOL    O5536113   2.619   7.474   1.217  0.1154 -0.4784  0.0640
  150MOL    H5636114   2.296   7.621   1.295 -1.9648  1.6521  1.5675
  150MOL    H5736115   2.311   7.608   1.464  0.3790  0.0849 -0.4429
  150MOL    H5836116   2.373   7.349   1.185  0.2648  1.4470  0.2662
  150MOL    H5936117   2.307   7.264   1.316 -0.7091 -0.0863 -0.3890
  150MOL    H6036118   2.483   7.257   1.288  0.2608  0.2539 -1.0581
  150MOL    H6136119   2.680   7.527   1.168  1.0816 -1.0896  0.5881
  150MOL    C6236120   2.470   7.414   1.520 -0.2180 -0.0887 -0.5163
  150MOL    C6336121   2.619   7.376   1.553 -0.4672 -0.0077  0.3253
  150MOL    C6436122   2.660   7.255   1.464  0.2161  0.0329  0.0001
  150MOL    C6536123   2.715   7.497   1.532  0.9246  0.1550 -0.0496
  150MOL    O6636124   2.673   7.611   1.557 -0.3449 -0.1679  0.4945
  150MOL    O6736125   2.841   7.468   1.502  0.5285  0.0286  0.0115
  150MOL    H6836126   2.446   7.496   1.587  0.0667 -0.0976 -0.4032
  150MOL    H6936127   2.408   7.328   1.545  0.5939 -0.7191 -0.6647
  150MOL    H7036128   2.754   7.215   1.500  0.4678  0.6958  0.0932
  150MOL    H7136129   2.688   7.290   1.364 -0.1898  1.7731  0.4642
  150MOL    H7236130   2.581   7.181   1.449  0.4730 -0.5178  1.3337
  150MOL    H7336131   2.891   7.548   1.496  0.3426  0.3263  2.0215
  150MOL    C7436132   2.641   7.325   1.698 -0.6417  0.1685 -0.0970
  150MOL    C7536133   2.568   7.368   1.834 -0.1236  0.1268  0.4038
  150MOL    C7636134   2.659   7.286   1.933  0.0555 -0.2410 -0.6351
  150MOL    C7736135   2.584   7.516   1.857 -0.3879 -0.3867  0.2223
  150MOL    O7836136   2.492   7.595   1.856  0.1853 -0.2440 -0.6175
  150MOL    O7936137   2.713   7.547   1.871 -0.0394 -0.0711 -0.0594
  150MOL    H8036138   2.642   7.216   1.701  1.0090  0.1844  0.2057
  150MOL    H8136139   2.748   7.338   1.714 -0.3926 -2.0051  0.1237
  150MOL    H8236140   2.641   7.331   2.030 -2.0509 -1.5107 -0.3898
  150MOL    H8336141   2.764   7.306   1.911 -0.1339  0.3012 -1.0471
  150MOL    H8436142   2.652   7.178   1.943 -0.1294 -0.2359 -0.6969
  150MOL    H8536143   2.734   7.638   1.884  2.1341 -0.5094 -0.3818
  150MOL    C8636144   2.419   7.311   1.833 -0.2879  0.1268  0.4607
  150MOL    C8736145   2.331   7.282   1.964 -0.1518  0.1170  0.2276
  150MOL    C8836146   2.180   7.297   1.916  0.3537 -0.1541  0.2507
  150MOL    C8936147   2.357   7.134   1.996 -0.2673  0.5217 -0.6676
  150MOL    O9036148   2.299   7.038   1.947 -0.0456  0.0928  0.0683
  150MOL    O9136149   2.455   7.115   2.082 -0.0369  0.1899 -0.2659
  150MOL    H9236150   2.365   7.384   1.772  0.7659  2.1095  1.8197
  150MOL    H9336151   2.428   7.222   1.772  1.7528  1.8953 -1.9247
  150MOL    H9436152   2.107   7.255   1.984 -1.0617 -0.6441 -1.5159
  150MOL    H9536153   2.150   7.251   1.821  1.6793 -1.1559  0.2972
  150MOL    H9636154   2.163   7.403   1.896  1.6854 -0.0420 -0.3816
  150MOL    H9736155   2.459   7.021   2.094 -0.5581  0.0469 -1.1034
  150MOL    C9836156   2.362   7.382   2.079 -0.0777  0.2287  0.3930
  150MOL    C9936157   2.277   7.404   2.206 -0.4985 -0.0147 -0.3335
  150MOL   C10036158   2.248   7.265   2.262  0.2442  0.5788 -0.0501
  150MOL   C10136159   2.365   7.478   2.315  0.1356 -0.1531 -0.0577
  150MOL   O10236160   2.379   7.442   2.432  0.0908 -0.2989  0.2351
  150MOL   O10336161   2.436   7.583   2.276 -0.1634 -0.0549  0.3612
  150MOL   H10436162   2.466   7.373   2.110  0.0387  0.2975  0.0290
  150MOL   H10536163   2.376   7.480   2.034 -0.3626  1.1266  2.2201
  150MOL   H10636164   2.347   7.219   2.272 -0.9207 -1.6216  2.0132
  150MOL   H10736165   2.193   7.208   2.187 -2.5299 -0.0381  2.3744
  150MOL   H10836166   2.201   7.255   2.360  0.6524 -0.5922  0.0373
  150MOL   H10936167   2.503   7.602   2.340  1.0847  2.0051 -1.4791
  150MOL   C11036168   2.147   7.484   2.183  0.4582 -0.2508  0.8079
  150MOL   C11136169   2.031   7.523   2.288  0.0895  0.2478  0.4203
  150MOL   C11236170   2.034   7.434   2.415 -0.0012  0.0563  0.1014
  150MOL   C11336171   2.049   7.662   2.353  0.0474  0.0564  0.1479
  150MOL   O11436172   2.157   7.724   2.347  0.0847  0.7249  0.2482
  150MOL   O11536173   1.935   7.723   2.388  0.0478  0.1103  0.1546
  150MOL   H11636174   2.162   7.569   2.116 -2.1598  0.3651  0.9379
  150MOL   H11736175   2.088   7.428   2.110  0.1006  0.8388  0.2523
  150MOL   H11836176   1.964   7.465   2.493  0.5533  1.0144  0.2299
  150MOL   H11936177   2.127   7.442   2.471 -0.3964  0.0933  0.7588
  150MOL   H12036178   2.006   7.330   2.399  1.2638 -0.7400  2.8344
  150MOL   H12136179   1.967   0.043   2.406  0.4436 -0.1495  0.7190
  150MOL   C12236180   1.886   7.504   2.219 -0.5117  0.0608 -0.5505
  150MOL   C12336181   1.831   7.584   2.095  0.1918  0.0525 -0.5199
  150MOL   C12436182   1.794   7.481   1.984  0.6435  0.3068 -0.2989
  150MOL   C12536183   1.702   7.652   2.140  0.2314 -0.1653 -0.3473
  150MOL   O12636184   1.585   7.622   2.107 -0.2612 -0.0687  0.6486
  150MOL   O12736185   1.727   7.761   2.219 -1.0022 -0.1293 -0.0833
  150MOL   H12836186   1.893   7.400   2.186 -0.0318 -0.2573  0.5329
  150MOL   H12936187   1.816   7.500   2.302  1.2150 -1.5338  0.8706
  150MOL   H13036188   1.748   7.392   2.025  0.7645  1.2302  1.9119
  150MOL   H13136189   1.879   7.443   1.927  0.6411  0.0906 -0.1568
  150MOL   H13236190   1.714   7.525   1.924 -1.0389 -0.4954  1.3097
  150MOL   H13336191   1.821   7.767   2.228 -1.1819  1.1521  1.0964
  150MOL   C13436192   1.936   7.684   2.032  0.3528  0.9883  0.4625
  150MOL   C13536193   1.901   0.017   1.908  0.3011  0.4999  0.0463
  150MOL   C13636194   1.794   7.733   1.807 -0.4305 -0.2735 -0.4154
  150MOL   C13736195   1.842   0.151   1.964 -0.2846 -0.5247  0.1630
  150MOL   O13836196   1.871   0.187   2.078  0.3037  0.5530  0.0015
  150MOL   O13936197   1.766   0.228   1.878  0.2408 -0.1137 -0.3819
  150MOL   H14036198   2.003   7.730   2.106  0.0904 -0.2844  1.5009
  150MOL   H14136199   2.012   7.622   1.984 -0.1608 -0.5512  1.6038
  150MOL   H14236200   1.832   7.649   1.748  3.3239  0.6160  0.6219
  150MOL   H14336201   1.784   0.039   1.727  0.4983 -1.5436 -1.7325
  150MOL   H14436202   1.695   7.705   1.843 -0.0343 -2.1205 -0.7187
  150MOL   H14536203   1.727   0.303   1.920  0.2873  0.4238 -1.2888
  150MOL   C14636204   2.031   0.042   1.814 -0.0880 -0.2188 -0.1297
  150MOL   C14736205   2.149   0.135   1.858 -0.2856  0.9758 -0.4424
  150MOL   C14836206   2.096   0.283   1.843  0.6335  0.0004  0.9473
  150MOL   C14936207   2.188   0.101   2.000 -0.1537  0.5586  0.8655
  150MOL   O15036208   2.157   0.171   2.096 -0.1902  0.3105  0.3180
  150MOL   O15136209   2.251   7.753   2.003  0.3601 -0.5531  0.3908
  150MOL   H15236210   2.071   7.709   1.797 -1.4199 -1.1340  1.8312
  150MOL   H15336211   1.997   0.069   1.714  2.3333 -2.5909 -1.6283
  150MOL   H15436212   2.024   0.327   1.913  1.1211  1.5142  0.5318
  150MOL   H15536213   2.043   0.289   1.748  2.1774  1.7242  0.1406
  150MOL   H15636214   2.176   0.355   1.861  0.7551 -0.0004  0.4064
  150MOL   H15736215   2.294   7.737   2.085  1.9149  2.2893  0.1935
  150MOL   C15836216   2.272   0.114   1.754  0.0186  0.6880 -0.2388
  150MOL   C15936217   2.402   0.200   1.729 -0.7504 -0.0738 -0.3021
  150MOL   C16036218   2.457   0.233   1.873  0.0507 -0.3098 -0.8586
  150MOL   C16136219   2.514   0.113   1.660  0.2104  0.2052 -0.5992
  150MOL   O16236220   2.638   0.126   1.678  0.1007 -0.4013 -0.0973
  150MOL   O16336221   2.461   0.025   1.566 -0.5544 -0.1226 -0.4075
  150MOL   H16436222   2.304   0.011   1.773  0.5674  0.6360 -1.3558
  150MOL   H16536223   2.231   0.090   1.656  1.2655  0.6875 -0.7739
  150MOL   H16636224   2.394   0.283   1.946  2.7077  1.5495  0.2511
  150MOL   H16736225   2.551   0.288   1.871 -1.1508  1.8258  0.0768
  150MOL   H16836226   2.475   0.134   1.915 -0.2682  0.1476  0.3771
  150MOL   H16936227   2.530   7.749   1.519 -1.8453 -0.8047 -1.7126
  150MOL   C17036228   2.372   0.321   1.630 -0.2015  0.5400  0.0017
  150MOL   C17136229   2.448   0.458   1.636 -0.2361  0.7579  0.3022
  150MOL   C17236230   2.602   0.448   1.620  0.4268  0.5052 -0.0553
  150MOL   C17336231   2.393   0.545   1.519  0.0104  0.2337  0.1281
  150MOL   O17436232   2.465   0.605   1.435 -0.0829 -0.1750  0.1283
  150MOL   O17536233   2.254   0.557   1.524 -0.2784  0.2102 -0.5829
  150MOL   H17636234   2.380   0.282   1.528 -1.3881  0.0823  0.0829
  150MOL   H17736235   2.266   0.343   1.636 -0.3510  0.0668 -0.8715
  150MOL   H17836236   2.638   0.376   1.547  2.0749  1.6849 -0.4232
  150MOL   H17936237   2.644   0.407   1.712  1.3745  0.6807 -0.4098
  150MOL   H18036238   2.651   0.536   1.578  1.0823  0.1488 -0.0433
  150MOL   H18136239   2.220   0.625   1.467 -2.9731  1.2696  2.1142
  150MOL   C18236240   2.398   0.532   1.768  0.1373  0.5555 -0.3452
  150MOL   C18336241   2.433   0.682   1.817  0.1232 -0.1270 -0.0715
  150MOL   C18436242   2.367   0.793   1.719  0.0595  0.1477  0.2890
  150MOL   C18536243   2.348   0.699   1.949 -1.1445  0.8203  0.4274
  150MOL   O18636244   2.257   0.778   1.974  0.0614  0.6602 -0.8969
  150MOL   O18736245   2.390   0.604   2.040 -0.3522 -0.3421 -0.1998
  150MOL   H18836246   2.291   0.533   1.787  0.1152  2.8569 -0.4356
  150MOL   H18936247   2.430   0.466   1.849  1.4402  0.6104 -0.7955
  150MOL   H19036248   2.412   0.793   1.619 -2.5520  2.3749 -0.9436
  150MOL   H19136249   2.380   0.896   1.752  0.6767  1.1082 -2.7261
  150MOL   H19236250   2.261   0.781   1.697  0.2673 -0.1070 -0.6020
  150MOL   H19336251   2.325   0.593   2.107 -1.1220  0.7688 -0.7709
  150MOL   C19436252   2.587   0.708   1.838 -0.2834 -0.3196 -0.7566
  150MOL   C19536253   2.673   0.843   1.854 -0.0382  0.4559 -0.1458
  150MOL   C19636254   2.652   0.933   1.728 -0.1036  0.3022  0.6646
  150MOL   C19736255   2.625   0.926   1.976 -0.5576  0.4065 -0.1134
  150MOL   O19836256   2.550   0.877   2.065 -0.6448  0.7972  0.2788
  150MOL   O19936257   2.686   1.050   1.986 -0.2849  0.1712  0.0932
  150MOL   H20036258   2.619   0.647   1.923  0.5414  0.8953 -0.1847
  150MOL   H20136259   2.636   0.659   1.754  1.1902  1.5753 -1.0415
  150MOL   H20236260   2.655   0.885   1.631 -1.7245  2.2104 -0.3588
  150MOL   H20336261   2.727   1.012   1.724 -0.6797  0.8050 -0.3067
  150MOL   H20436262   2.554   0.981   1.739 -1.0059 -0.7892 -2.2583
  150MOL   H20536263   2.652   1.100   2.058 -0.9830  2.1614 -1.5815
  150MOL   C20636264   2.824   0.820   1.851  0.2704  0.3494 -0.0891
  150MOL   C20736265   2.893   0.727   1.956 -0.2553 -0.3823  0.1937
  150MOL   C20836266   2.858   0.765   2.106  0.4860  0.1994 -0.3360
  150MOL   C20936267   2.855   0.576   1.920  0.3264 -0.2648  0.7255
  150MOL   O21036268   2.887   0.521   1.812  0.3201 -0.0187 -0.5443
  150MOL   O21136269   2.794   0.518   2.023  0.1948 -0.3524  0.4762
  150MOL   H21236270   2.848   0.788   1.750  2.2991  2.7584 -0.4190
  150MOL   H21336271   2.874   0.916   1.864 -0.8228  0.7127  1.6310
  150MOL   H21436272   2.882   0.871   2.119  1.3273 -0.0189 -0.0441
  150MOL   H21536273   2.913   0.704   2.177  2.0348  0.6441 -1.1371
  150MOL   H21636274   2.754   0.754   2.135  1.0355 -0.1570  1.5682
  150MOL   H21736275   2.777   0.572   2.099 -2.6936 -1.3121  0.5983
  150MOL   C21836276   3.051   0.734   1.929  0.0024 -0.1458  0.3384
  150MOL   C21936277   3.166   0.709   2.043 -0.2269  0.7880  0.1411
  150MOL   C22036278   3.187   0.833   2.132  0.1101  0.5790  0.3308
  150MOL   C22136279   3.142   0.575   2.128 -0.7215  0.3898 -0.3143
  150MOL   O22236280   3.124   0.574   2.248 -0.4900  0.5600 -0.3592
  150MOL   O22336281   3.129   0.458   2.055  0.1755  0.4551 -0.0635
  150MOL   H22436282   3.078   0.661   1.853  1.9072  0.1921  0.6665
  150MOL   H22536283   3.072   0.834   1.890  1.0887 -0.4855  0.0387
  150MOL   H22636284   3.209   0.926   2.079  0.8028 -0.0057 -0.4141
  150MOL   H22736285   3.268   0.823   2.204  0.1409 -0.7045  0.1222
  150MOL   H22836286   3.095   0.852   2.188 -1.4168  1.0404 -2.2265
  150MOL   H22936287   3.144   0.460   1.962 -0.2472  2.6558 -0.1149
  150MOL   C23036288   3.300   0.688   1.955  0.2454  0.7517 -0.6436
  150MOL   C23136289   3.425   0.654   2.037 -0.3526 -0.1390  0.3690
  150MOL   C23236290   3.495   0.523   2.002  0.2862 -0.2878  0.8743
  150MOL   C23336291   3.533   0.764   2.031  0.2105  0.1988  0.6480
  150MOL   O23436292   3.564   0.835   2.133  0.3943  0.0618  0.3132
  150MOL   O23536293   3.574   0.783   1.902 -0.7279 -0.4326  0.4297
  150MOL   H23636294   3.300   0.609   1.880 -0.6662  1.3343 -1.2737
  150MOL   H23736295   3.320   0.781   1.903 -0.6324  2.2355  1.6155
  150MOL   H23836296   3.435   0.442   2.044  0.8599 -0.4320  1.4143
  150MOL   H23936297   3.592   0.522   2.051  0.4976 -3.2744  0.4687
  150MOL   H24036298   3.501   0.518   1.893 -0.7613 -1.9643  0.8741
  150MOL   H24136299   3.618   0.866   1.890  1.8785 -1.5054  2.1600
  150MOL   H24236300   3.404   0.657   2.144  1.3954  0.4914  0.7108
  151MOL     C136301   0.267   0.663   2.976  0.2795  0.4599 -0.0957
  151MOL     C236302   0.200   0.713   2.844 -0.3074  0.9984  0.1675
  151MOL     C336303   0.137   0.593   2.779 -0.9261  0.1595 -0.1919
  151MOL     C436304   0.090   0.812   2.872  0.0956  0.2456 -0.4205
  151MOL     O536305   0.067   0.911   2.800  0.2053  0.4334  0.2980
  151MOL     O636306   0.014   0.780   2.981 -0.3046 -0.3334 -0.4055
  151MOL     H736307   0.307   0.747   3.033 -0.0812  0.7729 -0.3113
  151MOL     H836308   0.348   0.590   2.966  1.2016  1.4067  0.2948
  151MOL     H936309   0.056   0.552   2.841 -0.0323  0.7281  1.3942
  151MOL    H1036310   0.209   0.513   2.768 -0.5186  0.7639 -2.0955
  151MOL    H1136311   0.097   0.629   2.684 -0.8727  2.3519  0.5770
  151MOL    H1236312   7.728   0.856   2.999  0.4611  0.1081  0.0036
  151MOL    H1336313   0.207   0.609   3.049  3.5968 -0.9744  1.7304
  151MOL    C1436314   0.309   0.785   2.749  0.0701  0.4293 -0.9755
  151MOL    C1536315   0.426   0.885   2.801 -0.3505  0.3541 -0.9734
  151MOL    C1636316   0.365   1.023   2.871 -0.0295  0.4382 -0.2998
  151MOL    C1736317   0.518   0.824   2.907  0.6554  0.0119  0.1753
  151MOL    O1836318   0.521   0.867   3.022  0.0686 -0.0055  0.2631
  151MOL    O1936319   0.576   0.706   2.859  0.0819  0.4306 -0.1102
  151MOL    H2036320   0.356   0.690   2.724  0.0763 -0.1522  1.1354
  151MOL    H2136321   0.262   0.824   2.659 -2.3214  1.2979  0.6035
  151MOL    H2236322   0.297   1.077   2.805  0.7006  2.3731  0.5061
  151MOL    H2336323   0.439   1.095   2.907 -1.1922  1.0251  0.9446
  151MOL    H2436324   0.316   0.988   2.961  1.6270 -0.8127  0.1637
  151MOL    H2536325   0.603   0.664   2.939 -0.3640  2.5806  1.1875
  151MOL    C2636326   0.523   0.917   2.680  0.7039 -0.0208 -0.0959
  151MOL    C2736327   0.521   1.046   2.591 -0.2371  0.0772 -0.0702
  151MOL    C2836328   0.554   1.179   2.675  0.9911  0.2664  0.9304
  151MOL    C2936329   0.634   1.040   2.490 -0.0169  0.1218 -1.0173
  151MOL    O3036330   0.736   1.102   2.495 -0.0631  0.1319  0.1217
  151MOL    O3136331   0.611   0.941   2.400  0.2009 -0.2797 -0.7902
  151MOL    H3236332   0.627   0.906   2.711  0.8340 -0.7578 -0.7632
  151MOL    H3336333   0.513   0.827   2.619 -4.2731 -0.5458  1.2191
  151MOL    H3436334   0.620   1.249   2.623 -0.8928  0.0778 -1.8645
  151MOL    H3536335   0.608   1.138   2.760 -0.0792 -1.9057  0.6020
  151MOL    H3636336   0.458   1.229   2.690 -0.6131 -0.9921 -4.1577
  151MOL    H3736337   0.694   0.912   2.367 -0.5146 -3.1822 -0.2035
  151MOL    C3836338   0.385   1.043   2.508 -0.3919  0.2777 -0.1706
  151MOL    C3936339   0.336   1.149   2.401  0.5374  0.5674 -0.2333
  151MOL    C4036340   0.347   1.283   2.468 -0.0862  0.5900  0.5166
  151MOL    C4136341   0.414   1.161   2.269  0.1600 -0.4927  0.5152
  151MOL    O4236342   0.429   1.270   2.209  0.5148  0.0188 -0.0231
  151MOL    O4336343   0.453   1.041   2.221 -0.0770  0.0165  0.3447
  151MOL    H4436344   0.372   0.940   2.476 -0.4645 -0.2506  1.5567
  151MOL    H4536345   0.312   1.037   2.588 -2.0571  2.2162 -1.4793
  151MOL    H4636346   0.310   1.368   2.411 -1.2326  1.4088  2.4361
  151MOL    H4736347   0.447   1.324   2.486 -0.0814  1.7656 -1.9318
  151MOL    H4836348   0.294   1.287   2.563 -1.3346 -0.5819 -0.1139
  151MOL    H4936349   0.436   0.970   2.281 -0.8253 -0.6141 -0.5882
  151MOL    C5036350   0.187   1.118   2.380  0.2744 -0.4418 -0.2595
  151MOL    C5136351   0.081   1.192   2.284 -0.0813  0.0491 -0.7279
  151MOL    C5236352   0.076   1.346   2.308 -0.2565 -0.0716  0.5084
  151MOL    C5336353   0.095   1.170   2.135  0.5089  0.1440 -0.5148
  151MOL    O5436354   0.184   1.106   2.082  0.0891 -0.3429 -0.1151
  151MOL    O5536355   7.763   1.243   2.072 -0.0421 -0.5883  0.0750
  151MOL    H5636356   0.196   1.012   2.355  1.3635 -0.6838  1.1325
  151MOL    H5736357   0.142   1.121   2.479  0.2185  0.1863 -0.3004
  151MOL    H5836358   7.765   1.389   2.247  2.4099  2.8402 -1.0237
  151MOL    H5936359   0.169   1.374   2.258 -0.1949 -0.1628  0.5711
  151MOL    H6036360   0.074   1.377   2.413 -1.0879 -1.0348  0.7808
  151MOL    H6136361   0.040   1.254   1.989 -0.3241  1.4555  0.1689
  151MOL    C6236362   7.702   1.143   2.332 -0.1618 -0.7318 -0.2220
  151MOL    C6336363   7.637   1.001   2.331  0.2014  0.3859  0.1571
  151MOL    C6436364   7.661   0.933   2.197 -0.8072  0.0971  0.2401
  151MOL    C6536365   7.694   0.905   2.439  0.3793  0.3961  0.0246
  151MOL    O6636366   7.713   0.784   2.427  0.3263 -0.2989 -0.3620
  151MOL    O6736367   7.701   0.978   2.556 -0.3414 -0.2396  0.3735
  151MOL    H6836368   7.702   1.177   2.435 -0.9579 -2.2717  0.2954
  151MOL    H6936369   7.631   1.214   2.289 -2.3754 -1.8440  1.4916
  151MOL    H7036370   7.600   0.845   2.177  0.3386 -1.2982  2.6746
  151MOL    H7136371   0.000   0.911   2.188 -1.2284 -1.4380 -1.1640
  151MOL    H7236372   7.644   0.995   2.109 -1.4361 -0.5184 -0.0770
  151MOL    H7336373   7.729   0.919   2.624  2.0487 -1.3050 -1.4455
  151MOL    C7436374   7.480   1.013   2.339  0.2693 -0.1655 -0.1609
  151MOL    C7536375   7.397   1.043   2.470 -0.3414 -0.2961  0.5949
  151MOL    C7636376   7.374   0.911   2.541 -0.2162  0.4963  0.6193
  151MOL    C7736377   7.468   1.146   2.567 -0.4811 -0.3280  0.6736
  151MOL    O7836378   7.489   1.264   2.538 -0.0319 -0.0220 -0.6861
  151MOL    O7936379   7.500   1.103   2.692 -0.3965  0.0497  0.2195
  151MOL    H8036380   7.455   1.080   2.257  1.2765 -1.8417 -1.8683
  151MOL    H8136381   7.443   0.916   2.307 -0.8122 -0.0062  0.5861
  151MOL    H8236382   7.461   0.845   2.539 -0.9400 -0.4469 -0.4910
  151MOL    H8336383   7.302   0.850   2.485  0.2286  0.0936  0.4832
  151MOL    H8436384   7.348   0.913   2.647  0.4319 -0.9846  0.8256
  151MOL    H8536385   7.525   1.180   2.740  1.1291  0.8248 -1.7403
  151MOL    C8636386   7.259   1.105   2.422  0.2585  0.6702  0.1414
  151MOL    C8736387   7.129   1.119   2.511  0.8461 -0.2663 -0.1390
  151MOL    C8836388   7.023   1.198   2.420  0.7423  0.0288  0.4162
  151MOL    C8936389   7.073   0.972   2.532  0.2050 -0.2396  0.2477
  151MOL    O9036390   6.994   0.929   2.453  0.6199 -0.5873 -0.1477
  151MOL    O9136391   7.105   0.905   2.642  0.9294 -0.0373 -0.5480
  151MOL    H9236392   7.295   1.203   2.390  1.6495  0.9538  2.4285
  151MOL    H9336393   7.229   1.042   2.339 -0.3499 -0.2222  1.0189
  151MOL    H9436394   7.012   1.155   2.320  0.5978 -0.8840  0.8155
  151MOL    H9536395   7.049   1.301   2.398 -0.1995 -0.3652 -2.9671
  151MOL    H9636396   6.923   1.198   2.463  1.2462  0.8793  1.5895
  151MOL    H9736397   7.053   0.827   2.652  0.2913  0.0547 -3.0119
  151MOL    C9836398   7.158   1.188   2.653 -0.2271  0.0861  0.6521
  151MOL    C9936399   7.053   1.271   2.743  0.1662 -0.4236 -0.2250
  151MOL   C10036400   6.939   1.177   2.783  0.4795  0.7880  1.1631
  151MOL   C10136401   7.134   1.295   2.873 -0.1339 -0.3407  0.0540
  151MOL   O10236402   7.228   1.372   2.875  0.6293 -0.2230 -0.1790
  151MOL   O10336403   7.096   1.224   2.986  0.2591 -0.0506  0.0908
  151MOL   H10436404   7.205   1.112   2.715  3.5058  0.8463 -1.1193
  151MOL   H10536405   7.234   1.262   2.628 -0.2274  0.6037  2.1546
  151MOL   H10636406   6.853   1.158   2.719  1.9013  0.0125 -0.5893
  151MOL   H10736407   6.889   1.217   2.871  0.1114 -1.9848  2.2519
  151MOL   H10836408   6.980   1.080   2.808  0.0741  0.2509 -0.1838
  151MOL   H10936409   7.175   1.227   3.039  0.8147 -2.9525 -0.5088
  151MOL   C11036410   7.009   1.403   2.671  0.1652  0.2516  1.4051
  151MOL   C11136411   6.955   1.530   2.748 -0.1550 -0.8460 -0.4157
  151MOL   C11236412   6.883   1.493   2.887  0.3074  0.5338  0.1734
  151MOL   C11336413   7.075   1.621   2.784 -0.4122  0.1672 -0.1860
  151MOL   O11436414   7.089   1.669   2.899 -0.1406 -0.1646 -0.6083
  151MOL   O11536415   7.171   1.640   2.685 -0.3270 -0.1646 -0.2392
  151MOL   H11636416   7.085   1.439   2.602  0.1518 -1.4290  0.4753
  151MOL   H11736417   6.931   1.370   2.602  0.4829 -0.0438  1.1917
  151MOL   H11836418   6.830   1.574   2.937  0.0290  0.4865 -0.0413
  151MOL   H11936419   6.948   1.447   2.962 -0.1307  0.6716  0.6428
  151MOL   H12036420   6.816   1.410   2.862  1.7907 -0.1560 -1.6381
  151MOL   H12136421   7.241   1.696   2.714  0.7200 -1.2617 -0.5671
  151MOL   C12236422   6.840   1.600   2.661 -0.6077  0.0319  0.0104
  151MOL   C12336423   6.855   1.704   2.548 -0.2554 -0.3816 -0.4398
  151MOL   C12436424   6.960   1.666   2.445  0.0211 -0.3558 -0.2537
  151MOL   C12536425   6.723   1.693   2.466 -0.3488  0.3543 -0.1665
  151MOL   O12636426   6.713   1.663   2.343  0.1081  0.1793  0.0449
  151MOL   O12736427   6.618   1.729   2.546  0.3996 -0.2038  0.0651
  151MOL   H12836428   6.794   1.515   2.611 -1.2197 -0.2899  1.1105
  151MOL   H12936429   6.772   1.633   2.740  0.4598  0.6987  0.6600
  151MOL   H13036430   6.966   1.722   2.352  1.2870 -1.0142 -0.5839
  151MOL   H13136431   6.949   1.564   2.409  1.0961 -0.4201 -0.4220
  151MOL   H13236432   7.066   1.670   2.471  0.3176 -1.0023 -1.3241
  151MOL   H13336433   6.539   1.736   2.496  0.4073 -0.5080  0.0095
  151MOL   C13436434   6.896   1.849   2.602  0.5880  0.3986  0.1159
  151MOL   C13536435   6.878   1.984   2.533 -0.4555  0.8973 -0.0897
  151MOL   C13636436   6.953   1.974   2.401 -0.0808 -0.0817 -0.0586
  151MOL   C13736437   6.724   2.014   2.507 -0.1670  0.5224  0.0130
  151MOL   O13836438   6.683   2.040   2.398 -0.1144  0.4302 -0.9123
  151MOL   O13936439   6.647   2.012   2.617 -0.7885  0.0140 -0.4235
  151MOL   H14036440   6.834   1.865   2.691  3.0976  0.3317  1.9326
  151MOL   H14136441   7.001   1.838   2.629  0.5003  1.5108  0.9179
  151MOL   H14236442   7.004   2.066   2.373 -1.3295 -0.3665 -3.4200
  151MOL   H14336443   6.887   1.956   2.317  0.1695 -1.5013  0.0415
  151MOL   H14436444   7.036   1.903   2.397 -1.0903 -1.3031  0.5123
  151MOL   H14536445   6.699   1.998   2.695 -0.4614  0.9398 -0.4702
  151MOL   C14636446   6.935   2.102   2.623 -0.3086 -0.2644 -0.5433
  151MOL   C14736447   6.920   2.259   2.592 -0.1774 -0.0709 -0.5917
  151MOL   C14836448   6.926   2.300   2.434 -0.1556  0.8470 -0.0549
  151MOL   C14936449   6.778   2.299   2.646  0.0227  0.1101 -0.9542
  151MOL   O15036450   6.721   2.257   2.747  0.3867  0.5866 -0.3011
  151MOL   O15136451   6.720   2.402   2.574 -0.2585 -0.5332  0.2657
  151MOL   H15236452   6.896   2.096   2.724  0.5538  1.2592 -0.0906
  151MOL   H15336453   7.041   2.080   2.632 -0.3842 -0.7479 -0.8425
  151MOL   H15436454   6.912   2.407   2.421  0.3352  1.0865  1.2925
  151MOL   H15536455   6.834   2.261   2.391 -1.3306 -0.2616  3.2831
  151MOL   H15636456   7.014   2.266   2.379  0.4336  0.1762  1.2878
  151MOL   H15736457   6.635   2.424   2.612 -0.6824 -0.7856 -0.5349
  151MOL   C15836458   7.022   2.345   2.676  0.1325  0.4066  0.1612
  151MOL   C15936459   7.166   2.384   2.629 -0.5389 -0.6900 -0.3439
  151MOL   C16036460   7.135   2.510   2.524  0.0947  0.3583 -0.0476
  151MOL   C16136461   7.224   2.451   2.758 -0.8262 -0.2898  0.4089
  151MOL   O16236462   7.212   2.565   2.794 -0.0756 -0.4989  0.2077
  151MOL   O16336463   7.266   2.364   2.846  0.2220  0.0879  0.2520
  151MOL   H16436464   6.973   2.437   2.708 -0.9428 -0.0659 -0.0985
  151MOL   H16536465   7.032   2.278   2.761  1.1501 -0.1401 -0.3711
  151MOL   H16636466   7.226   2.565   2.503  0.5784 -0.3773  0.1163
  151MOL   H16736467   7.051   2.576   2.546 -2.1244 -1.6919 -2.0291
  151MOL   H16836468   7.112   2.473   2.424 -0.9368  0.4387  0.1533
  151MOL   H16936469   7.261   2.392   2.936  0.9150  1.4656 -0.1270
  151MOL   C17036470   7.254   2.271   2.561 -0.1449 -0.2134 -0.0295
  151MOL   C17136471   7.407   2.286   2.533 -0.3726 -0.1994  0.6781
  151MOL   C17236472   7.447   2.419   2.474  0.2257 -0.1297  0.4394
  151MOL   C17336473   7.496   2.286   2.664 -0.4928  0.1365 -0.0482
  151MOL   O17436474   7.589   2.361   2.695 -0.2004  0.2696  0.1189
  151MOL   O17536475   7.470   2.169   2.734 -0.0831  0.4367  0.1570
  151MOL   H17636476   7.251   2.190   2.634 -1.2598 -0.6440 -0.5390
  151MOL   H17736477   7.195   2.230   2.479  0.6379 -0.0252 -0.6879
  151MOL   H17836478   7.428   2.502   2.542  1.3105  0.4250  0.0694
  151MOL   H17936479   7.393   2.443   2.383 -1.9278 -0.2709  1.6300
  151MOL   H18036480   7.554   2.418   2.454  0.6341  1.8927  2.4026
  151MOL   H18136481   7.535   2.157   2.802 -1.4371  0.7821  1.5556
  151MOL   C18236482   7.457   2.161   2.446 -0.0272 -0.5411 -0.6260
  151MOL   C18336483   7.472   2.157   2.285 -0.7364 -0.1563 -0.2907
  151MOL   C18436484   7.615   2.211   2.252  0.1198 -0.1451 -0.6382
  151MOL   C18536485   7.475   2.009   2.262 -0.5666  0.5402  0.4251
  151MOL   O18636486   7.566   1.953   2.205 -0.6133  0.2986  0.3960
  151MOL   O18736487   7.366   1.937   2.305 -0.1012 -0.0034 -0.1869
  151MOL   H18836488   7.555   2.125   2.478  1.1952  0.4252 -3.0832
  151MOL   H18936489   7.393   2.079   2.480  1.2338 -0.8081  1.1378
  151MOL   H19036490   7.694   2.180   2.320 -2.3702 -2.6315  1.2669
  151MOL   H19136491   7.616   2.320   2.255  0.8401 -0.1890  1.4163
  151MOL   H19236492   7.648   2.188   2.151  0.7126 -1.1212 -0.2253
  151MOL   H19336493   7.362   1.850   2.268  1.4192  0.1402 -0.7176
  151MOL   C19436494   7.360   2.227   2.200 -0.4465 -0.1386 -0.3009
  151MOL   C19536495   7.386   2.275   2.053  0.4781  0.0907 -0.8779
  151MOL   C19636496   7.467   2.411   2.059 -0.1974  0.1858  0.4547
  151MOL   C19736497   7.455   2.171   1.963 -0.1055 -0.4055 -0.2396
  151MOL   O19836498   7.414   2.056   1.944 -0.1958  0.8091 -0.0125
  151MOL   O19936499   7.573   2.218   1.920  0.1919  0.3736  0.0408
  151MOL   H20036500   7.286   2.150   2.180 -1.4336  1.1866 -1.8852
  151MOL   H20136501   7.310   2.305   2.257 -0.6459 -0.9139  0.5943
  151MOL   H20236502   7.445   2.459   2.155  0.6884 -2.1689  1.8629
  151MOL   H20336503   7.464   2.476   1.972  0.9632 -0.7753 -0.3043
  151MOL   H20436504   7.573   2.389   2.064 -0.1704 -0.5636 -2.5232
  151MOL   H20536505   7.626   2.157   1.872  0.2474  0.7802 -0.4218
  151MOL   C20636506   7.243   2.299   1.993  0.5397 -1.0087  0.1142
  151MOL   C20736507   7.148   2.422   2.005  0.3748  0.1519  0.4645
  151MOL   C20836508   7.129   2.466   2.153  0.7008  0.6544  0.2798
  151MOL   C20936509   7.204   2.535   1.913 -0.6501  0.5681  0.4223
  151MOL   O21036510   7.214   2.654   1.947 -0.0507  0.3376 -0.0052
  151MOL   O21136511   7.218   2.500   1.784 -0.2965 -0.1153 -0.2921
  151MOL   H21236512   7.252   2.298   1.884 -2.6987 -2.7544 -0.2274
  151MOL   H21336513   7.186   2.206   2.007 -0.8887  0.1135  2.0209
  151MOL   H21436514   7.116   2.380   2.218 -1.1541  0.5487 -0.1955
  151MOL   H21536515   7.041   2.531   2.152  0.4275  0.2780 -0.1865
  151MOL   H21636516   7.208   2.534   2.186 -0.8902  1.8360  1.7938
  151MOL   H21736517   7.241   2.569   1.723 -1.1120 -1.8779 -2.6734
  151MOL   C21836518   7.007   2.370   1.945 -0.0937 -0.3429 -0.5763
  151MOL   C21936519   6.866   2.447   1.955 -0.2135 -0.8358 -0.3292
  151MOL   C22036520   6.798   2.413   2.097  0.0197  0.3914  1.0459
  151MOL   C22136521   6.896   2.597   1.939  0.0089  0.0505  0.7638
  151MOL   O22236522   6.903   2.675   2.032  0.3953  0.5890  0.5338
  151MOL   O22336523   6.936   2.624   1.807  0.4358  0.3778 -0.8387
  151MOL   H22436524   7.030   2.361   1.839 -0.6141  0.4665 -0.7684
  151MOL   H22536525   6.970   2.272   1.975  0.4434 -0.0815  1.0180
  151MOL   H22636526   6.797   2.304   2.105  2.0358 -0.1712 -3.9848
  151MOL   H22736527   6.695   2.442   2.114 -0.1939 -0.7058  1.6567
  151MOL   H22836528   6.854   2.453   2.181  1.1338  0.9393  0.0640
  151MOL   H22936529   6.970   2.711   1.800 -2.5779  1.5549 -1.8709
  151MOL   C23036530   6.768   2.384   1.847  0.8060  0.4392 -0.2433
  151MOL   C23136531   6.807   2.368   1.695 -0.1125 -0.0334 -0.0731
  151MOL   C23236532   6.833   2.223   1.659 -0.0578 -0.0498  0.4185
  151MOL   C23336533   6.718   2.435   1.587  0.2626 -0.1597 -0.3061
  151MOL   O23436534   6.700   2.390   1.473 -0.0806 -0.2029  0.2573
  151MOL   O23536535   6.664   2.551   1.625 -0.4364 -0.3129 -0.4543
  151MOL   H23636536   6.748   2.290   1.898 -0.9573  0.8967 -0.0478
  151MOL   H23736537   6.676   2.442   1.857  1.0831  0.8342  0.0166
  151MOL   H23836538   6.756   2.155   1.694  0.4323  0.6786  3.0117
  151MOL   H23936539   6.932   2.196   1.696  0.7881  0.9289 -1.0459
  151MOL   H24036540   6.836   2.203   1.552  1.9289  0.7547  0.2988
  151MOL   H24136541   6.629   2.596   1.550  0.8034  2.8144  0.7820
  151MOL   H24236542   6.901   2.421   1.680 -0.0312 -0.2269 -0.2506
  152MOL     C136543   2.099   6.562   4.434 -0.2946  0.4293  0.2420
  152MOL     C236544   2.187   6.644   4.341 -0.5236  0.0165  0.7636
  152MOL     C336545   2.168   6.579   4.197 -0.1047 -0.1058  0.0595
  152MOL     C436546   2.126   6.783   4.325 -0.3139 -0.6057  0.0060
  152MOL     O536547   2.042   6.835   4.406 -0.2517 -0.3309  0.2209
  152MOL     O636548   2.182   6.843   4.218  0.0751 -0.4727 -0.0678
  152MOL     H736549   2.121   6.455   4.435 -2.6382 -0.0890 -0.6553
  152MOL     H836550   1.994   6.577   4.410 -0.0030  0.7492 -0.8210
  152MOL     H936551   2.180   6.471   4.210 -1.5333  0.0658  3.3166
  152MOL    H1036552   2.222   6.629   4.117  0.8660 -1.9239 -0.4529
  152MOL    H1136553   2.064   6.595   4.168  1.1538  3.1916 -2.9861
  152MOL    H1236554   2.137   6.920   4.188  0.2916 -0.0225  0.7512
  152MOL    H1336555   2.099   6.598   4.537 -1.4130 -0.6071  0.6077
  152MOL    C1436556   2.343   6.647   4.366  0.1041 -0.0124 -0.4507
  152MOL    C1536557   2.414   6.643   4.508  0.4832  0.5422 -0.4600
  152MOL    C1636558   2.379   6.500   4.575 -0.0216 -0.4365  0.2461
  152MOL    C1736559   2.562   6.651   4.488 -0.8865 -0.7130  0.0351
  152MOL    O1836560   2.641   6.560   4.503 -0.1147  0.1754 -0.3918
  152MOL    O1936561   2.605   6.772   4.447 -0.4665 -0.5631  0.2205
  152MOL    H2036562   2.389   6.562   4.315 -0.1694 -0.0133 -0.6982
  152MOL    H2136563   2.383   6.735   4.317  0.1247  0.2948  0.1142
  152MOL    H2236564   2.275   6.473   4.596  0.0161 -1.6933 -1.1209
  152MOL    H2336565   2.444   6.467   4.656 -0.3989  0.8660  1.0922
  152MOL    H2436566   2.396   6.428   4.495 -0.8772  1.1283 -1.3702
  152MOL    H2536567   2.699   6.777   4.438 -0.6594  3.5241 -0.8827
  152MOL    C2636568   2.363   6.756   4.601  0.3190  0.1646  0.3206
  152MOL    C2736569   2.380   6.765   4.753  0.4675 -0.3271 -0.4468
  152MOL    C2836570   2.272   6.663   4.815 -0.1850  0.1227 -0.0937
  152MOL    C2936571   2.518   6.729   4.801  0.7820  0.0857  0.1068
  152MOL    O3036572   2.624   6.794   4.782 -0.5891 -0.1591  0.0713
  152MOL    O3136573   2.519   6.608   4.868 -0.3786 -0.3143 -0.3637
  152MOL    H3236574   2.391   6.853   4.559  2.3535 -0.3635  0.3797
  152MOL    H3336575   2.256   6.766   4.585  0.0359 -1.9057  0.7872
  152MOL    H3436576   2.295   6.557   4.800 -0.6296 -0.0182  0.1978
  152MOL    H3536577   2.169   6.684   4.787 -0.8920 -1.6822  1.0132
  152MOL    H3636578   2.277   6.675   4.924  0.6668 -0.5463 -0.0495
  152MOL    H3736579   2.600   6.571   4.899 -1.0471 -2.4762 -1.1345
  152MOL    C3836580   2.324   6.905   4.803  0.6088  0.3477  0.5493
  152MOL    C3936581   2.395   7.048   4.814 -0.0598 -0.1558  0.2422
  152MOL    C4036582   2.474   7.067   4.683 -0.1900  0.1898 -0.4265
  152MOL    C4136583   2.273   7.147   4.811 -0.4044  0.4584 -0.1034
  152MOL    O4236584   2.166   7.126   4.866  0.9508  0.0054 -0.2117
  152MOL    O4336585   2.299   7.257   4.745 -0.4315  0.1163 -0.2494
  152MOL    H4436586   2.242   6.925   4.734 -0.9672 -1.7606  1.7357
  152MOL    H4536587   2.257   6.886   4.888  0.2057 -1.2358 -0.1001
  152MOL    H4636588   2.563   7.003   4.682 -0.8952 -0.8230  1.1250
  152MOL    H4736589   2.535   7.157   4.686 -3.5597  2.5008  0.3721
  152MOL    H4836590   2.417   7.078   4.590  0.5819  2.6299 -0.6539
  152MOL    H4936591   2.228   7.318   4.753 -0.9848 -0.4418 -0.8962
  152MOL    C5036592   2.473   7.063   4.949 -0.6981 -1.0327  0.0293
  152MOL    C5136593   2.583   7.170   4.985  0.4529  0.1634  0.3589
  152MOL    C5236594   2.716   7.124   4.926  0.2035  0.5028 -0.9801
  152MOL    C5336595   2.544   7.306   4.937 -0.8364 -0.6549  0.3059
  152MOL    O5436596   2.602   7.370   4.846 -0.2896  0.2605  0.5127
  152MOL    O5536597   2.435   7.355   5.003 -0.1288  0.0860  0.1457
  152MOL    H5636598   2.396   7.074   5.025 -1.0493  4.0183 -0.8433
  152MOL    H5736599   2.519   6.966   4.968  1.9662  0.2352  0.3502
  152MOL    H5836600   2.713   7.073   4.830  0.0097  3.5413 -2.6725
  152MOL    H5936601   2.767   7.063   4.999 -1.9385 -0.1842 -0.0076
  152MOL    H6036602   2.781   7.209   4.905  0.3876  0.7328  0.4697
  152MOL    H6136603   2.425   7.445   4.975 -1.1559  0.2821  1.0924
  152MOL    C6236604   2.613   7.181   5.138 -0.1329  0.0701  0.4785
  152MOL    C6336605   2.702   7.286   5.225 -0.5300 -0.2604 -0.0089
  152MOL    C6436606   2.857   7.262   5.186  0.6240  0.3197  0.0894
  152MOL    C6536607   2.645   7.433   5.207  0.8117  0.5030 -0.1067
  152MOL    O6636608   2.535   7.470   5.262 -0.2889 -0.2037 -0.2492
  152MOL    O6736609   2.711   7.512   5.121 -0.1863 -0.4619  0.1614
  152MOL    H6836610   2.514   7.194   5.182  0.3223  1.7982  1.0262
  152MOL    H6936611   2.641   7.077   5.157 -1.7971 -0.2994  1.0342
  152MOL    H7036612   2.917   7.337   5.237  1.1590  0.5973 -0.9340
  152MOL    H7136613   2.888   7.265   5.082  2.5086 -0.9844  0.6079
  152MOL    H7236614   2.893   7.164   5.216  1.0443  0.4354 -0.0428
  152MOL    H7336615   2.795   7.480   5.091  0.7997  1.7699  0.4037
  152MOL    C7436616   2.689   7.247   5.382  0.0939 -0.2632  0.0043
  152MOL    C7536617   2.770   7.314   5.496 -0.1667  0.8926 -0.4352
  152MOL    C7636618   2.770   7.475   5.492  0.2131  0.5010 -0.6444
  152MOL    C7736619   2.694   7.278   5.624 -0.3698  0.2363  1.1665
  152MOL    O7836620   2.649   7.359   5.711  0.5176  0.0464 -0.1571
  152MOL    O7936621   2.676   7.144   5.632  0.1994  0.3154 -0.6321
  152MOL    H8036622   2.587   7.270   5.412  0.5600  1.1655  0.5537
  152MOL    H8136623   2.708   7.140   5.381 -0.7268 -0.4111 -1.4871
  152MOL    H8236624   2.821   7.521   5.577  0.5775  0.8071 -1.0261
  152MOL    H8336625   2.668   7.513   5.502  0.7188  1.8508 -0.4221
  152MOL    H8436626   2.816   7.517   5.402  1.0099 -1.3281 -1.1087
  152MOL    H8536627   2.625   7.128   5.710  0.9015  3.3340  0.5419
  152MOL    C8636628   2.927   7.275   5.510 -0.4613  0.2584  0.5514
  152MOL    C8736629   3.017   7.252   5.642  0.2222  0.8072  0.4061
  152MOL    C8836630   3.021   7.375   5.724  0.7399  0.0130  0.3040
  152MOL    C8936631   2.977   7.128   5.726 -0.2177 -0.1740 -0.0663
  152MOL    O9036632   2.946   7.136   5.846 -0.3417 -0.4473 -0.0804
  152MOL    O9136633   2.973   7.016   5.642  0.1353  0.2339  1.2632
  152MOL    H9236634   2.940   7.190   5.443  1.4657  0.6501  0.3840
  152MOL    H9336635   2.984   7.352   5.458 -1.3309 -0.5443 -1.6435
  152MOL    H9436636   2.923   7.423   5.730  0.4750 -0.6532  1.5626
  152MOL    H9536637   3.085   7.451   5.679  1.6110  0.1125  1.6894
  152MOL    H9636638   3.058   7.358   5.825 -0.2958  0.6630  0.8014
  152MOL    H9736639   2.940   6.943   5.692 -1.1377 -1.2236 -1.5630
  152MOL    C9836640   3.157   7.233   5.579  0.2188  0.3722  0.1395
  152MOL    C9936641   3.288   7.178   5.652  0.2536 -0.0686 -0.3701
  152MOL   C10036642   3.303   7.219   5.798 -0.3691 -0.0348  0.6461
  152MOL   C10136643   3.292   7.021   5.656 -0.1892 -0.6253 -0.1356
  152MOL   O10236644   3.302   6.963   5.765  0.1025 -0.0867 -0.5058
  152MOL   O10336645   3.268   6.957   5.540 -0.3153 -0.0740  0.0546
  152MOL   H10436646   3.140   7.159   5.501  1.5742  0.0105  0.1705
  152MOL   H10536647   3.187   7.321   5.522  1.4289  1.5067  2.4249
  152MOL   H10636648   3.387   7.175   5.851 -0.6642  0.9616  1.9573
  152MOL   H10736649   3.219   7.189   5.861  0.9282 -0.4628  2.1661
  152MOL   H10836650   3.288   7.327   5.803 -0.9831  0.0151 -1.6134
  152MOL   H10936651   3.278   6.863   5.544 -1.7268 -0.3202 -1.4535
  152MOL   C11036652   3.414   7.208   5.554  0.6124  0.4078  0.1821
  152MOL   C11136653   3.516   7.327   5.585 -0.0454 -0.7169  0.2029
  152MOL   C11236654   3.436   7.458   5.605 -0.0181 -0.8420 -0.3042
  152MOL   C11336655   3.600   7.302   5.715 -0.7418 -0.1294  0.6762
  152MOL   O11436656   3.655   7.387   5.779  0.0137 -0.2850 -0.0675
  152MOL   O11536657   3.608   7.175   5.744 -0.5060 -0.3449  0.2725
  152MOL   H11636658   3.475   7.119   5.542  1.9083  1.5724 -2.3974
  152MOL   H11736659   3.372   7.230   5.456  2.0634  1.0337 -0.3080
  152MOL   H11836660   3.349   7.461   5.539 -0.5753 -1.0280  0.4241
  152MOL   H11936661   3.500   7.547   5.602 -2.9322  1.4164  1.7863
  152MOL   H12036662   3.388   7.462   5.702  0.5623 -0.5766 -0.0233
  152MOL   H12136663   3.659   7.154   5.821 -0.1725  1.4435  0.5413
  152MOL   C12236664   3.629   7.344   5.471  0.0704 -0.3115  1.3676
  152MOL   C12336665   3.611   7.299   5.321 -0.0024 -0.4742 -0.1746
  152MOL   C12436666   3.630   7.140   5.322 -0.0204  0.4721 -0.1488
  152MOL   C12536667   3.477   7.340   5.263  0.4000 -0.4364 -0.7018
  152MOL   O12636668   3.397   7.268   5.208  0.7864  0.9437 -0.6076
  152MOL   O12736669   3.459   7.477   5.270 -0.0728  0.2897  0.1394
  152MOL   H12836670   3.659   7.449   5.471  0.1172 -0.3221  1.9763
  152MOL   H12936671   3.721   7.300   5.509  0.8638 -0.0856 -0.2532
  152MOL   H13036672   3.666   7.100   5.417 -0.2274 -0.1100 -0.3088
  152MOL   H13136673   3.703   7.111   5.246 -0.3576  2.8484 -1.4298
  152MOL   H13236674   3.532   7.095   5.304 -0.7209  2.8017 -2.4453
  152MOL   H13336675   3.394   7.511   5.210  0.6114 -0.1403 -0.8555
  152MOL   C13436676   3.738   7.357   5.240  0.0970 -0.3126  0.1606
  152MOL   C13536677   3.744   7.393   5.082 -0.3573 -0.5289  0.2939
  152MOL   C13636678   3.639   7.499   5.053  0.0318  0.2869 -0.0023
  152MOL   C13736679   3.883   7.458   5.056 -0.6798  0.4415 -0.4737
  152MOL   O13836680   3.899   7.552   4.984 -0.2212  0.2699 -0.2963
  152MOL   O13936681   3.981   7.386   5.109  0.1585  0.0896 -0.1633
  152MOL   H14036682   3.764   7.451   5.288  0.2553 -1.8397  3.2263
  152MOL   H14136683   3.821   7.292   5.270  0.6089  0.4631  0.4186
  152MOL   H14236684   3.541   7.452   5.055  0.6433 -1.0125 -0.0835
  152MOL   H14336685   3.648   7.554   4.959 -0.0514 -0.3532 -0.3842
  152MOL   H14436686   3.636   7.572   5.134 -0.1888  1.6364 -1.2047
  152MOL   H14536687   4.071   7.415   5.101  0.7588 -1.6753 -0.0397
  152MOL   C14636688   3.729   7.265   4.992  0.5723  0.3424  0.4961
  152MOL   C14736689   3.702   7.249   4.838  0.6927 -0.6514 -0.1840
  152MOL   C14836690   3.550   7.232   4.834 -0.2847  0.3071 -0.3905
  152MOL   C14936691   3.750   7.375   4.760 -0.5636 -0.3112  0.1850
  152MOL   O15036692   3.672   7.466   4.730  0.2923  0.5427  0.0408
  152MOL   O15136693   3.889   7.376   4.748 -0.6072  0.3485 -0.5440
  152MOL   H15236694   3.823   7.212   5.006  0.2238 -1.1197 -2.3312
  152MOL   H15336695   3.659   7.200   5.045  0.5408 -1.7684 -2.0520
  152MOL   H15436696   3.509   7.257   4.736  0.6441  0.1518 -0.8174
  152MOL   H15536697   3.496   7.307   4.892 -0.3907  1.7447 -2.2972
  152MOL   H15636698   3.526   7.137   4.883  1.2233  0.2193  0.1841
  152MOL   H15736699   3.912   7.461   4.716 -0.0727  0.5354  0.3111
  152MOL   C15836700   3.775   7.119   4.793  0.1267 -0.6067  0.4995
  152MOL   C15936701   3.749   7.039   4.660 -0.4627  0.1340 -0.1395
  152MOL   C16036702   3.648   6.927   4.701  0.2080  0.4277 -0.3704
  152MOL   C16136703   3.689   7.130   4.557 -0.3062 -0.3854  0.1284
  152MOL   O16236704   3.565   7.135   4.540 -0.4764 -0.8301  0.0366
  152MOL   O16336705   3.778   7.212   4.499  0.6433  0.1761 -0.1325
  152MOL   H16436706   3.880   7.149   4.796  0.2946 -0.7476 -2.3976
  152MOL   H16536707   3.766   7.042   4.869  1.4053  1.1978  2.5479
  152MOL   H16636708   3.570   6.974   4.761 -1.5613  0.8472 -2.8994
  152MOL   H16736709   3.699   6.849   4.756 -1.5376 -0.0718  0.5878
  152MOL   H16836710   3.590   6.898   4.613  2.0263 -2.6948 -0.5821
  152MOL   H16936711   3.735   7.281   4.451  3.3921  0.4711 -2.2571
  152MOL   C17036712   3.882   6.970   4.611  0.5704  0.2349 -0.7383
  152MOL   C17136713   3.903   6.846   4.514 -0.2106 -0.5442 -0.2094
  152MOL   C17236714   4.052   6.857   4.468 -0.5412 -0.0990 -0.0006
  152MOL   C17336715   3.890   6.713   4.591 -0.8755  0.0309  0.1663
  152MOL   O17436716   3.988   6.644   4.625  0.6702  0.2098 -0.1908
  152MOL   O17536717   3.769   6.671   4.609  1.0255  0.3081 -0.5553
  152MOL   H17636718   3.951   7.050   4.582 -1.2749  1.9335 -0.5930
  152MOL   H17736719   3.924   6.935   4.704 -1.2611 -0.3913 -0.1144
  152MOL   H17836720   4.069   6.770   4.405  0.7454  0.0216  0.1699
  152MOL   H17936721   4.125   6.854   4.549  0.1322 -1.1758 -0.6224
  152MOL   H18036722   4.065   6.944   4.403 -1.6274  0.8558  1.0313
  152MOL   H18136723   3.759   6.595   4.664 -2.2269 -0.1772 -1.6973
  152MOL   C18236724   3.799   6.853   4.390 -0.1239  0.6200 -0.3151
  152MOL   C18336725   3.820   6.779   4.250  0.3060  0.0199  0.0325
  152MOL   C18436726   3.947   6.825   4.179  0.3338  0.4397  0.1980
  152MOL   C18536727   3.835   6.628   4.272 -0.5172 -0.6810 -0.2564
  152MOL   O18636728   3.920   6.561   4.217  0.5665 -0.3634  0.2904
  152MOL   O18736729   3.733   6.575   4.339 -0.4532 -0.4709  0.4584
  152MOL   H18836730   3.705   6.821   4.435  0.7524  1.5080  2.2064
  152MOL   H18936731   3.778   6.958   4.370  0.7463  0.3787 -2.6715
  152MOL   H19036732   4.046   6.792   4.211  0.1505  1.8181  2.2326
  152MOL   H19136733   3.960   6.933   4.186  0.4797  0.4540 -0.2578
  152MOL   H19236734   3.956   6.804   4.072  0.1182  2.2949 -0.1973
  152MOL   H19336735   3.746   6.481   4.332 -2.2980 -0.6679 -0.8773
  152MOL   C19436736   3.696   6.791   4.149 -0.5323  0.5009  0.0738
  152MOL   C19536737   3.630   6.931   4.111  0.2848  0.6024 -0.2551
  152MOL   C19636738   3.533   6.977   4.218  0.1662  0.7122  0.1551
  152MOL   C19736739   3.732   7.049   4.095  0.0031  0.4915  1.0531
  152MOL   O19836740   3.812   7.039   4.001 -0.3302 -0.4188 -0.1900
  152MOL   O19936741   3.727   7.147   4.187  0.6967 -0.3002 -0.0878
  152MOL   H20036742   3.726   6.743   4.056 -3.3510  0.2465 -0.7293
  152MOL   H20136743   3.616   6.726   4.183  0.6363 -0.8599  0.3009
  152MOL   H20236744   3.445   6.915   4.236 -1.2174  2.1295 -1.5414
  152MOL   H20336745   3.498   7.076   4.189 -0.8652  0.5042  0.6686
  152MOL   H20436746   3.569   6.989   4.320  0.2383 -0.2345  0.2439
  152MOL   H20536747   3.800   7.206   4.178 -0.5293  1.4650  1.3626
  152MOL   C20636748   3.555   6.902   3.973 -1.3341 -0.3229 -0.1560
  152MOL   C20736749   3.454   6.986   3.891  0.1678  0.2053 -0.3440
  152MOL   C20836750   3.459   6.915   3.755  0.6162  0.1607  0.1371
  152MOL   C20936751   3.310   6.974   3.958  0.0707  0.0692 -0.5253
  152MOL   O21036752   3.266   7.039   4.051 -0.2042  0.3099 -0.3382
  152MOL   O21136753   3.237   6.881   3.893  0.1900  0.7462 -0.0740
  152MOL   H21236754   3.636   6.880   3.903  0.9594 -0.9695  2.6313
  152MOL   H21336755   3.512   6.802   3.982  1.1930 -1.4414 -0.1154
  152MOL   H21436756   3.375   6.948   3.694 -1.4213  0.2459  2.8677
  152MOL   H21536757   3.443   6.808   3.751  1.6777 -0.0607  1.4862
  152MOL   H21636758   3.546   6.945   3.695  1.1399  0.3704  0.9908
  152MOL   H21736759   3.162   6.889   3.950  0.8500  1.1346  0.7525
  152MOL   C21836760   3.515   7.127   3.884  0.1628  0.5999 -0.6729
  152MOL   C21936761   3.452   7.243   3.787 -0.3885  0.2056 -0.2081
  152MOL   C22036762   3.303   7.232   3.768  0.2184 -0.0285  0.0148
  152MOL   C22136763   3.491   7.383   3.855 -0.2432  0.3838  0.4611
  152MOL   O22236764   3.419   7.480   3.842  0.0007 -0.4058  0.0546
  152MOL   O22336765   3.615   7.387   3.906  0.1415  0.0458 -0.2512
  152MOL   H22436766   3.517   7.167   3.986 -2.4167  0.8418 -0.6928
  152MOL   H22536767   3.618   7.124   3.850 -0.4326 -1.6949 -2.3634
  152MOL   H22636768   3.261   7.303   3.697 -1.8133 -0.5647  0.6503
  152MOL   H22736769   3.255   7.233   3.866  0.9268 -0.7902  0.3743
  152MOL   H22836770   3.274   7.134   3.733 -0.1691 -0.2021  0.8021
  152MOL   H22936771   3.623   7.477   3.935 -3.0123  0.3760 -0.2123
  152MOL   C23036772   3.516   7.236   3.640  0.3769 -0.0910 -0.3789
  152MOL   C23136773   3.673   7.249   3.621  0.0089  0.0293 -0.6588
  152MOL   C23236774   3.727   7.176   3.493  0.2357  0.2901 -0.2133
  152MOL   C23336775   3.714   7.397   3.593 -0.4890 -0.5301  0.3090
  152MOL   O23436776   3.637   7.482   3.552  0.5214 -0.4725  0.2094
  152MOL   O23536777   3.846   7.426   3.620  0.0300 -0.1172 -0.1723
  152MOL   H23636778   3.477   7.145   3.592  1.8261 -0.1560 -1.4777
  152MOL   H23736779   3.461   7.310   3.582 -2.1838  1.0772  3.3466
  152MOL   H23836780   3.652   7.197   3.418  0.9677  0.2361 -0.9670
  152MOL   H23936781   3.730   7.070   3.515 -1.0604  0.5443  1.2909
  152MOL   H24036782   3.828   7.211   3.469 -0.1805  1.2697 -0.5593
  152MOL   H24136783   3.902   7.354   3.645 -0.9909 -0.4802  1.0755
  152MOL   H24236784   3.736   7.216   3.704 -0.0462 -1.8967 -1.3580
  153MOL     C136785   7.430   4.040   1.486  0.7005  0.1695 -0.8770
  153MOL     C236786   7.318   4.138   1.537 -0.2550 -0.1583 -0.0345
  153MOL     C336787   7.367   4.187   1.673  0.2215  0.0251  0.4571
  153MOL     C436788   7.316   4.257   1.438 -0.4989  0.2302  0.0217
  153MOL     O536789   7.297   4.377   1.467 -0.0672  0.2910  0.3803
  153MOL     O636790   7.329   4.214   1.311 -0.2057 -0.5960 -0.1773
  153MOL     H736791   7.464   3.966   1.558 -0.4985 -1.9096 -2.4110
  153MOL     H836792   7.528   4.086   1.469  0.5375  1.1040  0.6550
  153MOL     H936793   7.399   4.114   1.747 -0.0437 -1.3287 -0.7405
  153MOL    H1036794   7.291   4.240   1.731  0.9495  1.5518  0.0574
  153MOL    H1136795   7.441   4.267   1.672 -1.3598  1.5320  1.0593
  153MOL    H1236796   7.333   4.281   1.245 -2.3484  0.2413  0.4820
  153MOL    H1336797   7.402   3.988   1.394  0.6337 -1.3280 -0.0153
  153MOL    C1436798   7.180   4.060   1.549  0.3058 -0.7849 -0.1790
  153MOL    C1536799   7.037   4.127   1.545  0.0954  0.5714 -0.8459
  153MOL    C1636800   7.035   4.256   1.639 -0.0332 -0.0226  0.2667
  153MOL    C1736801   6.996   4.168   1.402 -0.5693 -0.4379 -0.8920
  153MOL    O1836802   7.036   4.111   1.302 -0.0599 -0.2166 -0.3367
  153MOL    O1936803   6.892   4.260   1.401  0.0769  0.0271  0.0911
  153MOL    H2036804   7.178   3.986   1.469  1.0869 -0.1198 -0.8176
  153MOL    H2136805   7.195   3.990   1.631 -2.9541  0.0212  1.1668
  153MOL    H2236806   7.077   4.233   1.736  0.6736  0.9619  0.2015
  153MOL    H2336807   6.934   4.292   1.661 -0.1939 -0.4434  0.2347
  153MOL    H2436808   7.092   4.334   1.588 -0.7621  0.2839 -0.0904
  153MOL    H2536809   6.851   4.276   1.318 -0.1328 -1.7359 -0.1666
  153MOL    C2636810   6.928   4.033   1.610 -0.0185 -0.0656  0.7258
  153MOL    C2736811   6.866   3.901   1.542  0.4186  0.5166  0.0799
  153MOL    C2836812   6.965   3.812   1.464  0.0600 -0.5096 -0.0106
  153MOL    C2936813   6.813   3.808   1.658  0.2490  0.2328  0.2226
  153MOL    O3036814   6.844   3.692   1.665 -0.3756 -0.4064  0.0466
  153MOL    O3136815   6.732   3.868   1.748  0.2978 -0.2626 -0.4564
  153MOL    H3236816   6.979   3.997   1.700  1.1146 -2.7406 -0.9354
  153MOL    H3336817   6.839   4.083   1.651 -0.5449 -0.8465  0.5495
  153MOL    H3436818   6.925   3.714   1.439 -1.3376  0.6902 -2.8897
  153MOL    H3536819   7.056   3.798   1.522 -1.3543 -0.4444  2.2864
  153MOL    H3636820   6.997   3.859   1.371 -3.7447  1.1579 -0.6044
  153MOL    H3736821   6.725   3.961   1.732 -2.3094 -0.6161 -1.6263
  153MOL    C3836822   6.748   3.937   1.450 -0.8935 -0.1749 -0.0749
  153MOL    C3936823   6.625   3.848   1.400 -0.2868 -0.6135 -0.2296
  153MOL    C4036824   6.646   3.697   1.394  0.7941  0.3729 -0.7325
  153MOL    C4136825   6.507   3.872   1.495 -0.0122  0.3266 -0.2437
  153MOL    O4236826   6.509   3.959   1.588  0.4954  0.0302  0.5733
  153MOL    O4336827   6.401   3.797   1.461  0.1916  0.0533  0.1880
  153MOL    H4436828   6.720   4.036   1.487  0.0707 -0.0479  0.3448
  153MOL    H4536829   6.793   3.963   1.354 -2.4565 -0.3106 -0.8692
  153MOL    H4636830   6.561   3.656   1.340  1.2950  1.0686 -2.0717
  153MOL    H4736831   6.650   3.651   1.493 -1.5516  1.8141  0.0538
  153MOL    H4836832   6.734   3.659   1.343 -0.4979 -2.7385 -0.7592
  153MOL    H4936833   6.321   3.822   1.505  0.1265 -2.0348  1.3371
  153MOL    C5036834   6.574   3.898   1.255  0.4989 -0.4797 -0.4520
  153MOL    C5136835   6.560   4.049   1.201 -0.2334 -0.0976  0.0430
  153MOL    C5236836   6.446   4.054   1.088  0.0153  0.7751  0.3597
  153MOL    C5336837   6.509   4.134   1.313 -0.3592  0.1105  0.2546
  153MOL    O5436838   6.567   4.237   1.343 -0.5526  1.0827  0.4233
  153MOL    O5536839   6.386   4.103   1.350 -0.5018  0.0560 -0.2831
  153MOL    H5636840   6.624   3.838   1.180  1.5019  0.7087 -0.7607
  153MOL    H5736841   6.472   3.863   1.243  0.4869 -0.4817 -0.3378
  153MOL    H5836842   6.414   4.156   1.063 -1.6736  0.1844  0.0631
  153MOL    H5936843   6.355   4.021   1.137  0.0595  0.7681  0.4359
  153MOL    H6036844   6.467   4.002   0.995  0.6420 -0.2069  1.0412
  153MOL    H6136845   6.361   4.176   1.404 -1.1677  0.6952 -1.4152
  153MOL    C6236846   6.693   4.110   1.140  0.1235  0.5548  0.1519
  153MOL    C6336847   6.765   4.066   1.004 -0.0572  0.0086  0.0969
  153MOL    C6436848   6.737   3.924   0.973 -0.5573  0.8117  0.6516
  153MOL    C6536849   6.707   4.155   0.896  0.3296 -0.0591  0.3884
  153MOL    O6636850   6.644   4.107   0.803 -0.2808 -0.0359  0.0639
  153MOL    O6736851   6.718   4.292   0.916  0.3220 -0.5454 -0.3331
  153MOL    H6836852   6.680   4.218   1.141  0.9162  0.6491  0.8562
  153MOL    H6936853   6.775   4.098   1.212  1.3759 -0.2446 -1.3738
  153MOL    H7036854   6.785   3.858   1.044  1.0630  0.7431 -0.4985
  153MOL    H7136855   6.770   3.894   0.874  0.8620  0.3192  1.2704
  153MOL    H7236856   6.632   3.892   0.967 -0.7398  1.3703  0.8359
  153MOL    H7336857   6.748   4.322   1.000  0.4214 -0.0058 -0.5571
  153MOL    C7436858   6.924   4.082   1.020 -0.6838  0.2823  1.2870
  153MOL    C7536859   7.026   4.062   0.902 -0.0393  0.4214 -0.4138
  153MOL    C7636860   7.007   3.921   0.828  0.0489 -1.2392 -0.3738
  153MOL    C7736861   7.007   4.171   0.798 -0.5177 -0.1330 -0.5897
  153MOL    O7836862   6.985   4.284   0.843  0.0648  0.1136  0.4838
  153MOL    O7936863   7.024   4.136   0.664  0.5106  0.0958 -0.0906
  153MOL    H8036864   6.954   4.177   1.064  0.2533 -1.1147  3.8054
  153MOL    H8136865   6.945   4.006   1.096  1.6060 -1.9985 -1.5288
  153MOL    H8236866   6.964   3.838   0.885  0.0786 -2.3764 -1.9700
  153MOL    H8336867   7.093   3.876   0.778 -1.6784 -2.5341 -2.2724
  153MOL    H8436868   6.944   3.929   0.739  0.5528  1.6978 -0.5068
  153MOL    H8536869   6.996   4.203   0.603 -2.5940 -2.0785 -1.1681
  153MOL    C8636870   7.169   4.044   0.978  0.1261  0.1601  0.1087
  153MOL    C8736871   7.304   4.096   0.919  0.3170  0.0451  0.3846
  153MOL    C8836872   7.318   4.030   0.777  0.1196 -0.5583 -0.1932
  153MOL    C8936873   7.301   4.249   0.916  0.2251 -0.0671 -0.8102
  153MOL    O9036874   7.281   4.310   1.020  0.0388 -0.3439 -0.2184
  153MOL    O9136875   7.338   4.313   0.796  0.4858  0.5383  0.2744
  153MOL    H9236876   7.162   4.100   1.071  1.8650 -0.0352  0.3669
  153MOL    H9336877   7.178   3.940   1.009  0.7445 -0.2254 -1.3292
  153MOL    H9436878   7.341   3.924   0.792  0.6466 -0.6420 -1.4929
  153MOL    H9536879   7.402   4.072   0.723  0.2462  0.5569  0.8728
  153MOL    H9636880   7.232   4.051   0.714  2.0330  0.3959 -2.5422
  153MOL    H9736881   7.348   4.406   0.808 -0.1755  0.5452  0.8602
  153MOL    C9836882   7.418   4.043   1.026  0.7006 -0.1059  0.2553
  153MOL    C9936883   7.574   4.063   1.012  0.3676 -0.0943 -1.1149
  153MOL   C10036884   7.622   3.971   0.902 -0.1052 -0.3019  0.1967
  153MOL   C10136885   7.606   4.212   0.988 -0.6367 -0.8964  0.4127
  153MOL   O10236886   7.581   4.301   1.070  0.7301  0.2323 -0.2555
  153MOL   O10336887   7.648   4.250   0.863  0.0299 -0.2047 -0.2357
  153MOL   H10436888   7.375   4.070   1.122  0.0249  0.2973 -0.1552
  153MOL   H10536889   7.397   3.936   1.017 -0.5780  0.2872 -1.9014
  153MOL   H10636890   7.595   3.866   0.913 -0.7032 -0.0892  0.7682
  153MOL   H10736891   7.731   3.979   0.895 -0.2230 -0.0021 -1.5656
  153MOL   H10836892   7.589   4.011   0.806 -2.1941  0.3520  1.1596
  153MOL   H10936893   7.649   4.344   0.850  0.2418 -0.1012  0.4852
  153MOL   C11036894   7.622   4.021   1.158  0.0361 -0.0458 -0.4599
  153MOL   C11136895   7.765   3.990   1.201  0.0282 -0.3902  0.5452
  153MOL   C11236896   0.035   3.843   1.152  0.6301 -0.2455  0.6107
  153MOL   C11336897   0.094   4.087   1.136  0.0553  0.1626 -0.1635
  153MOL   O11436898   0.176   4.066   1.047  0.1719 -0.3181  0.5662
  153MOL   O11536899   0.077   4.211   1.201  0.5145 -0.2493 -0.3980
  153MOL   H11636900   7.595   4.106   1.220  0.0330  0.0819 -0.6342
  153MOL   H11736901   7.552   3.945   1.193  0.2087 -0.5963 -1.2900
  153MOL   H11836902   0.137   3.805   1.157  1.5881  1.6994 -2.4674
  153MOL   H11936903   7.760   3.827   1.053 -0.2865 -0.5088  1.0436
  153MOL   H12036904   7.738   3.773   1.205 -1.9715  1.2069 -0.5359
  153MOL   H12136905   0.148   4.273   1.193  0.6984 -0.3999  0.0106
  153MOL   C12236906   0.008   3.989   1.362 -0.7781 -0.1094  0.2871
  153MOL   C12336907   0.145   3.971   1.445 -0.8885  0.7223  0.8790
  153MOL   C12436908   0.242   3.870   1.385  0.3223  0.2809  0.3042
  153MOL   C12536909   0.212   4.108   1.445  0.2367 -0.2729 -1.0479
  153MOL   O12636910   0.330   4.126   1.420  0.3504  0.0060  0.0772
  153MOL   O12736911   0.124   4.200   1.493 -0.2334  0.7549  0.7585
  153MOL   H12836912   7.722   4.075   1.403 -0.8167 -0.0563  0.1278
  153MOL   H12936913   7.703   3.908   1.374 -1.5035  0.2508 -1.4131
  153MOL   H13036914   0.330   3.847   1.444  1.8073  2.3147 -1.0391
  153MOL   H13136915   0.271   3.905   1.285 -1.3743 -0.6703 -0.5514
  153MOL   H13236916   0.208   3.767   1.377  0.2452  0.3565 -0.3927
  153MOL   H13336917   0.175   4.279   1.491  1.9089 -0.5899 -0.0488
  153MOL   C13436918   0.131   3.934   1.602  0.7132  0.4961  0.1962
  153MOL   C13536919   0.086   3.789   1.656 -0.4729  0.7445 -1.1208
  153MOL   C13636920   7.735   3.734   1.578 -0.2002  0.4391  0.1233
  153MOL   C13736921   0.209   3.687   1.640  0.8091  0.0111  0.1203
  153MOL   O13836922   0.212   3.591   1.568 -0.4466 -0.4888  0.1022
  153MOL   O13936923   0.304   3.735   1.725 -0.0457  0.1286 -0.0401
  153MOL   H14036924   0.214   3.979   1.656  1.0008  2.2131 -1.6019
  153MOL   H14136925   0.047   3.991   1.641 -1.2790 -1.4676 -1.0737
  153MOL   H14236926   7.758   3.731   1.471  0.3780  0.2135  0.2523
  153MOL   H14336927   7.645   3.797   1.579  0.9052  2.0426  1.1107
  153MOL   H14436928   7.704   3.633   1.602  1.1262  0.0949  0.4062
  153MOL   H14536929   0.372   3.675   1.753  2.5792  2.6792 -0.7870
  153MOL   C14636930   0.057   3.810   1.813 -0.0677 -0.4947 -0.7232
  153MOL   C14736931   7.767   3.690   1.903  0.8126  0.2902 -0.3199
  153MOL   C14836932   0.065   3.550   1.864 -0.2664  0.2265 -0.1453
  153MOL   C14936933   0.055   3.723   2.047  1.0840  0.3724 -0.2473
  153MOL   O15036934   0.066   3.839   2.098 -0.1145 -0.2864 -0.1882
  153MOL   O15136935   0.067   3.606   2.119  0.1514  0.1640  0.0710
  153MOL   H15236936   0.141   3.860   1.860  0.3211 -1.0760 -0.7979
  153MOL   H15336937   7.744   3.885   1.813  0.8453  0.4912 -0.1018
  153MOL   H15436938   0.045   3.467   1.932  0.6165 -0.8918 -1.2404
  153MOL   H15536939   0.173   3.550   1.871 -0.0835  1.3240 -2.4497
  153MOL   H15636940   0.045   3.508   1.765  0.7435 -0.5930 -0.0083
  153MOL   H15736941   0.065   3.626   2.211  1.1404  0.2849  0.0736
  153MOL   C15836942   7.609   3.674   1.875 -0.0779 -0.1108  0.1158
  153MOL   C15936943   7.496   3.707   1.981 -0.4751  0.2078  0.0875
  153MOL   C16036944   7.487   3.592   2.092 -0.7333 -1.0991 -0.0761
  153MOL   C16136945   7.529   3.844   2.052 -0.0023  0.2847 -0.3428
  153MOL   O16236946   7.545   3.853   2.176  0.1584 -0.0529  0.0956
  153MOL   O16336947   7.509   3.949   1.970 -0.3577 -0.7073 -0.6891
  153MOL   H16436948   7.585   3.743   1.794 -1.7328  1.0567  1.5572
  153MOL   H16536949   7.588   3.576   1.833  1.2655 -1.0391  1.5519
  153MOL   H16636950   7.579   3.552   2.136  0.8683  0.3932 -1.9726
  153MOL   H16736951   7.442   3.502   2.049 -1.6072 -0.6659 -0.0605
  153MOL   H16836952   7.430   3.623   2.179 -1.0886 -0.8749 -0.3860
  153MOL   H16936953   7.537   4.028   2.015  0.4625 -1.6607  0.5114
  153MOL   C17036954   7.362   3.720   1.902  0.2677  0.8195  0.3815
  153MOL   C17136955   7.220   3.727   1.967 -0.1836 -0.4856  0.1388
  153MOL   C17236956   7.127   3.757   1.846 -0.1593 -0.3401  0.2123
  153MOL   C17336957   7.184   3.583   2.013  0.7928 -0.1007 -0.5054
  153MOL   O17436958   7.156   3.550   2.129  0.1506  0.1353  0.3081
  153MOL   O17536959   7.207   3.492   1.911  0.1004 -0.1440 -0.3318
  153MOL   H17636960   7.363   3.802   1.831  1.9690 -0.0439 -0.6246
  153MOL   H17736961   7.363   3.632   1.838  2.2850  0.3175  1.0502
  153MOL   H17836962   7.021   3.748   1.872  0.0641  1.6999  1.9582
  153MOL   H17936963   7.136   3.678   1.772  2.4114 -0.7505  0.9264
  153MOL   H18036964   7.148   3.855   1.805 -1.0232 -0.3268 -0.2060
  153MOL   H18136965   7.185   3.407   1.947 -3.4658  1.1377  0.7634
  153MOL   C18236966   7.194   3.836   2.083 -0.2676  0.3094  0.2789
  153MOL   C18336967   7.068   3.918   2.108  0.5960  0.5545 -0.1964
  153MOL   C18436968   7.047   4.006   1.988  0.3675 -1.0559 -0.1939
  153MOL   C18536969   6.950   3.827   2.138 -0.4825  0.6662  0.3476
  153MOL   O18636970   6.840   3.830   2.081  0.1843  0.1539  0.2397
  153MOL   O18736971   6.977   3.754   2.248 -0.0934  0.1586  0.7416
  153MOL   H18836972   7.224   3.788   2.177  0.7815  0.1884 -0.1059
  153MOL   H18936973   7.270   3.909   2.055  0.0709 -0.2070 -0.1614
  153MOL   H19036974   6.987   3.958   1.911  0.1425  0.1884 -0.8036
  153MOL   H19136975   7.137   4.050   1.946 -1.1752  1.0289 -1.4118
  153MOL   H19236976   6.983   4.091   2.010  2.7967  1.0322 -1.0582
  153MOL   H19336977   6.905   3.695   2.258 -1.3091  1.3314 -0.8843
  153MOL   C19436978   7.082   4.005   2.238 -0.5167  0.7618 -0.3481
  153MOL   C19536979   7.187   4.129   2.256  0.5928 -0.4764 -0.0226
  153MOL   C19636980   7.171   4.159   2.405  0.3314 -0.2657 -0.2147
  153MOL   C19736981   7.334   4.076   2.238 -0.3214 -0.2304 -0.8186
  153MOL   O19836982   7.407   4.116   2.153 -0.1300 -0.4560  0.3994
  153MOL   O19936983   7.375   3.989   2.333 -0.0409 -0.0487  0.2809
  153MOL   H20036984   6.987   4.043   2.275 -0.8672 -2.7251  2.6037
  153MOL   H20136985   7.105   3.933   2.316  2.5833  0.8080 -1.1253
  153MOL   H20236986   7.256   4.215   2.443 -0.6569  2.7649 -2.3272
  153MOL   H20336987   7.167   4.074   2.474 -0.4908  0.5992  0.8293
  153MOL   H20436988   7.074   4.200   2.435  0.3760  0.3393 -0.8884
  153MOL   H20536989   7.464   3.967   2.310  0.1960  1.1706 -0.0192
  153MOL   C20636990   7.150   4.264   2.174  0.4278  0.0129 -0.0765
  153MOL   C20736991   7.197   4.411   2.222 -0.4426  0.5806 -0.3864
  153MOL   C20836992   7.098   4.465   2.327  0.2915  0.0219  0.1198
  153MOL   C20936993   7.340   4.415   2.284 -0.0051 -0.2253  0.5998
  153MOL   O21036994   7.363   4.424   2.404  0.7572 -0.2525  0.1361
  153MOL   O21136995   7.439   4.404   2.195  0.6138 -0.0927  0.2911
  153MOL   H21236996   7.182   4.251   2.070 -0.4098  1.7175 -0.5703
  153MOL   H21336997   7.042   4.264   2.185  0.2758 -0.8980 -1.4409
  153MOL   H21436998   7.094   4.399   2.413  1.7303 -2.1978 -1.4658
  153MOL   H21536999   6.995   4.467   2.291  0.0160  0.0923  0.9046
  153MOL   H21637000   7.127   4.561   2.370 -1.9941 -0.0726  1.9498
  153MOL   H21737001   7.521   4.378   2.234 -0.0434 -2.2337  0.3119
  153MOL   C21837002   7.196   4.496   2.100  0.5505  0.3756 -0.1082
  153MOL   C21937003   7.193   4.653   2.101  0.0202 -0.3232 -0.6110
  153MOL   C22037004   7.205   4.708   1.954 -0.9986  0.3619 -0.6757
  153MOL   C22137005   7.054   4.711   2.144 -0.3478 -0.2673  0.5618
  153MOL   O22237006   7.039   4.807   2.227  0.0709 -0.3449 -0.3493
  153MOL   O22337007   6.953   4.651   2.081  0.3682  0.2421  0.1192
  153MOL   H22437008   7.287   4.488   2.040  0.3818 -1.1158 -0.1749
  153MOL   H22537009   7.111   4.479   2.034  1.6348 -0.0985 -1.4142
  153MOL   H22637010   7.208   4.816   1.943 -1.2981  0.3804 -0.5804
  153MOL   H22737011   7.126   4.660   1.896 -0.3968 -2.1109  0.4774
  153MOL   H22837012   7.302   4.688   1.908 -1.3541 -0.4160 -1.1036
  153MOL   H22937013   6.868   4.690   2.095  0.2953  0.0493  0.2115
  153MOL   C23037014   7.302   4.712   2.198 -0.0764 -0.1630  0.1790
  153MOL   C23137015   7.362   4.854   2.164  0.1418 -0.5012  0.1886
  153MOL   C23237016   7.260   4.973   2.186 -0.3155 -0.4450  0.3144
  153MOL   C23337017   7.480   4.888   2.246 -0.7344 -0.7409  0.0665
  153MOL   O23437018   7.488   4.989   2.318  0.3230 -0.5054  0.2999
  153MOL   O23537019   7.576   4.791   2.253 -0.2341  0.2754  0.4048
  153MOL   H23637020   7.269   4.707   2.302  1.4575 -0.5305  0.6543
  153MOL   H23737021   7.383   4.643   2.178  0.6365  0.4067  1.0695
  153MOL   H23837022   7.165   4.964   2.133 -1.8791  1.2590  2.7434
  153MOL   H23937023   7.296   5.073   2.159  0.2102 -0.1357  2.1395
  153MOL   H24037024   7.229   4.972   2.290 -3.0731  2.0985 -0.4119
  153MOL   H24137025   7.635   4.821   2.320 -0.6214 -0.5739  1.1319
  153MOL   H24237026   7.395   4.862   2.061  0.1581 -0.8118  0.1688
  154MOL     C137027   2.875   0.618   5.068  0.2904  0.9131  0.2746
  154MOL     C237028   2.750   0.688   5.126  0.1406  0.3980 -0.4116
  154MOL     C337029   2.768   0.689   5.285  0.3728 -0.1880 -0.3775
  154MOL     C437030   2.757   0.836   5.081 -0.5850 -0.0862  0.4291
  154MOL     O537031   2.820   0.879   4.987  0.0439 -0.4572 -0.0449
  154MOL     O637032   2.687   0.919   5.160  0.1479 -0.0648 -0.5062
  154MOL     H737033   2.881   0.514   5.098 -0.8035  0.9040  0.4853
  154MOL     H837034   2.965   0.664   5.109 -0.1557  1.1323  1.0148
  154MOL     H937035   2.773   0.588   5.326  0.3430  0.0903  0.3290
  154MOL    H1037036   2.688   0.739   5.340 -0.2894 -0.3997 -1.1390
  154MOL    H1137037   2.858   0.743   5.314  0.2040 -0.1143  0.0086
  154MOL    H1237038   2.707   1.011   5.155  2.2118 -0.4967 -0.3948
  154MOL    H1337039   2.882   0.623   4.960  1.7708 -1.1332  0.2552
  154MOL    C1437040   2.609   0.629   5.101  0.0017 -0.6160 -0.1618
  154MOL    C1537041   2.573   0.550   4.978  0.7057  0.6259 -0.7378
  154MOL    C1637042   2.649   0.415   4.960 -0.2660  0.1471 -0.1447
  154MOL    C1737043   2.423   0.515   5.004  0.3180  1.2102  0.9451
  154MOL    O1837044   2.385   0.406   5.032  0.2098  0.5338  0.7967
  154MOL    O1937045   2.347   0.619   5.016  0.4236  0.0358  0.3988
  154MOL    H2037046   2.595   0.562   5.187 -0.2808 -0.3670 -0.0130
  154MOL    H2137047   2.535   0.707   5.115  1.5832  0.8732  0.1099
  154MOL    H2237048   2.598   0.360   4.881 -0.1128  1.4083 -1.1301
  154MOL    H2337049   2.641   0.361   5.055 -0.2957  0.0361 -0.2099
  154MOL    H2437050   2.755   0.427   4.935 -0.1721 -0.9930 -0.3437
  154MOL    H2537051   2.262   0.601   5.051  0.1691  2.3165  1.0383
  154MOL    C2637052   2.599   0.638   4.854 -0.3826  0.4553  0.1389
  154MOL    C2737053   2.552   0.608   4.709  0.1849  0.2549  0.1740
  154MOL    C2837054   2.619   0.721   4.624 -0.4388 -0.0067 -0.8247
  154MOL    C2937055   2.613   0.475   4.655  0.3447 -0.1688  0.1474
  154MOL    O3037056   2.555   0.373   4.630  0.1212 -0.3319  0.8203
  154MOL    O3137057   2.748   0.484   4.643  0.1251  0.2933  0.0594
  154MOL    H3237058   2.571   0.741   4.878 -0.9279  0.1695  0.7187
  154MOL    H3337059   2.708   0.637   4.854 -0.3804 -1.5287 -0.6372
  154MOL    H3437060   2.726   0.728   4.642 -0.5649 -0.2964  0.0792
  154MOL    H3537061   2.588   0.822   4.654  1.0705  0.4844 -0.8756
  154MOL    H3637062   2.603   0.708   4.517  1.9407  2.2353 -1.5110
  154MOL    H3737063   2.790   0.400   4.629 -2.1972 -1.3331  2.4762
  154MOL    C3837064   2.398   0.609   4.706 -0.3209 -0.0570 -0.3573
  154MOL    C3937065   2.313   0.639   4.582 -0.1603  0.1583 -0.0847
  154MOL    C4037066   2.173   0.587   4.626 -0.3463 -0.1327 -1.1705
  154MOL    C4137067   2.300   0.797   4.569 -0.5212  0.7559  0.4469
  154MOL    O4237068   2.374   0.865   4.496  0.9829 -0.4047  0.6220
  154MOL    O4337069   2.208   0.849   4.654  0.1655  0.2061 -0.2567
  154MOL    H4437070   2.369   0.511   4.744 -0.3951 -0.0591 -0.4187
  154MOL    H4537071   2.365   0.673   4.788 -0.0657 -1.9101  1.2311
  154MOL    H4637072   2.180   0.481   4.605  0.4752 -0.1211 -0.9637
  154MOL    H4737073   2.090   0.637   4.576 -0.0990  1.9478  0.3964
  154MOL    H4837074   2.158   0.598   4.733 -0.1624  0.4887 -1.2025
  154MOL    H4937075   2.168   0.778   4.703  0.3536 -1.2584 -2.2001
  154MOL    C5037076   2.357   0.577   4.446 -0.0527 -0.1817  1.0577
  154MOL    C5137077   2.260   0.550   4.324 -0.4799  0.3579 -0.2251
  154MOL    C5237078   2.176   0.682   4.304 -0.0175  0.2482  0.0522
  154MOL    C5337079   2.354   0.534   4.199 -0.9423  0.6959  0.3227
  154MOL    O5437080   2.476   0.536   4.203 -0.4948 -0.2402 -0.5401
  154MOL    O5537081   2.280   0.498   4.091 -0.0205  0.0203  0.1367
  154MOL    H5637082   2.444   0.630   4.405 -0.9747 -0.8788 -1.9522
  154MOL    H5737083   2.413   0.485   4.460  0.5824 -0.1672 -1.1099
  154MOL    H5837084   2.113   0.658   4.218  1.8003 -0.7483 -1.0203
  154MOL    H5937085   2.234   0.767   4.268 -0.3525  1.4136  2.1743
  154MOL    H6037086   2.120   0.727   4.386  0.7627  3.0267 -0.8703
  154MOL    H6137087   2.326   0.474   4.012 -0.3661  1.2914 -0.4708
  154MOL    C6237088   2.146   0.437   4.332  0.1863 -1.4415 -0.1428
  154MOL    C6337089   2.173   0.278   4.353  0.1638 -0.2993 -0.0765
  154MOL    C6437090   2.175   0.205   4.220  0.3863 -0.2700 -0.9048
  154MOL    C6537091   2.307   0.257   4.423 -0.0407  0.8933 -0.1610
  154MOL    O6637092   2.413   0.225   4.366  0.4262 -0.2123 -0.1744
  154MOL    O6737093   2.306   0.289   4.554  0.7808  0.7606  0.0357
  154MOL    H6837094   2.075   0.472   4.407  0.5328 -0.7627 -0.1272
  154MOL    H6937095   2.092   0.454   4.239 -1.2043  0.7736  1.0169
  154MOL    H7037096   2.079   0.222   4.171 -0.3513 -2.4720 -0.3059
  154MOL    H7137097   2.180   0.096   4.221 -0.0412 -0.2829  0.2214
  154MOL    H7237098   2.251   0.252   4.157  0.3400  0.6640 -0.2687
  154MOL    H7337099   2.396   0.277   4.581  0.8077 -0.4046 -0.5262
  154MOL    C7437100   2.065   0.221   4.451  0.2740 -0.0910  0.3570
  154MOL    C7537101   1.925   0.181   4.414 -0.3423 -0.5436  0.3433
  154MOL    C7637102   1.857   0.308   4.342  0.0599  0.0397  0.5211
  154MOL    C7737103   1.930   0.061   4.324 -0.1988 -0.4811  0.7928
  154MOL    O7837104   1.983   7.721   4.352  0.3661 -0.2547  0.1573
  154MOL    O7937105   1.862   0.071   4.199 -0.4220  0.1090 -0.1999
  154MOL    H8037106   2.104   0.124   4.483 -2.7724 -2.1990 -2.1617
  154MOL    H8137107   2.067   0.281   4.542  2.2151 -0.7165  0.7606
  154MOL    H8237108   1.862   0.394   4.409  0.7239 -0.0467  0.5867
  154MOL    H8337109   1.750   0.293   4.329  0.3873 -1.2331 -0.8821
  154MOL    H8437110   1.903   0.334   4.247 -0.0462 -1.4665  0.0382
  154MOL    H8537111   1.822   0.155   4.180  0.8675  0.6838 -0.4782
  154MOL    C8637112   1.851   0.150   4.548  0.4232 -0.0360 -0.1537
  154MOL    C8737113   1.727   0.041   4.570 -0.0186 -0.2252 -0.1320
  154MOL    C8837114   1.793   7.668   4.562  0.1005  0.0781 -0.0624
  154MOL    C8937115   1.666   0.062   4.708  0.4859 -0.4647 -0.8187
  154MOL    O9037116   1.645   7.736   4.791  0.1983 -0.7593  0.1408
  154MOL    O9137117   1.633   0.187   4.737 -0.3089  0.4290  0.5227
  154MOL    H9237118   1.926   0.128   4.624  1.6250  0.3398 -1.2028
  154MOL    H9337119   1.814   0.245   4.585  1.3317 -0.1429  1.0526
  154MOL    H9437120   1.765   7.599   4.641  0.0478  0.9779  0.7060
  154MOL    H9537121   1.901   7.660   4.574  0.3235  1.6191 -0.8528
  154MOL    H9637122   1.784   7.614   4.467 -0.2806  0.0858 -0.0317
  154MOL    H9737123   1.597   0.191   4.824 -1.8539 -0.8675 -0.0427
  154MOL    C9837124   1.613   0.068   4.459 -0.8959 -0.0277  0.0315
  154MOL    C9937125   1.470   0.001   4.454 -0.0045  0.8100  0.9869
  154MOL   C10037126   1.495   7.620   4.469 -0.3183  0.1210  0.4406
  154MOL   C10137127   1.376   0.059   4.564  0.8330  0.7826  0.1393
  154MOL   O10237128   1.318   7.759   4.648 -0.2632  0.3921 -0.5475
  154MOL   O10337129   1.374   0.193   4.568  0.0384  0.6436  0.2302
  154MOL   H10437130   1.601   0.173   4.433  0.8629  0.4146  0.9617
  154MOL   H10537131   1.663   0.036   4.367  0.8904 -2.2263  1.7151
  154MOL   H10637132   1.405   7.564   4.442 -0.2110  1.4853 -2.9023
  154MOL   H10737133   1.524   7.601   4.573  2.5345 -2.0553 -0.6763
  154MOL   H10837134   1.569   7.575   4.402 -0.4523 -1.5510  1.3795
  154MOL   H10937135   1.308   0.222   4.629  0.4081 -0.7422  1.3179
  154MOL   C11037136   1.409   0.045   4.310  0.0042 -0.0352  0.0946
  154MOL   C11137137   1.301   7.737   4.221 -0.1083  0.3307 -0.4004
  154MOL   C11237138   1.192   7.688   4.318 -0.1533 -0.0590  0.6210
  154MOL   C11337139   1.240   0.072   4.126  0.4152  0.3253  0.5100
  154MOL   O11437140   1.299   0.175   4.090  0.2753 -0.2174 -0.0317
  154MOL   O11537141   1.117   0.037   4.070 -0.5549 -0.2578 -0.0964
  154MOL   H11637142   1.372   0.147   4.322  1.5305  0.4514  0.8298
  154MOL   H11737143   1.495   0.061   4.245 -0.7158 -1.0856 -1.1511
  154MOL   H11837144   1.162   0.003   4.382  0.2565  0.4989  0.1052
  154MOL   H11937145   1.208   7.599   4.379 -1.3238 -1.7701 -1.4769
  154MOL   H12037146   1.105   7.650   4.263 -0.9127 -0.7891  2.2877
  154MOL   H12137147   1.102   0.102   4.003  0.7945 -1.1242 -1.2773
  154MOL   C12237148   1.346   7.609   4.141 -0.0985  0.3354 -0.2655
  154MOL   C12337149   1.437   7.614   4.019  0.3467  0.5535 -0.0817
  154MOL   C12437150   1.363   7.671   3.894  0.0019 -0.8478  0.4156
  154MOL   C12537151   1.572   7.692   4.056 -0.2249 -0.2649  0.0505
  154MOL   O12637152   1.603   0.036   4.016 -0.2087  0.0980 -0.5571
  154MOL   O12737153   1.642   7.625   4.156  0.2100  0.1046 -0.1870
  154MOL   H12837154   1.375   7.540   4.221  0.5073  2.0501  1.0307
  154MOL   H12937155   1.263   7.545   4.112 -0.6659  0.2785  1.4169
  154MOL   H13037156   1.256   7.650   3.888 -0.1472  0.0606 -0.2306
  154MOL   H13137157   1.411   7.643   3.801  1.1005 -0.4044  0.8403
  154MOL   H13237158   1.362   0.013   3.884 -2.1250 -1.0177 -1.5839
  154MOL   H13337159   1.731   7.655   4.166 -0.4505  1.7303  1.1174
  154MOL   C13437160   1.469   7.463   3.979  0.6196  0.0978 -0.2351
  154MOL   C13537161   1.580   7.399   3.888 -0.0126 -0.5825 -1.3539
  154MOL   C13637162   1.526   7.265   3.831 -0.1298 -0.2695 -0.1657
  154MOL   C13737163   1.611   7.485   3.771  0.2384  0.7980 -0.2248
  154MOL   O13837164   1.585   7.459   3.660  0.2347  0.3560 -0.1439
  154MOL   O13937165   1.673   7.599   3.801  0.5895 -0.0174 -0.2755
  154MOL   H14037166   1.464   7.398   4.067  2.3656  0.7314  0.3349
  154MOL   H14137167   1.378   7.415   3.941  0.7739 -2.4254  2.4100
  154MOL   H14237168   1.436   7.290   3.776  0.3627 -1.2855 -1.4502
  154MOL   H14337169   1.493   7.205   3.916 -0.3810 -0.5961 -0.4965
  154MOL   H14437170   1.589   7.198   3.772 -2.3838 -2.5521 -0.0720
  154MOL   H14537171   1.713   7.634   3.723 -0.3032  1.8963  0.0821
  154MOL   C14637172   1.701   7.381   3.986  0.2561  0.3465  0.3953
  154MOL   C14737173   1.827   7.291   3.957 -0.7073  0.5566  0.1881
  154MOL   C14837174   1.797   7.147   3.977 -0.9243  0.4063  0.6326
  154MOL   C14937175   1.871   7.314   3.813 -0.6841 -0.0324 -0.7687
  154MOL   O15037176   1.850   7.233   3.730  0.0736  0.4724  0.4241
  154MOL   O15137177   1.938   7.434   3.801 -0.1583  0.0244  0.7206
  154MOL   H15237178   1.746   7.480   3.995 -0.1407  0.6691 -1.0370
  154MOL   H15337179   1.669   7.361   4.088  0.0393  2.5981  0.8138
  154MOL   H15437180   1.773   7.116   4.079  0.2777  2.2519  1.5072
  154MOL   H15537181   1.890   7.097   3.954 -0.7514  0.9427  0.1470
  154MOL   H15637182   1.719   7.108   3.911  0.5583 -1.2981 -0.1347
  154MOL   H15737183   1.981   7.443   3.717 -0.7777  0.6537  0.4671
  154MOL   C15837184   1.949   7.328   4.051  0.1434  0.3808 -0.7230
  154MOL   C15937185   1.962   7.299   4.205 -0.0522  0.0283  0.3369
  154MOL   C16037186   1.840   7.337   4.293 -0.2505 -0.5279 -0.6090
  154MOL   C16137187   2.001   7.148   4.240  0.3336  0.1071  0.0687
  154MOL   O16237188   2.031   7.056   4.159  0.6143 -0.3587  0.2090
  154MOL   O16337189   1.985   7.115   4.371  0.1817 -0.0221  0.5501
  154MOL   H16437190   2.041   7.287   4.010  0.5929 -0.7373  1.3198
  154MOL   H16537191   1.961   7.436   4.045  0.1785  0.3675 -0.8757
  154MOL   H16637192   1.866   7.320   4.398  0.3298  1.8088 -0.3362
  154MOL   H16737193   1.751   7.279   4.269 -1.8721  2.3015 -1.7389
  154MOL   H16837194   1.811   7.442   4.302 -0.0661 -0.4522 -0.9132
  154MOL   H16937195   1.993   7.021   4.383  0.6588 -0.0536  0.0284
  154MOL   C17037196   2.083   7.391   4.273 -0.2032 -0.7717  0.3253
  154MOL   C17137197   2.229   7.420   4.219 -0.2535  0.0193  0.1008
  154MOL   C17237198   2.291   7.287   4.177  0.0668  1.1890 -0.9634
  154MOL   C17337199   2.224   7.513   4.094  0.7103  0.4339 -0.1078
  154MOL   O17437200   2.274   7.481   3.986 -0.8565 -0.1220  0.3632
  154MOL   O17537201   2.145   7.625   4.113 -0.0789  0.1584  0.1013
  154MOL   H17637202   2.037   7.484   4.307  0.3833 -1.1288  2.1502
  154MOL   H17737203   2.106   7.347   4.370  0.5095  0.2841  0.6424
  154MOL   H17837204   2.243   7.239   4.093  0.6567 -0.8434 -0.1789
  154MOL   H17937205   2.303   7.211   4.255  1.0812  0.7962 -1.4987
  154MOL   H18037206   2.384   7.314   4.128  0.6652  2.8397  0.9814
  154MOL   H18137207   2.129   7.636   4.205 -1.0358 -3.7903  0.5230
  154MOL   C18237208   2.305   7.488   4.339  0.1639 -0.7408 -0.3243
  154MOL   C18337209   2.453   7.544   4.338  0.3268 -0.0203  0.6816
  154MOL   C18437210   2.468   7.666   4.247  0.2758 -0.2341  0.2807
  154MOL   C18537211   2.495   7.577   4.482 -0.3958 -0.7997  0.1824
  154MOL   O18637212   2.528   7.686   4.517 -0.1008 -0.5864  0.2060
  154MOL   O18737213   2.479   7.471   4.566  0.5922 -0.1883 -0.0239
  154MOL   H18837214   2.230   7.562   4.369  0.4049 -2.2368  4.3618
  154MOL   H18937215   2.295   7.423   4.425  0.6350 -0.9118 -0.4005
  154MOL   H19037216   2.384   7.735   4.260  0.6436  0.1801  0.4780
  154MOL   H19137217   2.452   7.631   4.145 -0.7562 -0.4829  0.5192
  154MOL   H19237218   2.564   7.718   4.252 -0.5394  1.3413  0.0584
  154MOL   H19337219   2.505   7.492   4.654  0.0235  0.5543 -0.0175
  154MOL   C19437220   2.551   7.437   4.277 -0.7131 -0.6003  0.3718
  154MOL   C19537221   2.709   7.430   4.279 -0.2995  0.0773 -0.3669
  154MOL   C19637222   2.751   7.351   4.158  0.0546  0.0472  0.4241
  154MOL   C19737223   2.777   7.567   4.283  0.4013  0.8734 -0.5510
  154MOL   O19837224   2.816   7.620   4.385  0.0634 -0.3012 -0.0079
  154MOL   O19937225   2.796   7.619   4.163 -0.0229 -0.3108 -0.2827
  154MOL   H20037226   2.510   7.339   4.300  1.0675 -1.4718 -0.0877
  154MOL   H20137227   2.531   7.448   4.171 -1.3039  1.3530  0.6669
  154MOL   H20237228   2.702   7.256   4.179 -0.4796  0.1368 -0.3900
  154MOL   H20337229   2.858   7.333   4.149  0.1423 -0.3666  2.0398
  154MOL   H20437230   2.719   7.385   4.060  0.4681 -1.2863 -0.1823
  154MOL   H20537231   2.844   7.700   4.167  0.5326 -0.6629  0.3879
  154MOL   C20637232   2.741   7.350   4.409 -0.1734  0.1142  0.4503
  154MOL   C20737233   2.875   7.281   4.445  0.5461  0.1670  0.2738
  154MOL   C20837234   2.890   7.284   4.598 -0.3177  0.0428  0.1806
  154MOL   C20937235   2.872   7.138   4.387  0.2321  0.6704  0.1860
  154MOL   O21037236   2.907   7.101   4.272 -0.1793 -0.2810  0.0866
  154MOL   O21137237   2.809   7.054   4.474 -0.4501  0.7969  0.4069
  154MOL   H21237238   2.716   7.411   4.496  2.0841  0.6246  0.7712
  154MOL   H21337239   2.674   7.265   4.416 -0.6105  0.3993 -0.1096
  154MOL   H21437240   2.924   7.385   4.620  0.5977 -0.3788  0.7360
  154MOL   H21537241   2.957   7.211   4.643 -0.6751  0.0004  0.6424
  154MOL   H21637242   2.799   7.268   4.654 -0.8872 -0.9433 -1.0008
  154MOL   H21737243   2.815   6.969   4.432 -2.0510  0.8811 -0.0341
  154MOL   C21837244   3.003   7.366   4.391  0.4100  0.0062  1.2160
  154MOL   C21937245   3.153   7.319   4.414  0.0111 -0.8255  0.2403
  154MOL   C22037246   3.201   7.311   4.567  0.4527  0.4316 -0.0543
  154MOL   C22137247   3.183   7.189   4.339 -0.3032 -0.2347  0.0928
  154MOL   O22237248   3.222   7.091   4.398 -0.0711  0.9583  0.0597
  154MOL   O22337249   3.162   7.216   4.202 -0.1800  0.1655  0.0701
  154MOL   H22437250   2.996   7.375   4.283  0.8921 -1.9929  0.9945
  154MOL   H22537251   3.001   7.468   4.430 -0.1489 -0.0127  1.2382
  154MOL   H22637252   3.175   7.401   4.623  0.7202  1.6086 -1.7573
  154MOL   H22737253   3.306   7.287   4.578  0.1020 -0.4784  1.4408
  154MOL   H22837254   3.162   7.227   4.623 -1.3734  0.2673 -1.5078
  154MOL   H22937255   3.173   7.138   4.150 -1.5140  1.1573 -1.7303
  154MOL   C23037256   3.244   7.431   4.350 -0.1699  0.6638  0.6262
  154MOL   C23137257   3.398   7.402   4.342 -0.7842  0.1042 -0.5190
  154MOL   C23237258   3.443   7.443   4.208 -0.1561  0.4927 -0.3781
  154MOL   C23337259   3.484   7.471   4.454  0.1214  0.0852  0.0715
  154MOL   O23437260   3.444   7.560   4.525  0.4354  0.0918 -0.4807
  154MOL   O23537261   3.609   7.426   4.450 -0.2477  0.1027 -0.3472
  154MOL   H23637262   3.211   7.459   4.250 -0.3650  1.7398  0.9822
  154MOL   H23737263   3.229   7.525   4.403 -0.0168 -0.5713  2.9373
  154MOL   H23837264   3.548   7.415   4.198 -0.7330 -1.5090 -1.0761
  154MOL   H23937265   3.443   7.552   4.211  0.7745  0.4560  1.0501
  154MOL   H24037266   3.385   7.395   4.129  1.9471 -0.3097 -1.4612
  154MOL   H24137267   3.659   7.477   4.512 -0.1742 -0.7694  0.3159
  154MOL   H24237268   3.423   7.296   4.347  3.1525  0.9737 -0.5624
  155MOL     C137269   2.760   6.731   0.023  0.1228  0.1774  0.5458
  155MOL     C237270   2.734   6.871   7.729  0.7330  0.1389  0.2174
  155MOL     C337271   2.586   6.906   7.751  0.5015  0.0081 -0.1540
  155MOL     C437272   2.812   6.979   0.034 -0.3692 -0.2077  0.1618
  155MOL     O537273   2.837   7.084   7.749 -0.2389 -0.4886  0.1482
  155MOL     O637274   2.841   6.951   0.167  0.0017 -0.0383  0.5469
  155MOL     H737275   2.868   6.725   0.040  0.3924 -0.5013 -1.3493
  155MOL     H837276   2.724   6.655   7.722  1.6743  2.1893 -2.6938
  155MOL     H937277   2.512   6.870   7.680  2.0455  0.8306 -2.2302
  155MOL    H1037278   2.577   7.013   7.730 -0.4501 -0.1901 -0.7964
  155MOL    H1137279   2.554   6.898   0.088  1.6562 -1.8168  0.0815
  155MOL    H1237280   2.873   7.028   0.211 -2.3295  0.8707  0.7691
  155MOL    H1337281   2.716   6.720   0.122 -1.7161 -0.4282 -0.3320
  155MOL    C1437282   2.756   6.883   7.568 -0.0130 -0.1159 -0.2221
  155MOL    C1537283   2.877   6.819   7.487  0.6486  0.1177 -0.1529
  155MOL    C1637284   3.008   6.863   7.549  0.2486 -0.2316  0.2760
  155MOL    C1737285   2.865   6.668   7.498  0.4570 -0.5129 -1.6764
  155MOL    O1837286   2.958   6.599   7.540 -0.0628 -0.1718  0.0142
  155MOL    O1937287   2.749   6.614   7.456  0.7214 -0.0955 -0.2980
  155MOL    H2037288   2.658   6.859   7.527  0.2554 -0.1966 -0.8212
  155MOL    H2137289   2.741   6.986   7.535  1.1106 -0.9255 -3.4598
  155MOL    H2237290   3.095   6.824   7.497 -1.9862 -0.3477 -3.5353
  155MOL    H2337291   3.006   6.826   7.652  2.4435 -2.0105 -0.2901
  155MOL    H2437292   3.027   6.970   7.555 -1.3632  0.2008 -1.7536
  155MOL    H2537293   2.742   6.520   7.463  1.5721 -0.2003 -0.7676
  155MOL    C2637294   2.861   6.870   7.333  0.0084 -0.3176 -0.0987
  155MOL    C2737295   2.935   6.812   7.204  0.8847 -0.2149 -0.4911
  155MOL    C2837296   2.859   6.687   7.149  0.1674 -0.5518  0.3172
  155MOL    C2937297   2.924   6.924   7.090 -1.0401  0.4254 -0.1751
  155MOL    O3037298   2.886   6.907   6.972  0.1810  0.9347 -0.2894
  155MOL    O3137299   2.978   7.047   7.125  0.5989 -0.0376 -0.3642
  155MOL    H3237300   2.757   6.857   7.306  0.2007 -1.5660 -0.2841
  155MOL    H3337301   2.880   6.977   7.343  1.3650 -0.5525 -0.0697
  155MOL    H3437302   2.903   6.641   7.061  0.2359 -0.1941  0.1639
  155MOL    H3537303   2.753   6.707   7.132  0.2793 -1.0905 -1.0883
  155MOL    H3637304   2.844   6.608   7.223 -1.3959  0.4336  1.0807
  155MOL    H3737305   2.986   7.111   7.056  1.5375 -0.5183 -0.7151
  155MOL    C3837306   3.088   6.774   7.232 -0.2069  0.5416  0.2781
  155MOL    C3937307   3.187   6.688   7.138 -0.7031  0.2306 -0.5875
  155MOL    C4037308   3.146   6.540   7.166 -0.9574 -0.6723  0.2825
  155MOL    C4137309   3.176   6.718   6.993 -0.0939  0.0820 -0.6530
  155MOL    O4237310   3.174   6.639   6.898  0.2862 -0.2572  0.5247
  155MOL    O4337311   3.193   6.849   6.971  0.3020 -0.7638  0.1139
  155MOL    H4437312   3.139   6.862   7.273  0.3170  0.8559 -1.0426
  155MOL    H4537313   3.074   6.712   7.321 -2.4843  1.6768  0.7590
  155MOL    H4637314   3.115   6.512   7.267 -0.6829  0.3634  0.6528
  155MOL    H4737315   3.239   6.483   7.161 -0.7996 -0.3072 -1.2137
  155MOL    H4837316   3.073   6.483   7.107  0.2807  0.3476 -2.3226
  155MOL    H4937317   3.213   6.875   6.882  1.0730  0.7177  0.6957
  155MOL    C5037318   3.338   6.713   7.182  0.4193 -0.0306  0.3253
  155MOL    C5137319   3.471   6.667   7.105  0.3044  0.6711  0.5249
  155MOL    C5237320   3.460   6.531   7.033 -0.2615 -0.7733 -0.0011
  155MOL    C5337321   3.515   6.768   6.991  0.1329  0.2143  0.2755
  155MOL    O5437322   3.533   6.730   6.876  0.0368 -0.7454  0.2171
  155MOL    O5537323   3.536   6.898   7.033 -0.8292  0.2892  0.3872
  155MOL    H5637324   3.354   6.817   7.212  1.2345  0.3085 -1.2397
  155MOL    H5737325   3.347   6.661   7.277  1.7491 -2.1177 -0.9034
  155MOL    H5837326   3.556   6.509   6.986  0.7727  1.6422  0.8813
  155MOL    H5937327   3.386   6.510   6.956  0.1339 -0.2448 -0.5385
  155MOL    H6037328   3.453   6.454   7.110  0.9110 -2.4041 -1.4897
  155MOL    H6137329   3.553   6.909   7.125  2.8196  0.9380 -0.3204
  155MOL    C6237330   3.580   6.653   7.215 -0.4012 -0.1769  0.1543
  155MOL    C6337331   3.735   6.673   7.193  0.3504 -0.8731  0.0264
  155MOL    C6437332   3.785   6.612   7.063  0.7843 -0.6198 -0.0535
  155MOL    C6537333   3.774   6.822   7.208 -0.8524  0.1802  0.6338
  155MOL    O6637334   3.689   6.907   7.237  0.3589 -0.0099 -0.0623
  155MOL    O6737335   3.905   6.837   7.182  0.1083 -0.1700 -0.2372
  155MOL    H6837336   3.545   6.715   7.298 -1.4861  1.2695 -1.3602
  155MOL    H6937337   3.559   6.553   7.252 -3.9363  0.9695  1.4533
  155MOL    H7037338   3.744   6.649   6.969 -1.3529 -0.6190  0.8473
  155MOL    H7137339   3.770   6.504   7.056  1.0518 -0.6240 -0.6547
  155MOL    H7237340   3.894   6.618   7.052  0.8693  0.3592  1.2547
  155MOL    H7337341   3.920   6.930   7.175 -0.3661 -0.2201 -2.1066
  155MOL    C7437342   3.808   6.581   7.301  0.0435 -0.0958 -0.1375
  155MOL    C7537343   3.779   6.584   7.457 -1.1244  0.3983 -0.2521
  155MOL    C7637344   3.744   6.730   7.507 -0.5535  0.5136 -0.4836
  155MOL    C7737345   3.655   6.497   7.490 -0.0520 -0.6173  0.0633
  155MOL    O7837346   3.561   6.533   7.558  0.0925  0.1352  0.2543
  155MOL    O7937347   3.651   6.375   7.430 -0.2995 -0.2540  0.2269
  155MOL    H8037348   3.792   6.476   7.275 -1.5054  0.5826 -2.0806
  155MOL    H8137349   3.916   6.581   7.287  0.8372  2.6936  5.0333
  155MOL    H8237350   3.659   6.778   7.459  1.3707  1.7300 -2.7401
  155MOL    H8337351   3.827   6.800   7.506 -1.4631  1.6357  0.6953
  155MOL    H8437352   3.710   6.723   7.611  0.5266 -0.7265 -0.1879
  155MOL    H8537353   3.573   6.337   7.466  0.6831 -1.4284  1.1645
  155MOL    C8637354   3.893   6.512   7.534  0.0175 -0.0051  0.2909
  155MOL    C8737355   4.025   6.579   7.581 -0.1986  0.7322 -0.5412
  155MOL    C8837356   4.111   6.642   7.466 -0.2606 -0.5205 -0.0297
  155MOL    C8937357   3.998   6.696   7.679  0.1114  0.4607  0.5893
  155MOL    O9037358   4.065   6.801   7.673  0.9251  0.2594 -0.3604
  155MOL    O9137359   3.898   6.665   7.767 -0.5369 -0.2319  0.3144
  155MOL    H9237360   3.843   6.470   7.621  1.1888 -0.0001  0.9809
  155MOL    H9337361   3.926   6.433   7.467  0.8957  2.0979 -1.8280
  155MOL    H9437362   4.051   6.720   7.421  0.1042  0.3304  0.9377
  155MOL    H9537363   4.140   6.576   7.383 -1.4003 -0.5268 -0.4234
  155MOL    H9637364   4.203   6.693   7.493 -0.3167 -0.6160  0.3388
  155MOL    H9737365   3.879   6.745   0.047 -1.6838 -0.3975  0.1578
  155MOL    C9837366   4.119   6.463   7.643  0.6005 -0.2040 -0.2333
  155MOL    C9937367   4.114   6.399   0.021 -0.1349  0.2766  0.2416
  155MOL   C10037368   4.218   6.287   0.009 -0.4315 -0.0770  0.2174
  155MOL   C10137369   4.163   6.498   0.134  0.0964  0.7840  0.7247
  155MOL   O10237370   4.085   6.553   0.213  0.1888 -0.0011 -0.7697
  155MOL   O10337371   4.299   6.503   0.140  0.1369 -0.3559  0.1822
  155MOL   H10437372   4.127   6.382   7.571  0.0746  0.9519 -1.6110
  155MOL   H10537373   4.218   6.509   7.641  0.3267  0.4912  1.0920
  155MOL   H10637374   4.205   6.212   7.699  0.7212 -0.2686  0.2104
  155MOL   H10737375   4.235   6.237   0.104  2.6062  2.1342  0.9129
  155MOL   H10837376   4.320   6.315   7.751 -0.7810  1.6290  0.6135
  155MOL   H10937377   4.341   6.562   0.201 -1.4756  1.0684 -0.0461
  155MOL   C11037378   3.974   6.341   0.069  0.3851 -0.3853 -0.0195
  155MOL   C11137379   3.906   6.203   0.032 -0.6304 -0.0381 -0.1802
  155MOL   C11237380   3.933   6.173   7.646  1.1807  0.4511  0.4251
  155MOL   C11337381   3.967   6.095   0.124 -0.8186 -0.1250 -0.3327
  155MOL   O11437382   4.031   6.118   0.228  0.2335  0.0736  0.0861
  155MOL   O11537383   3.948   5.973   0.084  0.0127 -0.6037 -0.2017
  155MOL   H11637384   3.975   6.348   0.178 -0.0527 -0.2499 -0.0237
  155MOL   H11737385   3.903   6.420   0.049  0.4989 -0.7405 -1.8703
  155MOL   H11837386   4.035   6.155   7.613  1.1713 -1.0620  1.1567
  155MOL   H11937387   3.904   6.259   7.586  3.8284  1.1221  0.0508
  155MOL   H12037388   3.883   6.082   7.611  3.5921 -1.3677  1.5562
  155MOL   H12137389   4.004   5.911   0.129  0.8694 -1.5957 -2.5442
  155MOL   C12237390   3.744   6.203   0.046  0.3658 -0.1134  0.0705
  155MOL   C12337391   3.671   6.220   0.177 -0.2467  0.3574 -0.2179
  155MOL   C12437392   3.669   6.078   0.250 -0.5711 -0.3508  0.3663
  155MOL   C12537393   3.727   6.333   0.273  0.0516  0.5427 -0.5473
  155MOL   O12637394   3.738   6.452   0.248 -0.1756 -0.1661 -0.3586
  155MOL   O12737395   3.767   6.283   0.393 -0.5540  0.1563 -0.0278
  155MOL   H12837396   3.706   6.275   7.741  2.7475 -0.3811 -1.5025
  155MOL   H12937397   3.706   6.114   7.764  0.8754 -0.5999  0.5434
  155MOL   H13037398   3.649   6.089   0.356  2.6264  0.3357  0.9473
  155MOL   H13137399   3.767   6.031   0.259 -0.9141 -1.3814 -0.9699
  155MOL   H13237400   3.605   6.001   0.206 -3.7890  2.4385 -0.0568
  155MOL   H13337401   3.789   6.359   0.444  1.9589 -0.6820  0.2143
  155MOL   C13437402   3.517   6.248   0.139  0.8047  0.2943 -0.0830
  155MOL   C13537403   3.418   6.358   0.216  0.2273 -0.1712  0.1966
  155MOL   C13637404   3.273   6.311   0.178  0.0714 -0.3323 -0.8717
  155MOL   C13737405   3.440   6.337   0.369 -0.5209  0.2818  0.3892
  155MOL   O13837406   3.493   6.421   0.445 -0.1358  0.7067 -0.2196
  155MOL   O13937407   3.401   6.206   0.401 -0.3821 -0.3435  0.4227
  155MOL   H14037408   3.506   6.280   0.035  1.2421  1.0782  0.1090
  155MOL   H14137409   3.467   6.152   0.135  1.3574  0.0615 -1.7553
  155MOL   H14237410   3.199   6.362   0.240  0.6263  0.1602 -0.6054
  155MOL   H14337411   3.267   6.204   0.196 -3.4175  0.0972  0.9144
  155MOL   H14437412   3.253   6.314   0.071  0.5368 -2.3243 -1.0336
  155MOL   H14537413   3.442   6.178   0.482 -2.1604 -1.6628  0.8995
  155MOL   C14637414   3.450   6.507   0.166  0.3555 -0.3883 -0.1260
  155MOL   C14737415   3.341   6.626   0.153  0.4696  0.6504  0.5560
  155MOL   C14837416   3.255   6.602   0.018  0.0422  0.2355 -0.2333
  155MOL   C14937417   3.252   6.648   0.284 -0.2689 -0.4813  0.3925
  155MOL   O15037418   3.131   6.662   0.276 -0.2391  0.1972 -0.2867
  155MOL   O15137419   3.318   6.672   0.401 -0.4728 -0.3591  0.0721
  155MOL   H15237420   3.521   6.548   0.238  3.3653 -3.6036 -1.1339
  155MOL   H15337421   3.506   6.497   0.073 -1.0970  1.2880 -1.2028
  155MOL   H15437422   3.169   6.539   0.041 -0.6046  1.3381  0.3694
  155MOL   H15537423   3.307   6.556   7.701  0.1771 -0.4047  0.1994
  155MOL   H15637424   3.212   6.696   7.752 -1.1793 -0.4338 -0.5929
  155MOL   H15737425   3.257   6.695   0.470 -1.1400 -0.1865 -0.5677
  155MOL   C15837426   3.422   6.762   0.126  0.2101 -0.0991 -0.4871
  155MOL   C15937427   3.371   6.911   0.124  0.6273  0.1532 -0.1946
  155MOL   C16037428   3.494   6.981   0.059 -0.0698  0.3832 -0.2413
  155MOL   C16137429   3.249   6.928   0.031 -0.4078 -0.3824  0.4984
  155MOL   O16237430   3.261   6.963   7.681  0.4558  0.0324  0.2267
  155MOL   O16337431   3.129   6.902   0.091 -0.1637 -0.7828  0.2203
  155MOL   H16437432   3.496   6.761   0.206  0.4912 -1.1795 -0.7430
  155MOL   H16537433   3.494   6.740   0.048 -0.1272 -1.8430 -0.3444
  155MOL   H16637434   3.574   6.982   0.133  1.1637  0.1167 -1.5474
  155MOL   H16737435   3.479   7.083   0.024 -1.3647 -0.2479 -1.5825
  155MOL   H16837436   3.536   6.941   7.735  0.8210  2.8191 -0.9245
  155MOL   H16937437   3.140   6.862   0.176  0.8944 -1.2066 -0.1007
  155MOL   C17037438   3.350   6.975   0.266 -0.5118  0.2006 -0.2036
  155MOL   C17137439   3.292   7.115   0.294 -0.0882  0.4207 -1.0610
  155MOL   C17237440   3.323   7.217   0.178 -0.7010  0.2533 -0.9617
  155MOL   C17337441   3.140   7.104   0.313  0.1726 -0.1485  0.3435
  155MOL   O17437442   3.079   7.002   0.330 -0.1112 -0.1444  0.1371
  155MOL   O17537443   3.080   7.226   0.326 -0.3058  0.4348 -0.5547
  155MOL   H17637444   3.298   6.902   0.328 -1.4755  1.8077  0.9134
  155MOL   H17737445   3.448   6.971   0.313 -1.5629  1.5348  2.2118
  155MOL   H17837446   3.293   7.181   0.079  0.4449  0.1917 -1.2843
  155MOL   H17937447   3.427   7.245   0.189 -0.7175  0.2104 -0.6868
  155MOL   H18037448   3.288   7.318   0.198 -2.8135 -0.6571  0.1605
  155MOL   H18137449   2.986   7.229   0.338 -0.2966  1.9925 -0.7701
  155MOL   C18237450   3.349   7.170   0.426  0.2359 -1.0348 -0.0517
  155MOL   C18337451   3.331   7.118   0.574 -0.2926  0.7023  0.0351
  155MOL   C18437452   3.197   7.162   0.638 -0.3635 -0.7008 -0.2130
  155MOL   C18537453   3.337   6.961   0.581  0.4238  0.2963 -0.3037
  155MOL   O18637454   3.248   6.889   0.626 -0.5872  0.1608  0.4014
  155MOL   O18737455   3.459   6.909   0.556  0.5597  0.2445 -0.5494
  155MOL   H18837456   3.457   7.170   0.411  0.3384 -2.3063  0.7107
  155MOL   H18937457   3.327   7.277   0.425  2.5350 -0.5078  2.4099
  155MOL   H19037458   3.203   7.132   0.742 -3.0995  0.3908  0.2973
  155MOL   H19137459   3.119   7.104   0.589 -0.7836 -0.8096  0.5864
  155MOL   H19237460   3.186   7.269   0.623  3.7889 -0.3061 -0.9789
  155MOL   H19337461   3.458   6.815   0.562  2.3128  0.2067 -0.7624
  155MOL   C19437462   3.451   7.168   0.661 -0.0741 -0.7040  0.4175
  155MOL   C19537463   3.481   7.321   0.714 -0.4412  0.5663  0.1556
  155MOL   C19637464   3.471   7.408   0.591 -0.1401 -0.9314 -0.2120
  155MOL   C19737465   3.378   7.365   0.815 -0.0053  0.2618  0.4225
  155MOL   O19837466   3.307   7.457   0.795  0.3750  0.4968 -0.2761
  155MOL   O19937467   3.361   7.285   0.920  0.0062  0.2558 -0.6986
  155MOL   H20037468   3.460   7.106   0.750  2.0209 -0.4244  0.4122
  155MOL   H20137469   3.543   7.133   0.615 -0.7827 -1.8637 -0.1497
  155MOL   H20237470   3.531   7.368   0.510 -0.5236  2.3233 -2.2300
  155MOL   H20337471   3.518   7.505   0.608  0.6042 -1.6217  1.7704
  155MOL   H20437472   3.371   7.430   0.552 -0.3214 -0.2632  0.6032
  155MOL   H20537473   3.287   7.321   0.967  0.2529 -1.5016  1.0936
  155MOL   C20637474   3.630   7.299   0.776  0.0991  0.3201  0.1174
  155MOL   C20737475   3.699   7.413   0.855  0.1004  0.1455 -0.1939
  155MOL   C20837476   3.625   7.427   0.996 -0.0020  0.1035 -0.0173
  155MOL   C20937477   3.840   7.359   0.892  0.0168  0.4727  0.3659
  155MOL   O21037478   3.876   7.328   1.010  0.0090 -0.1070 -0.3538
  155MOL   O21137479   3.917   7.328   0.786 -0.5114 -0.0041 -0.0758
  155MOL   H21237480   3.631   7.211   0.840 -2.9275  0.4796  0.4421
  155MOL   H21337481   3.694   7.278   0.690 -1.9273 -0.5726 -1.1973
  155MOL   H21437482   3.616   7.335   1.053 -1.7017 -0.6674 -1.5074
  155MOL   H21537483   3.529   7.477   0.991  0.6475  1.2238 -1.9724
  155MOL   H21637484   3.687   7.484   1.065 -1.0383 -1.3370  2.1231
  155MOL   H21737485   4.004   7.303   0.816 -1.4216 -0.9815  1.8070
  155MOL   C21837486   3.714   7.550   0.764  0.4511  0.3265 -0.3956
  155MOL   C21937487   3.830   7.654   0.785  0.2927  0.6325  0.2920
  155MOL   C22037488   3.888   7.665   0.927 -0.3981  0.3287 -0.3866
  155MOL   C22137489   3.950   7.622   0.697 -0.2997 -0.8098  0.3010
  155MOL   O22237490   3.946   7.541   0.606 -0.1843  0.3898  0.0921
  155MOL   O22337491   4.055   7.703   0.723 -0.1527  0.6081 -0.1665
  155MOL   H22437492   3.717   7.518   0.660  1.7604 -1.2857  0.1275
  155MOL   H22537493   3.621   7.603   0.785  0.9932  0.8117  0.8147
  155MOL   H22637494   3.945   7.756   0.948 -1.0035  0.6858 -0.2984
  155MOL   H22737495   3.952   7.582   0.959 -0.9974 -0.4180 -1.0861
  155MOL   H22837496   3.813   7.661   1.006 -0.0682 -0.0040 -0.0810
  155MOL   H22937497   4.113   7.673   0.655  1.2344  1.7978  0.4639
  155MOL   C23037498   3.766   0.028   0.743  0.0147 -0.4635  0.6598
  155MOL   C23137499   3.701   0.040   0.604  0.5983  0.0299 -0.1403
  155MOL   C23237500   3.570   0.127   0.615 -0.2247 -0.7212  0.2292
  155MOL   C23337501   3.791   0.089   0.488 -0.0127 -0.0041 -1.1334
  155MOL   O23437502   3.885   0.165   0.511 -0.1704  0.0938  0.2180
  155MOL   O23537503   3.778   0.027   0.370 -0.1517 -0.2888 -0.3704
  155MOL   H23637504   3.697   0.056   0.822 -2.2977 -0.7477 -1.1764
  155MOL   H23737505   3.847   0.100   0.744  0.7954 -1.3382  0.4476
  155MOL   H23837506   3.504   0.074   0.684  0.4365 -1.3031  0.4189
  155MOL   H23937507   3.519   0.135   0.519  0.4093 -0.9489 -0.1293
  155MOL   H24037508   3.595   0.225   0.656 -0.6192  0.0036 -1.2351
  155MOL   H24137509   3.850   0.055   0.317 -1.7179 -0.3664 -2.6409
  155MOL   H24237510   3.673   7.708   0.569 -0.7914  0.3246  0.0814
  156MOL     C137511   4.899   3.217   6.917  0.1073  0.0389  0.0819
  156MOL     C237512   5.029   3.143   6.887  0.6778 -0.1813 -0.1768
  156MOL     C337513   5.027   3.114   6.739  0.3079 -0.3118 -0.3624
  156MOL     C437514   5.150   3.236   6.909  0.1328 -0.1428 -0.0064
  156MOL     O537515   5.261   3.191   6.905 -0.1123 -0.3601  0.0194
  156MOL     O637516   5.122   3.369   6.926  0.0048  0.6494  0.4821
  156MOL     H737517   4.810   3.156   6.933 -0.0674 -0.6071 -3.1495
  156MOL     H837518   4.871   3.289   6.840 -0.0989  0.7366  0.7948
  156MOL     H937519   5.109   3.054   6.699  1.3032  0.2098  0.8572
  156MOL    H1037520   5.030   3.211   6.689 -1.0962  0.9959  1.9885
  156MOL    H1137521   4.938   3.057   6.714 -1.2701  1.7730  0.3350
  156MOL    H1237522   5.199   3.422   6.936 -1.2215  2.4198  0.7909
  156MOL    H1337523   4.920   3.273   7.008 -0.8780 -1.0332  0.9760
  156MOL    C1437524   5.042   3.003   6.959  0.8722 -0.1396 -1.1329
  156MOL    C1537525   5.032   2.989   7.117  0.9784  0.0406  0.1326
  156MOL    C1637526   5.133   3.083   7.187 -0.2356 -0.0484 -0.0381
  156MOL    C1737527   4.894   3.033   7.158 -0.0304  1.1506 -0.2381
  156MOL    O1837528   4.871   3.135   7.226  0.4990  0.0290  0.1141
  156MOL    O1937529   4.799   2.949   7.113 -0.4673  0.0782  0.0951
  156MOL    H2037530   4.978   2.932   6.906 -0.5690  0.2651  0.0231
  156MOL    H2137531   5.131   2.954   6.922  2.9349  0.0668  3.2540
  156MOL    H2237532   5.135   3.086   7.296 -0.8162  0.2067 -0.0331
  156MOL    H2337533   5.106   3.188   7.174  0.2329 -0.0744 -1.2800
  156MOL    H2437534   5.231   3.057   7.149 -0.7143 -1.5858 -0.2831
  156MOL    H2537535   4.724   2.968   7.167 -0.0069 -0.5637  0.9746
  156MOL    C2637536   5.063   2.843   7.154  0.7363 -0.1073  0.4900
  156MOL    C2737537   5.033   2.775   7.294 -0.3517 -0.1624 -0.4474
  156MOL    C2837538   5.079   2.860   7.417 -0.3763  0.1184  0.1749
  156MOL    C2937539   4.882   2.748   7.316  0.2413  0.3444  0.0311
  156MOL    O3037540   4.819   2.774   7.418  0.6287 -0.6043  0.5190
  156MOL    O3137541   4.827   2.674   7.209  0.1857  0.1257 -0.4924
  156MOL    H3237542   5.019   2.781   7.076 -0.4162  1.6633 -0.2728
  156MOL    H3337543   5.171   2.843   7.142  0.7189 -3.8639 -0.2874
  156MOL    H3437544   5.026   2.954   7.403 -0.1725  0.0323 -1.2703
  156MOL    H3537545   5.184   2.887   7.427 -0.4950  0.0407  1.7277
  156MOL    H3637546   5.040   2.818   7.509  1.4840 -0.4433  0.7461
  156MOL    H3737547   4.745   2.638   7.239  1.4354 -2.2824  0.1084
  156MOL    C3837548   5.104   2.634   7.281 -0.3474  0.0573 -0.1576
  156MOL    C3937549   5.146   2.536   7.404  1.0531 -0.6610  1.1582
  156MOL    C4037550   5.262   2.610   7.462  0.5218 -0.1928  0.2704
  156MOL    C4137551   5.033   2.529   7.507 -0.4319 -0.2305 -0.0826
  156MOL    O4237552   5.038   2.576   7.617 -0.6026 -0.5675  0.1700
  156MOL    O4337553   4.913   2.484   7.451 -0.2499 -0.2041 -0.0912
  156MOL    H4437554   5.046   2.569   7.215  2.1816  0.1457 -2.5996
  156MOL    H4537555   5.191   2.645   7.215  0.4977  0.6335  1.0398
  156MOL    H4637556   5.233   2.701   7.516  1.7036  0.0237  0.5587
  156MOL    H4737557   5.329   2.642   7.383 -1.3995 -0.8772 -1.6929
  156MOL    H4837558   5.316   2.552   7.537 -0.6802 -1.3551  0.2570
  156MOL    H4937559   4.844   2.496   7.514 -3.1983 -1.5123 -2.9214
  156MOL    C5037560   5.187   2.396   7.345 -0.4946 -0.4509 -0.0853
  156MOL    C5137561   5.215   2.261   7.424 -0.1570  0.5538  0.1654
  156MOL    C5237562   5.310   2.172   7.329 -1.0077 -0.1674 -0.5177
  156MOL    C5337563   5.287   2.292   7.558  0.2652 -1.2511 -0.3973
  156MOL    O5437564   5.229   2.328   7.664  0.0007  0.0736 -0.1173
  156MOL    O5537565   5.421   2.282   7.552 -0.2601  0.1657  0.2275
  156MOL    H5637566   5.127   2.372   7.258  1.5344  0.7211 -1.8905
  156MOL    H5737567   5.283   2.426   7.301 -1.3667 -0.0462 -1.7491
  156MOL    H5837568   5.248   2.130   7.249 -1.2145  1.8757 -1.4423
  156MOL    H5937569   5.364   2.089   7.375  0.9749  1.3264 -0.0968
  156MOL    H6037570   5.384   2.227   7.272 -0.3758 -1.5412 -1.0616
  156MOL    H6137571   5.441   2.322   7.635  1.0081  2.6875 -1.2176
  156MOL    C6237572   5.068   2.189   7.427  0.1792 -0.5917  1.0282
  156MOL    C6337573   5.033   2.071   7.515  0.6284 -0.0845  0.3335
  156MOL    C6437574   5.143   1.963   7.520  1.3001  0.0065 -0.0870
  156MOL    C6537575   5.023   2.123   7.662 -0.4268 -0.5644 -0.5939
  156MOL    O6637576   5.070   2.063   7.755  0.4895 -0.4644 -0.2316
  156MOL    O6737577   4.961   2.240   7.679 -0.4953  0.2812  0.0242
  156MOL    H6837578   4.993   2.265   7.447  0.2278 -0.2523 -0.0650
  156MOL    H6937579   5.045   2.159   7.325 -0.9194  1.5505  0.6206
  156MOL    H7037580   5.191   1.942   7.425  0.8133 -1.9675  0.0792
  156MOL    H7137581   5.099   1.867   7.550 -0.5390  1.6013  2.5290
  156MOL    H7237582   5.223   1.986   7.589  0.2522  0.8887  0.8468
  156MOL    H7337583   4.964   2.261   0.004  1.9793  1.1262 -0.2020
  156MOL    C7437584   4.895   2.001   7.487  0.0361  1.0909 -0.1894
  156MOL    C7537585   4.841   1.947   7.350 -0.4642 -0.0190  0.5718
  156MOL    C7637586   4.795   2.075   7.265  0.3148 -0.5275  0.2365
  156MOL    C7737587   4.951   1.882   7.269  0.0310 -0.3430 -0.1195
  156MOL    O7837588   5.024   1.934   7.181  0.2763  0.4746 -0.8722
  156MOL    O7937589   4.966   1.753   7.304  0.0493  0.2662 -0.1976
  156MOL    H8037590   4.882   1.921   7.559 -0.8887  0.6179 -0.8705
  156MOL    H8137591   4.819   2.066   7.531  1.4107  2.2081  0.5952
  156MOL    H8237592   4.741   2.051   7.174  0.7341 -1.6673  0.2858
  156MOL    H8337593   4.873   2.136   7.219 -1.4632  1.5936 -0.0724
  156MOL    H8437594   4.729   2.142   7.322  0.4702 -0.2457  0.0859
  156MOL    H8537595   4.929   1.734   7.388  1.9750 -0.2971  0.5414
  156MOL    C8637596   4.717   1.852   7.368  0.5370  0.7904 -0.0869
  156MOL    C8737597   4.568   1.900   7.395 -0.0179 -0.2437  0.8636
  156MOL    C8837598   4.577   1.985   7.525 -0.7850 -0.0083  0.0596
  156MOL    C8937599   4.505   1.977   7.275  0.2151  0.7234  0.5765
  156MOL    O9037600   4.476   2.098   7.283 -0.1760 -0.0984  0.1335
  156MOL    O9137601   4.499   1.905   7.162 -0.5504 -0.1745  0.1883
  156MOL    H9237602   4.706   1.773   7.294  0.1039 -1.4302  2.2814
  156MOL    H9337603   4.744   1.786   7.450 -3.5971 -3.2696 -1.7570
  156MOL    H9437604   4.483   1.984   7.581 -1.1815  0.6515 -0.5758
  156MOL    H9537605   4.593   2.089   7.497  2.4312 -0.8652 -1.4894
  156MOL    H9637606   4.644   1.952   7.604 -1.4453 -0.7668  0.3116
  156MOL    H9737607   4.478   1.958   7.087  0.0686 -1.2356 -0.7586
  156MOL    C9837608   4.491   1.770   7.434 -0.5355 -0.9214 -0.7495
  156MOL    C9937609   4.331   1.761   7.430 -0.1795 -0.1946  0.0753
  156MOL   C10037610   4.270   1.882   7.498  0.4238 -0.4632  0.3186
  156MOL   C10137611   4.276   1.743   7.290  0.0664  0.0519 -0.4132
  156MOL   O10237612   4.208   1.829   7.238  0.2089 -0.1314 -0.1240
  156MOL   O10337613   4.313   1.634   7.224  0.5167  0.1064 -0.3125
  156MOL   H10437614   4.522   1.676   7.390 -2.7196 -1.0957 -1.9906
  156MOL   H10537615   4.513   1.749   7.539 -0.1055 -0.6309 -0.7815
  156MOL   H10637616   4.309   1.884   7.600  0.4918  2.2546  0.2602
  156MOL   H10737617   4.161   1.884   7.491  0.3549 -2.1722  0.5388
  156MOL   H10837618   4.296   1.974   7.446 -1.1395 -0.2654 -0.1439
  156MOL   H10937619   4.272   1.646   7.141  1.5355 -0.7060 -0.9522
  156MOL   C11037620   4.290   1.634   7.521 -0.2103 -0.0427  0.6253
  156MOL   C11137621   4.160   1.605   7.604  0.3570 -0.1494  0.2469
  156MOL   C11237622   4.150   1.706   7.726 -0.5702  0.5315 -0.2450
  156MOL   C11337623   4.030   1.628   7.524  0.2159  0.0030 -0.6675
  156MOL   O11437624   4.016   1.625   7.402  0.5200  0.4027 -0.3045
  156MOL   O11537625   3.917   1.631   7.601  0.0589  0.4947  0.1366
  156MOL   H11637626   4.287   1.549   7.453 -0.4367  1.5994 -1.4436
  156MOL   H11737627   4.371   1.613   7.592  0.5090  3.5377  0.9293
  156MOL   H11837628   4.080   1.670   0.034  0.6316  0.0401  0.6455
  156MOL   H11937629   4.106   1.798   7.688 -1.4810  1.4995  2.9969
  156MOL   H12037630   4.240   1.720   0.019 -0.1979 -1.9867 -0.1448
  156MOL   H12137631   3.846   1.623   7.539  0.9574 -0.8451 -0.7335
  156MOL   C12237632   4.154   1.465   7.673  0.6687  0.0982 -0.0277
  156MOL   C12337633   4.150   1.323   7.606 -0.2179 -0.4282  0.3947
  156MOL   C12437634   4.030   1.315   7.512 -0.0903  0.2346  0.0446
  156MOL   C12537635   4.283   1.296   7.530  0.3349  0.3495 -0.3263
  156MOL   O12637636   4.394   1.334   7.568  0.2118  0.3795 -0.4599
  156MOL   O12737637   4.263   1.216   7.426  0.1341  0.1206 -0.5131
  156MOL   H12837638   4.232   1.452   7.748  1.0088 -0.2193 -0.4299
  156MOL   H12937639   4.065   1.461   7.735  2.2940 -1.6874  2.3025
  156MOL   H13037640   4.050   1.354   7.412  0.1417 -1.9325 -0.7804
  156MOL   H13137641   3.938   1.359   7.552 -0.7536 -0.5177 -0.6405
  156MOL   H13237642   4.002   1.213   7.489  0.2560  0.3958 -1.1087
  156MOL   H13337643   4.349   1.195   7.392 -0.3939 -0.0471 -1.7720
  156MOL   C13437644   4.127   1.219   7.725  0.2392  0.1431  0.0097
  156MOL   C13537645   4.237   1.133   0.037  0.7670  0.5026 -0.5366
  156MOL   C13637646   4.160   1.058   0.148  0.1478  0.3002 -0.6955
  156MOL   C13737647   4.303   1.029   7.708 -0.0313 -0.3134  0.7062
  156MOL   O13837648   4.423   1.033   7.674 -0.3556 -0.8342 -0.1049
  156MOL   O13937649   4.210   0.956   7.648 -0.0158 -0.2893  0.6460
  156MOL   H14037650   4.055   1.251   0.033 -2.2184  1.1174 -2.6803
  156MOL   H14137651   4.073   1.138   7.676  2.5004 -0.3278 -1.8322
  156MOL   H14237652   4.124   1.119   0.231  0.4404  0.6534 -0.8266
  156MOL   H14337653   4.217   0.977   0.193 -0.5078 -0.0821 -0.5540
  156MOL   H14437654   4.076   1.000   0.110  0.4587 -0.9596  0.5149
  156MOL   H14537655   4.249   0.918   7.571  0.9643  0.1550  0.9195
  156MOL   C14637656   4.344   1.219   0.110 -0.6112 -0.1244  0.1429
  156MOL   C14737657   4.335   1.307   0.242  0.1039  0.3429  0.2332
  156MOL   C14837658   4.197   1.378   0.255  0.1290  0.0119 -0.2476
  156MOL   C14937659   4.340   1.223   0.375 -0.2787 -0.0842 -0.7911
  156MOL   O15037660   4.374   1.104   0.383 -0.1989 -0.0683 -0.2327
  156MOL   O15137661   4.301   1.293   0.487 -0.3283  0.3458 -0.1336
  156MOL   H15237662   4.429   1.151   0.114 -0.5046  0.0321  0.4850
  156MOL   H15337663   4.383   1.283   0.030 -2.7202  0.9849 -0.0437
  156MOL   H15437664   4.114   1.316   0.288 -1.0099  0.9794 -1.2531
  156MOL   H15537665   4.159   1.428   0.166  0.0646 -1.1651 -0.8938
  156MOL   H15637666   4.200   1.455   0.332 -0.0438 -1.2985  1.1047
  156MOL   H15737667   4.322   1.247   0.567  0.6965  0.0081 -0.5945
  156MOL   C15837668   4.449   1.419   0.243 -0.3309 -0.0090 -0.4088
  156MOL   C15937669   4.603   1.399   0.223  0.4565  0.2135  0.1206
  156MOL   C16037670   4.658   1.302   0.330  0.0070 -0.3204  0.1885
  156MOL   C16137671   4.629   1.344   0.080  0.4990 -0.1249  0.5175
  156MOL   O16237672   4.689   1.239   0.060 -0.2732  0.6696 -0.1876
  156MOL   O16337673   4.577   1.419   7.750  0.1109 -0.4295 -0.1636
  156MOL   H16437674   4.413   1.497   0.175 -1.4951  0.5664  0.8485
  156MOL   H16537675   4.437   1.468   0.339 -0.7619  1.1497 -1.0478
  156MOL   H16637676   4.616   1.202   0.340 -1.9703  0.5461  0.9010
  156MOL   H16737677   4.653   1.346   0.430 -1.1090  0.0571 -0.0250
  156MOL   H16837678   4.762   1.277   0.313  0.2845  0.5058  0.6263
  156MOL   H16937679   4.586   1.377   7.666  1.9883 -0.0075 -0.1850
  156MOL   C17037680   4.665   1.544   0.242 -0.2269  0.0919 -0.1318
  156MOL   C17137681   4.819   1.577   0.221 -0.7013  0.2836 -0.0658
  156MOL   C17237682   4.913   1.454   0.255  0.4718  0.0422 -1.0611
  156MOL   C17337683   4.846   1.626   0.075  0.2709  0.5854 -0.2539
  156MOL   O17437684   4.765   1.629   7.747 -0.4575  0.2605  0.8254
  156MOL   O17537685   4.973   1.668   0.063  0.4335 -0.1882 -0.1675
  156MOL   H17637686   4.608   1.624   0.195  1.7400  0.4298 -1.9966
  156MOL   H17737687   4.653   1.557   0.350  0.2835 -0.3998 -0.0120
  156MOL   H17837688   5.020   1.461   0.234  0.7499 -2.2492 -0.5412
  156MOL   H17937689   4.884   1.372   0.189 -0.1335  0.1955 -0.9889
  156MOL   H18037690   4.911   1.430   0.361 -0.6044  0.9137 -0.8808
  156MOL   H18137691   4.965   1.712   7.747 -1.2939  0.5530  0.3736
  156MOL   C18237692   4.862   1.683   0.337 -0.0172  0.3561 -0.3689
  156MOL   C18337693   4.812   1.824   0.361  0.1190  0.7707  0.4205
  156MOL   C18437694   4.889   1.874   0.487 -0.2643  0.5273  0.0932
  156MOL   C18537695   4.862   1.906   0.240  0.9846  0.6709  0.9538
  156MOL   O18637696   4.789   1.932   0.145 -0.0083  0.5565 -0.6939
  156MOL   O18737697   4.990   1.951   0.242 -0.2297 -0.1139 -0.3040
  156MOL   H18837698   4.834   1.639   0.432 -1.2193 -0.2546 -0.9892
  156MOL   H18937699   4.971   1.680   0.337  0.0256  0.6517 -2.5826
  156MOL   H19037700   4.869   1.978   0.512 -1.3046  0.3304  0.1081
  156MOL   H19137701   4.998   1.873   0.483 -0.2964 -0.1726 -0.6172
  156MOL   H19237702   4.859   1.817   0.576 -2.2225 -0.5727 -1.2304
  156MOL   H19337703   5.010   2.001   0.164  0.6195  0.9472  0.5697
  156MOL   C19437704   4.655   1.826   0.369  0.3399  0.0145  0.6822
  156MOL   C19537705   4.573   1.932   0.443  0.9358  0.2351 -0.6520
  156MOL   C19637706   4.426   1.886   0.415  0.7365  0.0328 -0.6097
  156MOL   C19737707   4.601   1.940   0.595 -0.3501  0.3588  0.1139
  156MOL   O19837708   4.645   2.034   0.653  0.5133  0.1294 -0.0236
  156MOL   O19937709   4.581   1.817   0.643 -0.4468 -0.0011 -0.0957
  156MOL   H20037710   4.612   1.807   0.271 -2.1126 -2.1014  2.0971
  156MOL   H20137711   4.627   1.735   0.422  1.6949 -0.6590  0.2860
  156MOL   H20237712   4.355   1.949   0.468  0.6633 -0.4484 -0.1295
  156MOL   H20337713   4.413   1.782   0.446  0.8925  1.0362  3.0579
  156MOL   H20437714   4.395   1.890   0.310  0.9906 -1.4448 -0.7555
  156MOL   H20537715   4.586   1.806   0.737  0.4408  1.6241  0.0709
  156MOL   C20637716   4.589   2.067   0.368  0.2161 -0.1120  0.3775
  156MOL   C20737717   4.540   2.206   0.409  1.1161 -0.1356  0.5969
  156MOL   C20837718   4.404   2.194   0.480  0.7096  0.2495 -0.8430
  156MOL   C20937719   4.638   2.284   0.498  0.0308 -0.0374  0.1840
  156MOL   O21037720   4.757   2.252   0.516  0.4406  0.4363  0.5350
  156MOL   O21137721   4.580   2.396   0.550  0.6687 -0.3124  0.0289
  156MOL   H21237722   4.696   2.082   0.357 -0.3209  3.1915 -0.8903
  156MOL   H21337723   4.550   2.041   0.270  1.9914  0.0114 -0.3809
  156MOL   H21437724   4.409   2.141   0.575  0.8511  1.7130 -0.0194
  156MOL   H21537725   4.328   2.150   0.415  1.8653 -0.2065 -1.9145
  156MOL   H21637726   4.352   2.287   0.502  1.0096  0.2665 -0.2150
  156MOL   H21737727   4.640   2.450   0.599  0.6725 -0.5213  0.2557
  156MOL   C21837728   4.508   2.284   0.282  0.1912 -0.5810  0.1554
  156MOL   C21937729   4.616   2.352   0.189  0.4865 -0.5632 -0.4086
  156MOL   C22037730   4.698   2.459   0.269 -0.1154 -0.1223  0.0140
  156MOL   C22137731   4.710   2.249   0.126 -1.1438 -0.0341  0.4359
  156MOL   O22237732   4.835   2.243   0.148 -0.5774 -0.2778 -0.5409
  156MOL   O22337733   4.643   2.164   0.044  0.0698  0.3124 -0.4018
  156MOL   H22437734   4.443   2.220   0.222  0.2418  0.7361 -1.3411
  156MOL   H22537735   4.446   2.367   0.316  0.3262  0.0083 -0.9935
  156MOL   H22637736   4.746   2.538   0.210 -0.9171 -0.2507 -0.8239
  156MOL   H22737737   4.782   2.421   0.328 -0.3178  0.2969  0.5746
  156MOL   H22837738   4.633   2.507   0.342 -0.8611 -1.4941  0.2620
  156MOL   H22937739   4.695   2.093   0.009  0.0155 -0.6587  1.4200
  156MOL   C23037740   4.521   2.428   0.082  0.1825 -0.1171  0.0488
  156MOL   C23137741   4.603   2.487   7.736 -0.4175  0.8649 -0.8218
  156MOL   C23237742   4.582   2.408   7.604 -0.1004  0.1241  0.7166
  156MOL   C23337743   4.592   2.641   7.717  0.1089  0.9744  0.2137
  156MOL   O23437744   4.507   2.689   7.638  0.5513 -0.0430  0.3332
  156MOL   O23537745   4.673   2.722   0.013  0.2628  0.6918  0.4815
  156MOL   H23637746   4.452   2.359   0.034 -0.4423  0.4203  0.1620
  156MOL   H23737747   4.465   2.506   0.134  1.1444 -0.1099  1.0844
  156MOL   H23837748   4.639   2.461   7.528 -1.5450  0.1092 -0.4048
  156MOL   H23937749   4.477   2.411   7.574  0.5999  0.0738 -1.9007
  156MOL   H24037750   4.623   2.307   7.600  1.1407  0.6731 -1.3486
  156MOL   H24137751   4.641   2.807   7.752 -0.0273  0.7876  1.0775
  156MOL   H24237752   4.711   2.475   7.750 -0.1452  0.3416 -3.1427
  157MOL     C137753   1.786   6.152   3.952  0.2103 -0.5351 -0.0057
  157MOL     C237754   1.664   6.173   3.859 -0.7937 -0.4254  0.4599
  157MOL     C337755   1.626   6.321   3.862  0.6418  0.4729  0.8989
  157MOL     C437756   1.703   6.137   3.713 -0.1413 -0.1463 -0.2686
  157MOL     O537757   1.625   6.087   3.635 -0.0796 -0.2443 -0.6316
  157MOL     O637758   1.833   6.174   3.687 -0.0595 -0.1146  0.2789
  157MOL     H737759   1.849   6.066   3.931 -1.4296 -1.7339 -0.1727
  157MOL     H837760   1.752   6.156   4.056  0.9396  0.0021  0.2101
  157MOL     H937761   1.685   6.384   3.795 -0.4835  1.5901  0.9386
  157MOL    H1037762   1.625   6.373   3.958 -2.0916  0.0650  1.1286
  157MOL    H1137763   1.530   6.339   3.814  1.7280 -1.2760 -2.0726
  157MOL    H1237764   1.848   6.141   3.600  0.3942  0.3609  0.1680
  157MOL    H1337765   1.857   6.234   3.946  0.7929 -1.1449 -1.8438
  157MOL    C1437766   1.549   6.081   3.903 -0.0694 -0.7683 -0.5367
  157MOL    C1537767   1.572   5.925   3.943  0.5500  1.0813 -0.1871
  157MOL    C1637768   1.671   5.848   3.848 -0.4081  0.0194 -0.5431
  157MOL    C1737769   1.625   5.917   4.089  0.1266  0.4096  0.5018
  157MOL    O1837770   1.733   5.874   4.125  0.0334 -0.0964 -0.0212
  157MOL    O1937771   1.539   5.972   4.172  0.7491  0.0449 -0.0901
  157MOL    H2037772   1.502   6.135   3.985  1.4931  0.2651 -0.2963
  157MOL    H2137773   1.466   6.080   3.832 -1.2244  0.2815  0.7833
  157MOL    H2237774   1.690   5.743   3.868  2.3437  0.5724 -0.0364
  157MOL    H2337775   1.769   5.897   3.856 -0.2052 -0.6964  1.5115
  157MOL    H2437776   1.651   5.854   3.741  1.1166  1.3849 -0.7809
  157MOL    H2537777   1.565   5.983   4.262 -0.4549 -0.1478  0.2888
  157MOL    C2637778   1.436   5.849   3.934  0.0048  0.2257  0.1917
  157MOL    C2737779   1.400   5.704   3.992 -0.5393 -0.7758  0.8226
  157MOL    C2837780   1.522   5.609   3.983 -0.3683 -0.5474  0.6983
  157MOL    C2937781   1.350   5.721   4.135  0.2385  0.0318 -0.2066
  157MOL    O3037782   1.402   5.661   4.225  0.1561 -0.2134 -0.3515
  157MOL    O3137783   1.236   5.792   4.144  0.0613  0.2622 -0.0017
  157MOL    H3237784   1.360   5.926   3.952  0.2037  0.2209  1.0756
  157MOL    H3337785   1.422   5.847   3.826  1.2064  2.1048 -0.0234
  157MOL    H3437786   1.556   5.580   3.884  0.5374 -0.6157  1.0211
  157MOL    H3537787   1.501   5.520   4.044 -2.1677 -1.6435 -1.4623
  157MOL    H3637788   1.608   5.658   4.028  0.7519 -0.4344 -1.5425
  157MOL    H3737789   1.201   5.803   4.232  0.2627 -0.2228  0.1403
  157MOL    C3837790   1.291   5.637   3.897  0.1466  0.3732 -0.3755
  157MOL    C3937791   1.227   5.487   3.906 -0.6458 -0.1699  0.1190
  157MOL    C4037792   1.314   5.413   3.805  0.4668 -0.0880 -1.0694
  157MOL    C4137793   1.230   5.422   4.049  0.4391  0.8105 -0.1767
  157MOL    O4237794   1.175   5.468   4.146  0.5161  0.0525  0.0909
  157MOL    O4337795   1.277   5.297   4.050  0.2938  0.6057  0.4066
  157MOL    H4437796   1.205   5.701   3.917 -0.5802 -0.9899  0.9779
  157MOL    H4537797   1.317   5.665   3.795  0.9626  3.7802  0.6961
  157MOL    H4637798   1.303   5.447   3.702  0.6217 -0.0136 -1.0612
  157MOL    H4737799   1.308   5.304   3.810 -1.9918  0.0925  1.9555
  157MOL    H4837800   1.419   5.419   3.833  0.1500  0.5213  0.0374
  157MOL    H4937801   1.272   5.252   4.133 -0.3054  0.0824  0.0946
  157MOL    C5037802   1.077   5.517   3.866 -0.4301  0.3358 -0.5198
  157MOL    C5137803   0.970   5.415   3.810 -0.4679  0.2987 -0.3908
  157MOL    C5237804   1.027   5.337   3.687 -0.1313 -0.3506 -0.0835
  157MOL    C5337805   0.921   5.314   3.911  0.3646 -0.3622 -0.2901
  157MOL    O5437806   0.968   5.294   4.017 -0.1745  1.2706 -0.2506
  157MOL    O5537807   0.818   5.245   3.861  0.0782  0.3327 -0.2597
  157MOL    H5637808   1.029   5.585   3.937 -2.3714 -2.6295  1.1392
  157MOL    H5737809   1.088   5.578   3.777 -1.7089  1.9175  0.3861
  157MOL    H5837810   0.942   5.282   3.648 -2.2884  0.4612  3.2106
  157MOL    H5937811   1.106   5.269   3.719 -0.5312 -1.3580 -1.1981
  157MOL    H6037812   1.076   5.397   3.611  1.3100 -0.9315  0.3733
  157MOL    H6137813   0.790   5.185   3.928 -1.1697 -0.3624 -1.3776
  157MOL    C6237814   0.856   5.505   3.757 -0.1319 -0.2183 -0.2870
  157MOL    C6337815   0.780   5.616   3.844 -0.0488  0.8051 -0.2540
  157MOL    C6437816   0.737   5.546   3.982  0.0993 -0.3431 -0.5828
  157MOL    C6537817   0.852   5.754   3.879 -0.2685 -0.2651 -0.4704
  157MOL    O6637818   0.854   5.803   3.992 -0.0219  0.1511 -0.1622
  157MOL    O6737819   0.904   5.829   3.779 -0.3208  0.0781  0.5083
  157MOL    H6837820   0.898   5.562   3.674 -0.1957 -0.1010 -0.2376
  157MOL    H6937821   0.779   5.452   3.701  1.2998 -1.4716 -1.1151
  157MOL    H7037822   0.671   5.610   4.040  0.1126  0.5361 -1.5167
  157MOL    H7137823   0.821   5.530   4.049 -1.2161  0.7406  1.3683
  157MOL    H7237824   0.676   5.456   3.969 -0.0327 -0.2683 -0.4891
  157MOL    H7337825   0.950   5.899   3.822  0.7937 -0.9823  1.0664
  157MOL    C7437826   0.655   5.640   3.755 -0.1622 -0.2872  0.4731
  157MOL    C7537827   0.544   5.750   3.776  0.2472  0.0420 -0.1275
  157MOL    C7637828   0.497   5.763   3.920 -0.1365 -0.7398 -0.7016
  157MOL    C7737829   0.598   5.893   3.740 -0.1709 -0.8252  0.2947
  157MOL    O7837830   0.576   5.989   3.809 -0.1212  0.1159 -0.0819
  157MOL    O7937831   0.667   5.906   3.624  0.3284 -0.1354 -0.0129
  157MOL    H8037832   0.680   5.651   3.650  0.6584 -1.8191  0.4922
  157MOL    H8137833   0.602   5.545   3.760 -2.6935  1.0576  0.3217
  157MOL    H8237834   0.562   5.820   3.986  0.1648 -0.0770 -1.5703
  157MOL    H8337835   0.466   5.669   3.966 -2.0275  0.8537  1.4208
  157MOL    H8437836   0.414   5.833   3.925  0.3883 -0.1810  0.3427
  157MOL    H8537837   0.706   5.990   3.642  0.4488  0.1835 -1.7136
  157MOL    C8637838   0.420   5.733   3.675  0.1395 -0.0908  0.1072
  157MOL    C8737839   0.331   5.596   3.654 -0.3275 -0.3032 -0.0887
  157MOL    C8837840   0.313   5.534   3.795  0.4061  0.2265  0.1211
  157MOL    C8937841   0.191   5.636   3.597 -0.0400  0.0780  0.6408
  157MOL    O9037842   0.089   5.617   3.661 -0.0575  0.0908 -0.4541
  157MOL    O9137843   0.203   5.697   3.478 -0.5515  0.5899 -1.2381
  157MOL    H9237844   0.355   5.811   3.715 -0.4876 -0.8239  0.5329
  157MOL    H9337845   0.455   5.768   3.578  0.0746 -0.7834 -0.1638
  157MOL    H9437846   0.252   5.444   3.784  2.8388 -1.2715 -1.6171
  157MOL    H9537847   0.270   5.603   3.867 -2.1082 -1.2210  0.0684
  157MOL    H9637848   0.399   5.501   3.852 -0.4546 -2.9980 -0.3084
  157MOL    H9737849   0.121   5.701   3.431 -1.5867 -0.7425  0.3873
  157MOL    C9837850   0.405   5.518   3.542  0.2774 -0.1204  0.2729
  157MOL    C9937851   0.386   5.362   3.513 -0.7014  0.2204  0.9751
  157MOL   C10037852   0.461   5.283   3.619  0.3938  0.2953  0.3613
  157MOL   C10137853   0.232   5.323   3.508  0.0150 -0.3847  0.0654
  157MOL   O10237854   0.152   5.375   3.428 -0.8870  0.1456 -0.3088
  157MOL   O10337855   0.193   5.225   3.592 -0.4469 -0.2302  0.3805
  157MOL   H10437856   0.419   5.582   3.455 -0.0046 -0.8924 -0.3448
  157MOL   H10537857   0.505   5.518   3.584  1.5641 -0.8850 -2.6494
  157MOL   H10637858   0.568   5.303   3.631  0.0748  1.5121  1.3980
  157MOL   H10737859   0.447   5.176   3.607  2.1349  0.0165  0.6707
  157MOL   H10837860   0.431   5.313   3.720 -1.3713  0.6548 -0.2633
  157MOL   H10937861   0.114   5.192   3.552 -0.1449  0.3603 -0.7329
  157MOL   C11037862   0.438   5.341   3.363 -0.1567 -0.2922 -0.1372
  157MOL   C11137863   0.458   5.198   3.296 -0.4053 -0.2127  0.1779
  157MOL   C11237864   0.337   5.110   3.326  0.0042 -0.6754  0.2940
  157MOL   C11337865   0.460   5.217   3.142  0.0394  0.7450  0.4885
  157MOL   O11437866   0.406   5.140   3.063  0.5468 -0.3620  0.2327
  157MOL   O11537867   0.537   5.325   3.105  0.0615  0.0792 -0.0564
  157MOL   H11637868   0.364   5.394   3.303  1.5363  0.0633 -1.9627
  157MOL   H11737869   0.522   5.405   3.335  0.1866 -0.8588 -0.4004
  157MOL   H11837870   0.325   5.085   3.432 -0.6573 -1.2466  0.0923
  157MOL   H11937871   0.350   5.015   3.275  1.2599  0.7579 -2.1226
  157MOL   H12037872   0.245   5.155   3.290 -0.3250 -1.4845  0.1073
  157MOL   H12137873   0.542   5.329   3.011  2.0791  2.4145  0.1049
  157MOL   C12237874   0.593   5.118   3.346  0.6640 -0.2557  0.7204
  157MOL   C12337875   0.751   5.153   3.324  0.5088 -0.0451 -0.1561
  157MOL   C12437876   0.787   5.119   3.169 -0.1607  0.2630  0.1943
  157MOL   C12537877   0.777   5.303   3.345  1.1590 -0.9572 -0.2008
  157MOL   O12637878   0.846   5.374   3.276 -0.1182  0.2075 -0.0132
  157MOL   O12737879   0.718   5.338   3.456 -0.3470 -0.0056  0.6081
  157MOL   H12837880   0.561   5.090   3.446 -1.0948  0.3669  0.3570
  157MOL   H12937881   0.573   5.034   3.279 -1.0249  0.8748 -0.2345
  157MOL   H13037882   0.763   5.016   3.140  1.9412 -0.2140  0.0734
  157MOL   H13137883   0.893   5.130   3.147  0.3657  0.7758  2.8492
  157MOL   H13237884   0.747   5.196   3.104 -2.1439  0.0146  1.0891
  157MOL   H13337885   0.721   5.432   3.456 -2.1737  0.0999 -1.4537
  157MOL   C13437886   0.822   5.060   3.432  0.1699 -1.3457  0.3668
  157MOL   C13537887   0.969   5.007   3.420  0.6911 -0.0043 -0.0168
  157MOL   C13637888   1.058   5.126   3.382  0.6177  0.1065  0.0737
  157MOL   C13737889   1.013   4.962   3.559 -0.1901  0.9940  1.0069
  157MOL   O13837890   0.929   4.906   3.629 -0.2439  0.5050  0.2194
  157MOL   O13937891   1.142   4.988   3.600  0.0474 -0.2384  0.0024
  157MOL   H14037892   0.824   5.111   3.529 -0.0377 -1.0839  0.2355
  157MOL   H14137893   0.755   4.975   3.434  0.9649 -2.0794 -2.5605
  157MOL   H14237894   1.051   5.206   3.455 -0.0198  0.0116  0.1146
  157MOL   H14337895   1.032   5.170   3.286 -1.1766  0.6561  0.7861
  157MOL   H14437896   1.165   5.105   3.374  0.5795 -0.3992  0.8404
  157MOL   H14537897   1.190   5.031   3.532 -2.3200  1.0614 -0.9102
  157MOL   C14637898   0.977   4.893   3.311  0.1025  0.4012 -0.0791
  157MOL   C14737899   1.080   4.783   3.303  0.2187 -0.1941 -0.4170
  157MOL   C14837900   1.219   4.847   3.307 -0.2147 -0.2531  0.1854
  157MOL   C14937901   1.075   4.683   3.414  0.7085 -0.4962 -0.0041
  157MOL   O15037902   1.172   4.656   3.486 -0.8380 -0.1588  0.0392
  157MOL   O15137903   0.952   4.632   3.435  0.9311  0.0046 -0.0484
  157MOL   H15237904   0.877   4.851   3.305 -0.3256  1.3311  0.4182
  157MOL   H15337905   0.970   4.945   3.216  0.3655 -0.9260 -0.8456
  157MOL   H15437906   1.298   4.774   3.293  0.0218  0.1255 -0.4589
  157MOL   H15537907   1.245   4.891   3.404 -0.2879 -1.3969  0.7341
  157MOL   H15637908   1.245   4.923   3.234 -0.0535  0.0718  0.5767
  157MOL   H15737909   0.957   4.579   3.513 -2.0009  0.8623  0.8008
  157MOL   C15837910   1.049   4.691   3.173  0.3081  0.1533 -0.1973
  157MOL   C15937911   1.082   4.725   3.024 -0.8323 -0.1668  0.4782
  157MOL   C16037912   1.045   4.601   2.938 -0.2645 -0.4412 -0.0427
  157MOL   C16137913   1.004   4.849   2.978 -0.2776  0.2132  0.5752
  157MOL   O16237914   1.051   4.959   2.957  0.1985 -0.6885  0.2143
  157MOL   O16337915   0.865   4.827   2.983 -0.5277 -0.2046 -0.6215
  157MOL   H16437916   1.109   4.601   3.188  2.1897  1.0803 -1.8469
  157MOL   H16537917   0.944   4.661   3.176 -0.3517  2.4341  0.9893
  157MOL   H16637918   0.946   4.565   2.966  0.4727  0.1194  3.5584
  157MOL   H16737919   1.112   4.517   2.953  0.5346 -0.3595 -3.0257
  157MOL   H16837920   1.038   4.632   2.834 -0.6923 -0.4018 -0.0060
  157MOL   H16937921   0.815   4.907   2.977  0.6657  0.7240  1.2452
  157MOL   C17037922   1.240   4.759   3.005  0.7379 -0.6048  0.0119
  157MOL   C17137923   1.334   4.725   2.883  0.3425 -0.1029  0.7002
  157MOL   C17237924   1.472   4.787   2.912  0.7135 -0.5128 -0.4961
  157MOL   C17337925   1.352   4.568   2.870  0.2833  0.0834 -0.2132
  157MOL   O17437926   1.321   4.501   2.769 -0.5919 -0.5994  0.0339
  157MOL   O17537927   1.402   4.511   2.981  0.3313  0.1730  0.2967
  157MOL   H17637928   1.263   4.861   3.038  0.6143 -0.5195 -0.1625
  157MOL   H17737929   1.285   4.703   3.087 -2.1323 -2.4514  0.3983
  157MOL   H17837930   1.514   4.738   3.000 -1.7943 -0.7889  0.5891
  157MOL   H17937931   1.468   4.894   2.930 -0.9869 -1.3652  5.3883
  157MOL   H18037932   1.540   4.765   2.830  0.0630 -0.2065 -1.1197
  157MOL   H18137933   1.427   4.423   2.959  1.3699  0.1343  1.5086
  157MOL   C18237934   1.266   4.780   2.752 -0.3620 -0.1797  0.5603
  157MOL   C18337935   1.323   4.855   2.631  0.3831 -0.7627  0.2802
  157MOL   C18437936   1.392   4.982   2.687 -0.0246  0.6102  0.2581
  157MOL   C18537937   1.425   4.764   2.555 -0.0905 -0.5461 -0.1589
  157MOL   O18637938   1.530   4.816   2.511  0.1883 -0.0340 -0.1871
  157MOL   O18737939   1.373   4.643   2.528 -0.1356  0.2039  0.1241
  157MOL   H18837940   1.222   4.698   2.696 -0.2098  0.3491 -0.3400
  157MOL   H18937941   1.184   4.841   2.788  0.5455  0.6269  1.3143
  157MOL   H19037942   1.414   5.037   2.596 -1.5816  2.6414  1.0855
  157MOL   H19137943   1.493   4.957   2.723  1.0151  1.1478 -2.1837
  157MOL   H19237944   1.341   5.042   2.763  0.9710 -1.3486  2.5537
  157MOL   H19337945   1.443   4.593   2.489  0.6290  1.9668 -0.8562
  157MOL   C19437946   1.204   4.883   2.536  0.2172 -0.0106 -0.7726
  157MOL   C19537947   1.201   4.932   2.385  0.4282  0.1070  0.7528
  157MOL   C19637948   1.296   5.054   2.367  0.7026 -0.0205 -0.6773
  157MOL   C19737949   1.231   4.832   2.270  0.7440 -0.7870 -0.2489
  157MOL   O19837950   1.244   4.712   2.293  0.1049 -0.6462 -0.4840
  157MOL   O19937951   1.233   4.891   2.149  0.3874  0.3878 -0.5777
  157MOL   H20037952   1.143   4.793   2.541 -0.5001  0.5065 -0.0358
  157MOL   H20137953   1.144   4.957   2.590 -1.0407  0.0538 -2.2395
  157MOL   H20237954   1.399   5.024   2.384  0.1963 -0.8496  1.1665
  157MOL   H20337955   1.266   5.121   2.448  1.0785 -0.9781  0.2754
  157MOL   H20437956   1.288   5.109   2.274  4.3581  1.2285 -0.3282
  157MOL   H20537957   1.206   4.981   2.160  1.0128  0.5100  0.0164
  157MOL   C20637958   1.058   4.999   2.357 -0.2254  0.3301 -0.3884
  157MOL   C20737959   0.917   4.935   2.352  0.1274  0.5808  0.1739
  157MOL   C20837960   0.826   5.040   2.279  0.3731  0.3595  0.0504
  157MOL   C20937961   0.915   4.804   2.265 -0.6898  0.4397 -0.3000
  157MOL   O21037962   0.896   4.691   2.310 -0.0955 -0.8892  0.0377
  157MOL   O21137963   0.950   4.830   2.133  0.7020 -0.3528 -0.3352
  157MOL   H21237964   1.041   5.086   2.421  1.7715 -2.0034  3.4288
  157MOL   H21337965   1.068   5.048   2.260 -1.5717  0.4531 -0.4786
  157MOL   H21437966   0.871   5.052   2.180 -1.2565  1.6207 -0.5469
  157MOL   H21537967   0.838   5.141   2.318  3.1792 -0.6504  2.0455
  157MOL   H21637968   0.723   5.012   2.259  1.3450 -0.6868 -3.9454
  157MOL   H21737969   0.980   4.747   2.099  0.2884 -0.3261 -0.7699
  157MOL   C21837970   0.872   4.906   2.507 -0.1118  0.2975 -0.5153
  157MOL   C21937971   0.720   4.906   2.548 -0.3424 -0.1973  0.1884
  157MOL   C22037972   0.667   5.052   2.570 -0.1453 -0.1069 -0.1024
  157MOL   C22137973   0.627   4.827   2.446  0.5307 -0.1212 -0.4947
  157MOL   O22237974   0.553   4.879   2.365 -0.4044 -0.3910  0.0113
  157MOL   O22337975   0.641   4.695   2.455 -0.4342 -0.2005 -0.7848
  157MOL   H22437976   0.908   4.806   2.529 -1.1158 -0.0263 -0.3069
  157MOL   H22537977   0.917   4.966   2.586  0.4256 -0.9030  0.0891
  157MOL   H22637978   0.687   5.124   2.490 -0.7162 -0.9424 -1.0018
  157MOL   H22737979   0.715   5.090   2.660 -0.3200 -0.6764  0.2284
  157MOL   H22837980   0.559   5.057   2.584  0.0387  0.6933  1.1415
  157MOL   H22937981   0.585   4.658   2.387 -1.2896  0.6387 -0.5522
  157MOL   C23037982   0.716   4.834   2.687  0.8507  0.0746  0.1939
  157MOL   C23137983   0.576   4.828   2.751 -0.3491  0.4604  0.3488
  157MOL   C23237984   0.546   4.700   2.832  0.0851 -0.3245  0.0327
  157MOL   C23337985   0.548   4.946   2.845 -0.2177 -0.1830 -0.0245
  157MOL   O23437986   0.630   5.000   2.920  0.1032 -0.6061 -0.0129
  157MOL   O23537987   0.412   4.982   2.831  0.4597  0.2404 -0.1489
  157MOL   H23637988   0.755   4.733   2.685 -0.8817 -0.5870 -0.6564
  157MOL   H23737989   0.791   4.872   2.757  0.7398 -0.5347  0.6479
  157MOL   H23837990   0.630   4.678   2.898 -1.7180 -1.1771  2.1288
  157MOL   H23937991   0.521   4.622   2.761  2.1729 -0.9442 -0.0377
  157MOL   H24037992   0.465   4.708   2.905 -0.1193  0.7278 -0.2983
  157MOL   H24137993   0.400   5.055   2.890  1.4721  2.0207 -2.0941
  157MOL   H24237994   0.501   4.841   2.673 -0.5109 -0.2488  0.3830
  158MOL     C137995   2.200   6.033   1.312 -0.3633  0.2409  0.9250
  158MOL     C237996   2.222   6.141   1.422  0.1090 -0.0228 -0.0919
  158MOL     C337997   2.346   6.224   1.370  0.6539 -0.1825  0.1083
  158MOL     C437998   2.099   6.234   1.425  0.3183  0.0720  0.0767
  158MOL     O537999   2.053   6.282   1.525  0.2714 -0.1410 -0.0213
  158MOL     O638000   2.059   6.265   1.301 -0.3601  0.5610 -0.0790
  158MOL     H738001   2.101   5.988   1.301  0.3109 -0.6241 -1.8944
  158MOL     H838002   2.267   5.950   1.335 -1.8893 -1.0283  0.8865
  158MOL     H938003   2.441   6.171   1.381  0.1161 -1.2766 -0.4601
  158MOL    H1038004   2.351   6.317   1.427 -0.3481  0.2228 -0.4685
  158MOL    H1138005   2.333   6.265   1.270 -2.1512  0.5123  0.7347
  158MOL    H1238006   1.976   6.310   1.304 -0.2571  0.8400 -1.3423
  158MOL    H1338007   2.226   6.070   1.213 -0.3529  0.7407  1.1166
  158MOL    C1438008   2.258   6.079   1.555  0.2072  0.5157  0.0060
  158MOL    C1538009   2.175   5.971   1.633 -0.2981  0.4839 -0.3754
  158MOL    C1638010   2.023   6.001   1.631 -0.4028  0.2165 -0.2393
  158MOL    C1738011   2.199   5.829   1.569 -0.5112 -0.1190 -0.2508
  158MOL    O1838012   2.113   5.753   1.531 -0.4066 -0.7547 -0.4317
  158MOL    O1938013   2.328   5.802   1.553  0.1671 -0.2144 -0.0331
  158MOL    H2038014   2.363   6.049   1.560 -0.2156 -0.9211  0.1958
  158MOL    H2138015   2.278   6.163   1.622  3.2900 -0.2041  0.0613
  158MOL    H2238016   1.993   6.005   1.526 -0.9947 -0.3523 -0.0916
  158MOL    H2338017   2.004   6.097   1.678 -2.7332  0.1442 -0.9426
  158MOL    H2438018   1.960   5.922   1.671 -0.5478  0.6512  0.4001
  158MOL    H2538019   2.353   5.727   1.501  2.0691  0.0562  0.4641
  158MOL    C2638020   2.239   5.970   1.782  0.4582  0.5871  0.4642
  158MOL    C2738021   2.209   5.887   1.910  0.0656  0.3609 -0.4811
  158MOL    C2838022   2.057   5.894   1.938 -1.2138  0.0404 -0.1215
  158MOL    C2938023   2.240   5.736   1.883  0.4306  0.7147  0.4374
  158MOL    O3038024   2.155   5.649   1.883 -0.5213 -0.2055 -0.3660
  158MOL    O3138025   2.371   5.710   1.852  0.1565  0.4940  0.0343
  158MOL    H3238026   2.347   5.977   1.769  0.3400  0.6067 -0.5414
  158MOL    H3338027   2.201   6.069   1.808  2.0512  0.2441  4.4696
  158MOL    H3438028   1.987   5.866   1.859 -2.8913  1.0841  0.9813
  158MOL    H3538029   2.027   5.991   1.978 -1.7742 -0.9689  1.9728
  158MOL    H3638030   2.028   5.823   2.015 -2.6487  0.8695  0.1163
  158MOL    H3738031   2.390   5.620   1.827  0.7502  0.9524 -1.1889
  158MOL    C3838032   2.302   5.946   2.032 -0.3464 -0.5298  0.1945
  158MOL    C3938033   2.324   5.888   2.176  0.0172  0.6607 -0.0695
  158MOL    C4038034   2.357   6.020   2.260  0.1920  0.3033 -0.0027
  158MOL    C4138035   2.202   5.819   2.232  0.8681 -1.0162  0.0510
  158MOL    O4238036   2.126   5.878   2.307 -0.4151  0.3139  0.0001
  158MOL    O4338037   2.184   5.694   2.190  0.3184 -0.6479 -0.4828
  158MOL    H4438038   2.403   5.969   2.000 -0.1200 -0.9410  0.6060
  158MOL    H4538039   2.252   6.041   2.052  3.5904  1.0556  3.0303
  158MOL    H4638040   2.460   6.057   2.261  0.3513 -0.0376  3.3630
  158MOL    H4738041   2.333   6.008   2.366 -1.9603  0.4287 -0.4493
  158MOL    H4838042   2.306   6.110   2.227 -2.5995 -1.1253  0.2855
  158MOL    H4938043   2.103   5.655   2.218 -0.0178 -0.1878 -0.8130
  158MOL    C5038044   2.454   5.797   2.180  0.7697 -0.2845  0.1542
  158MOL    C5138045   2.511   5.736   2.316  0.3095  0.2044  0.0714
  158MOL    C5238046   2.396   5.657   2.383 -0.6516  0.3735 -0.3689
  158MOL    C5338047   2.616   5.637   2.266  0.0873  0.4298 -0.1910
  158MOL    O5438048   2.626   5.524   2.305 -0.2219  0.1127  0.0164
  158MOL    O5538049   2.705   5.688   2.173  0.5405  0.4288  0.1918
  158MOL    H5638050   2.445   5.711   2.114  1.3142 -0.1395 -0.1148
  158MOL    H5738051   2.535   5.855   2.136  1.4710 -1.1858  0.2522
  158MOL    H5838052   2.433   5.592   2.462 -1.3343 -1.6148 -1.6516
  158MOL    H5938053   2.338   5.591   2.318 -0.9655  0.9653 -0.6984
  158MOL    H6038054   2.323   5.726   2.425  0.4417  1.5344 -0.3673
  158MOL    H6138055   2.770   5.622   2.156 -0.1865  0.3218 -2.3948
  158MOL    C6238056   2.577   5.848   2.405 -1.0847  0.7253 -0.0374
  158MOL    C6338057   2.671   5.823   2.528  0.0120 -0.2960 -0.3242
  158MOL    C6438058   2.610   5.718   2.612 -0.2117  0.3175  0.1649
  158MOL    C6538059   2.814   5.791   2.476  0.0299  1.1428  0.3795
  158MOL    O6638060   2.885   5.868   2.407  0.1914 -0.4867 -0.5923
  158MOL    O6738061   2.857   5.669   2.513  0.4689  0.1167  0.8534
  158MOL    H6838062   2.626   5.920   2.340  0.3331 -0.2587 -0.0640
  158MOL    H6938063   2.501   5.907   2.457 -0.3337  0.1934  1.6846
  158MOL    H7038064   2.649   5.707   2.713  0.2388  0.7295  0.0356
  158MOL    H7138065   2.619   5.620   2.565 -2.9612 -0.9788  2.1857
  158MOL    H7238066   2.502   5.736   2.615 -0.3367 -0.2214 -0.8099
  158MOL    H7338067   2.946   5.665   2.483  0.3381  1.4354  0.2522
  158MOL    C7438068   2.676   5.962   2.604 -0.8821 -0.0209 -0.5715
  158MOL    C7538069   2.778   6.004   2.717  0.4980  0.0552 -0.0334
  158MOL    C7638070   2.836   5.880   2.787 -0.1889  0.2348  0.2920
  158MOL    C7738071   2.898   6.093   2.664  0.2035  0.1481  0.3170
  158MOL    O7838072   2.905   6.125   2.545 -1.0244 -1.1321  0.1477
  158MOL    O7938073   2.996   6.103   2.754  0.5821  0.3577  0.1066
  158MOL    H8038074   2.678   6.039   2.527 -0.2819  1.9083  1.3208
  158MOL    H8138075   2.573   5.971   2.638 -0.8707 -0.9902 -0.2626
  158MOL    H8238076   2.756   5.820   2.831 -0.8071 -1.6973 -3.2747
  158MOL    H8338077   2.892   5.905   2.877  0.7139 -0.2938 -0.1165
  158MOL    H8438078   2.902   5.817   2.727 -1.9612  0.6969 -2.1922
  158MOL    H8538079   3.064   6.155   2.715 -0.0714  0.4240 -0.9496
  158MOL    C8638080   2.690   6.076   2.828  0.2064  0.2874  0.0156
  158MOL    C8738081   2.652   6.223   2.819  0.1320  0.2200 -0.1121
  158MOL    C8838082   2.623   6.266   2.667 -0.0380  0.0806  0.0737
  158MOL    C8938083   2.513   6.241   2.894 -0.0481 -0.0831 -0.4929
  158MOL    O9038084   2.408   6.274   2.841  0.7837 -1.0146 -0.1702
  158MOL    O9138085   2.517   6.204   3.026 -0.0019 -0.4255  0.0400
  158MOL    H9238086   2.597   6.022   2.845 -0.4186  0.7621 -1.7826
  158MOL    H9338087   2.744   6.066   2.922  1.9224  1.0714 -0.8617
  158MOL    H9438088   2.558   6.202   2.608 -0.7602  1.4723 -0.6775
  158MOL    H9538089   2.716   6.277   2.611 -2.3468  0.6735 -3.7858
  158MOL    H9638090   2.581   6.367   2.663 -1.5041 -0.5691 -0.8614
  158MOL    H9738091   2.606   6.184   3.054  0.6378  1.2261 -0.7830
  158MOL    C9838092   2.765   6.305   2.889  0.7936  0.5601 -0.2288
  158MOL    C9938093   2.783   6.461   2.889  0.0246 -0.6098 -0.2627
  158MOL   C10038094   2.916   6.493   2.962 -0.1603  0.3555  0.3175
  158MOL   C10138095   2.808   6.522   2.748 -0.5492 -0.2044  1.0301
  158MOL   O10238096   2.757   6.623   2.706 -0.2485 -0.0189  0.2195
  158MOL   O10338097   2.894   6.443   2.683  0.5576  0.0972 -0.0798
  158MOL   H10438098   2.762   6.275   2.994  0.1965 -0.8272 -0.6286
  158MOL   H10538099   2.858   6.270   2.845  1.8299  0.9035  1.6093
  158MOL   H10638100   2.910   6.479   3.069  0.8957  0.2485  0.3690
  158MOL   H10738101   2.942   6.598   2.952 -2.2843  0.7589 -1.3702
  158MOL   H10838102   3.001   6.432   2.931  1.5358  2.8360 -0.0657
  158MOL   H10938103   2.898   6.459   2.590 -1.1100  1.9998  0.1561
  158MOL   C11038104   2.667   6.530   2.979  0.7315 -0.0896 -0.7089
  158MOL   C11138105   2.607   6.674   2.990  0.4530 -0.4423 -0.3048
  158MOL   C11238106   2.719   6.773   3.020  0.3244  0.2751 -0.2063
  158MOL   C11338107   2.524   6.709   2.868 -1.3028  0.9123 -0.2089
  158MOL   O11438108   2.456   6.629   2.801 -0.3408 -0.0318 -0.0373
  158MOL   O11538109   2.532   6.843   2.834 -0.2702  0.4189 -0.3133
  158MOL   H11638110   2.578   6.478   2.945 -0.9732  2.5127 -0.3376
  158MOL   H11738111   2.671   6.477   3.074  0.9873 -0.0853 -0.7165
  158MOL   H11838112   2.693   6.879   3.009  1.0558  0.4400 -0.4078
  158MOL   H11938113   2.806   6.757   2.956  0.4999  0.9320 -0.1442
  158MOL   H12038114   2.743   6.760   3.126 -1.7520 -0.2200  0.2149
  158MOL   H12138115   2.471   6.863   2.765  0.8180  0.9412 -1.1297
  158MOL   C12238116   2.515   6.661   3.118 -0.8494 -0.6530  0.1687
  158MOL   C12338117   2.428   6.776   3.185 -0.7360 -0.4280  0.4753
  158MOL   C12438118   2.372   6.726   3.319 -0.4377 -0.1860  0.1566
  158MOL   C12538119   2.520   6.904   3.210 -0.2675 -0.3548  1.0315
  158MOL   O12638120   2.499   7.019   3.168 -0.4351 -0.0694 -0.4042
  158MOL   O12738121   2.613   6.885   3.304 -0.6972  0.0409  0.7199
  158MOL   H12838122   2.448   6.579   3.093  0.4909 -2.0160  0.9016
  158MOL   H12938123   2.576   6.608   3.192 -0.1192 -1.1696 -0.7975
  158MOL   H13038124   2.321   6.799   3.382 -1.7042 -0.1490 -0.8961
  158MOL   H13138125   2.453   6.696   3.386 -0.1079 -1.2806 -0.7034
  158MOL   H13238126   2.306   6.641   3.302 -0.1623 -0.1604 -1.0447
  158MOL   H13338127   2.639   6.971   3.331 -2.5267 -0.0519  2.9659
  158MOL   C13438128   2.311   6.844   3.102  0.4459  0.2434  0.7549
  158MOL   C13538129   2.177   6.769   3.061 -0.3622  0.0992  0.1489
  158MOL   C13638130   2.191   6.617   3.044  0.3175 -0.4141 -0.2309
  158MOL   C13738131   2.063   6.793   3.168  0.1754 -0.1573 -0.0768
  158MOL   O13838132   2.066   6.868   3.267 -0.0283  0.4909  0.5162
  158MOL   O13938133   1.942   6.734   3.123  0.1019 -0.6908 -0.0080
  158MOL   H14038134   2.273   6.928   3.159  0.4959 -0.3351  1.6395
  158MOL   H14138135   2.354   6.901   3.019 -1.3617  1.2676  0.4978
  158MOL   H14238136   2.249   6.583   2.958 -0.3598  1.1001 -1.3255
  158MOL   H14338137   2.088   6.584   3.029  1.0375 -2.6215 -0.4513
  158MOL   H14438138   2.225   6.563   3.131 -2.1631 -1.2869  0.2451
  158MOL   H14538139   1.875   6.750   3.188  1.8265 -1.0603  1.9311
  158MOL   C14638140   2.130   6.810   2.919  0.3852 -0.7882  0.6376
  158MOL   C14738141   2.090   6.961   2.874  0.7563 -0.2431  0.0596
  158MOL   C14838142   1.983   7.016   2.973  0.3634  0.0445  0.9068
  158MOL   C14938143   2.212   7.061   2.871  0.4701 -0.1191  0.4782
  158MOL   O15038144   2.210   7.171   2.928  0.1054  0.1165  0.5988
  158MOL   O15138145   2.308   7.012   2.793 -0.7513  0.2367  0.1848
  158MOL   H15238146   2.218   6.780   2.862 -0.0633  0.9330 -0.9951
  158MOL   H15338147   2.050   6.747   2.882  0.9936 -1.5717  0.6432
  158MOL   H15438148   1.951   7.116   2.945  0.1350 -0.7221 -1.7189
  158MOL   H15538149   2.021   7.027   3.074  0.8572  1.0360  0.6202
  158MOL   H15638150   1.894   6.955   2.985  0.4447 -0.5195 -1.0852
  158MOL   H15738151   2.378   7.074   2.780  1.9974 -2.5241  1.0208
  158MOL   C15838152   2.027   6.945   2.732 -0.1969 -0.2970 -0.4747
  158MOL   C15938153   1.927   7.051   2.657 -0.1369 -0.2259  0.5152
  158MOL   C16038154   1.991   7.192   2.657 -0.0651  0.0192  0.2354
  158MOL   C16138155   1.912   7.002   2.509 -0.3353  0.0622 -0.2048
  158MOL   O16238156   1.963   7.065   2.414 -0.2079  0.8554 -0.1709
  158MOL   O16338157   1.835   6.890   2.501  0.3020  0.3827  0.0291
  158MOL   H16438158   2.103   6.917   2.659 -1.5589 -0.9694 -1.6606
  158MOL   H16538159   1.958   6.861   2.739 -1.5650  0.9526  1.5116
  158MOL   H16638160   2.083   7.194   2.598 -0.5835 -1.9697 -0.6670
  158MOL   H16738161   2.004   7.211   2.764  1.4248 -0.6360  0.1873
  158MOL   H16838162   1.921   7.262   2.613 -1.6887 -1.3961  0.5048
  158MOL   H16938163   1.822   6.882   2.408 -2.3082  0.4256  0.3502
  158MOL   C17038164   1.784   7.056   2.727 -0.0918  0.7175  0.1039
  158MOL   C17138165   1.661   7.154   2.681  0.1994 -0.1995 -0.0772
  158MOL   C17238166   1.651   7.176   2.526 -0.0978 -0.6547  0.1590
  158MOL   C17338167   1.543   7.068   2.731  0.2550 -0.7516  0.2166
  158MOL   O17438168   1.517   7.057   2.854 -0.1291 -0.6598 -0.4018
  158MOL   O17538169   1.482   7.002   2.631 -0.2239 -0.3182  0.1764
  158MOL   H17638170   1.751   6.952   2.717 -0.1510  0.7662 -0.2418
  158MOL   H17738171   1.804   7.058   2.834  0.2740 -0.3413  0.0564
  158MOL   H17838172   1.747   7.202   2.481 -0.0541  0.1008  0.6664
  158MOL   H17938173   1.577   7.247   2.489 -1.6988 -2.1622  0.4090
  158MOL   H18038174   1.639   7.082   2.473 -0.1941 -0.0227 -0.9492
  158MOL   H18138175   1.420   6.944   2.672  0.0575 -0.6012  0.2040
  158MOL   C18238176   1.671   7.281   2.763  0.3529 -0.2306 -0.3308
  158MOL   C18338177   1.596   7.420   2.719  0.1568  0.5772 -0.1038
  158MOL   C18438178   1.672   7.479   2.599  0.7538 -0.1769 -0.0892
  158MOL   C18538179   1.451   7.395   2.676 -0.0330 -0.0744 -0.3561
  158MOL   O18638180   1.410   7.414   2.564  0.4134  0.1438  0.7368
  158MOL   O18738181   1.370   7.338   2.765  0.4180  0.1638 -0.1786
  158MOL   H18838182   1.651   7.264   2.868  0.5794  2.0451  0.1165
  158MOL   H18938183   1.776   7.310   2.756  0.1573  0.4258 -0.5702
  158MOL   H19038184   1.773   7.492   2.638  1.0607  1.8091 -1.4537
  158MOL   H19138185   1.635   7.576   2.568 -3.2741 -1.2454  1.1772
  158MOL   H19238186   1.675   7.418   2.508 -1.7652  0.2571 -0.4953
  158MOL   H19338187   1.303   7.308   2.705  0.8547 -3.4000  0.9639
  158MOL   C19438188   1.607   7.517   2.842  0.5036 -0.6694  0.0735
  158MOL   C19538189   1.606   7.676   2.840 -0.2441  0.4282  0.0804
  158MOL   C19638190   1.758   7.713   2.820 -0.4040 -0.7385  0.0455
  158MOL   C19738191   1.519   7.740   2.726  0.1119 -0.0399  0.7213
  158MOL   O19838192   1.407   7.698   2.694  0.1346 -0.1119  0.4890
  158MOL   O19938193   1.579   0.079   2.665 -0.7797  0.1819 -0.3232
  158MOL   H20038194   1.527   7.484   2.908  1.0827 -1.6261  0.3065
  158MOL   H20138195   1.696   7.485   2.896 -1.1682 -1.5715  2.3644
  158MOL   H20238196   1.768   0.051   2.848  0.1533 -0.6335 -0.5382
  158MOL   H20338197   1.790   7.689   2.719 -0.2131 -3.6893  0.7601
  158MOL   H20438198   1.829   7.658   2.882 -0.4308 -1.2127 -0.3409
  158MOL   H20538199   1.528   0.111   2.592 -1.3261 -0.1734 -0.0976
  158MOL   C20638200   1.559   7.716   2.992 -0.9086  0.0737  0.5083
  158MOL   C20738201   1.421   7.754   3.045 -0.5625 -0.2673 -0.5966
  158MOL   C20838202   1.352   0.109   2.972  0.3594 -0.3820  0.5824
  158MOL   C20938203   1.326   7.630   3.052 -0.1259 -0.6754 -0.2613
  158MOL   O21038204   1.288   7.574   3.153  0.1819  0.4162  1.4792
  158MOL   O21138205   1.287   7.586   2.924 -0.3057 -0.1806  0.5331
  158MOL   H21238206   1.596   7.637   3.058 -1.5944 -0.8267 -0.1823
  158MOL   H21338207   1.629   0.030   3.010  0.7536 -1.5883  1.7856
  158MOL   H21438208   1.389   0.141   2.874  1.4678 -3.5138 -0.0812
  158MOL   H21538209   1.355   0.200   3.031 -0.1705 -0.4418  0.7018
  158MOL   H21638210   1.247   0.084   2.964  0.9843 -2.8074 -0.6983
  158MOL   H21738211   1.237   7.508   2.944 -1.5574  0.1287 -1.2820
  158MOL   C21838212   1.446   0.035   3.190 -0.4028 -0.8812 -0.4710
  158MOL   C21938213   1.553   0.138   3.241 -0.5236 -0.5010 -0.0920
  158MOL   C22038214   1.498   0.189   3.377  0.2497  0.5473  0.3973
  158MOL   C22138215   1.686   0.059   3.277 -0.6094  0.1621 -0.1585
  158MOL   O22238216   1.794   0.070   3.218  0.1011 -0.4450 -0.0563
  158MOL   O22338217   1.670   7.730   3.373 -0.0468 -0.2716  0.1779
  158MOL   H22438218   1.351   0.077   3.222 -0.3877 -2.0130  1.1128
  158MOL   H22538219   1.456   7.718   3.259 -0.1276  0.1194  0.7251
  158MOL   H22638220   1.436   0.277   3.357  0.8806  0.5687 -1.6089
  158MOL   H22738221   1.586   0.221   3.433  0.5953 -1.3942  0.9734
  158MOL   H22838222   1.444   0.111   3.430 -0.4398 -0.3154 -1.4987
  158MOL   H22938223   1.754   7.697   3.403  0.8188  2.3409  0.7660
  158MOL   C23038224   1.600   0.263   3.156 -0.1968  0.2218 -0.1877
  158MOL   C23138225   1.688   0.379   3.220  0.0228  0.0125 -0.2686
  158MOL   C23238226   1.797   0.423   3.127  0.1271 -0.8302  0.4333
  158MOL   C23338227   1.616   0.491   3.288  0.0661 -0.7672  0.1862
  158MOL   O23438228   1.637   0.527   3.403  0.7813 -0.1239  0.1940
  158MOL   O23538229   1.532   0.548   3.201 -0.5618  0.0627  0.4900
  158MOL   H23638230   1.644   0.224   3.064 -0.4053 -2.1040  0.6624
  158MOL   H23738231   1.516   0.315   3.110  0.6390  0.1151 -1.8673
  158MOL   H23838232   1.863   0.485   3.188 -1.3784  1.6611 -0.3917
  158MOL   H23938233   1.752   0.489   3.053  0.1511 -0.6172  0.6054
  158MOL   H24038234   1.851   0.344   3.074  0.1103  0.3045 -1.3119
  158MOL   H24138235   1.496   0.626   3.241 -1.1162  0.2791 -0.4024
  158MOL   H24238236   1.745   0.324   3.295 -1.3090  0.1387  0.8493
  159MOL     C138237   2.204   3.920   5.648 -0.2070  0.1664 -0.4454
  159MOL     C238238   2.134   3.864   5.526 -0.2738  0.5750 -0.3702
  159MOL     C338239   2.045   3.744   5.561 -0.4510 -0.2971 -0.3442
  159MOL     C438240   2.029   3.974   5.486  0.2209  0.3094 -0.3780
  159MOL     O538241   1.971   4.050   5.566  0.2100  0.0479 -0.2582
  159MOL     O638242   1.997   3.968   5.349  1.1823  0.3419  0.7096
  159MOL     H738243   2.285   3.854   5.678  1.4984  1.4958 -2.0217
  159MOL     H838244   2.129   3.924   5.727 -0.2903  0.1435 -0.5232
  159MOL     H938245   1.998   3.690   5.479 -0.3951  0.9978 -1.2538
  159MOL    H1038246   1.968   3.776   5.631  0.3929 -0.0816  0.4969
  159MOL    H1138247   2.107   3.679   5.624 -0.2510  0.6865  0.4967
  159MOL    H1238248   1.938   4.032   5.313 -1.0189 -1.4117  1.0955
  159MOL    H1338249   2.253   4.017   5.636  0.0710 -0.0268 -0.8875
  159MOL    C1438250   2.228   3.824   5.403  0.0247 -0.0923 -0.6798
  159MOL    C1538251   2.345   3.921   5.355  0.5333 -0.4089 -0.3983
  159MOL    C1638252   2.302   4.074   5.349  0.2375  0.3120 -0.7650
  159MOL    C1738253   2.459   3.917   5.454  0.0303 -0.1750  0.4909
  159MOL    O1838254   2.478   3.836   5.541 -0.0062 -0.0846 -0.3565
  159MOL    O1938255   2.550   4.000   5.409  0.1344  0.0862  0.1204
  159MOL    H2038256   2.283   3.735   5.431  2.4492  1.5604  0.0113
  159MOL    H2138257   2.162   3.804   5.318  0.3545  0.0243 -0.9677
  159MOL    H2238258   2.267   4.109   5.446  2.6474  1.3019 -0.2222
  159MOL    H2338259   2.224   4.093   5.275  0.5096 -0.1648 -1.1812
  159MOL    H2438260   2.386   4.138   5.321  0.3944  0.5269  0.1729
  159MOL    H2538261   2.632   3.990   5.454  0.2497  0.8597  0.0957
  159MOL    C2638262   2.379   3.886   5.205 -0.2124 -0.3495 -0.0194
  159MOL    C2738263   2.445   3.751   5.153 -0.6082  0.1407  0.1682
  159MOL    C2838264   2.589   3.728   5.212  0.0106 -0.0457  0.4777
  159MOL    C2938265   2.354   3.630   5.187  0.5736  0.9600 -0.4133
  159MOL    O3038266   2.389   3.529   5.248  0.6746  0.5705  0.4312
  159MOL    O3138267   2.224   3.647   5.148 -0.9228  0.0452 -0.4089
  159MOL    H3238268   2.290   3.907   5.145 -0.0823 -2.5508 -1.0101
  159MOL    H3338269   2.451   3.960   5.169 -1.5711  1.1263  0.2618
  159MOL    H3438270   2.675   3.778   5.168  0.1615 -1.7936 -1.2709
  159MOL    H3538271   2.627   3.628   5.192  1.6052  0.7316 -0.4466
  159MOL    H3638272   2.602   3.731   5.320 -1.1696  1.6539  0.5990
  159MOL    H3738273   2.175   3.570   5.172 -0.6595 -0.3627 -1.1612
  159MOL    C3838274   2.461   3.780   4.994 -0.3336 -0.1948 -0.7532
  159MOL    C3938275   2.511   3.671   4.891  0.1409  1.0195  0.1722
  159MOL    C4038276   2.646   3.612   4.918  0.2729  0.0874  0.2850
  159MOL    C4138277   2.390   3.569   4.875 -0.9036  0.1949  0.0447
  159MOL    O4238278   2.273   3.601   4.865  0.6846  0.2519  0.3124
  159MOL    O4338279   2.432   3.438   4.890  0.4834 -0.4611 -0.4826
  159MOL    H4438280   2.362   3.810   4.959 -1.0452 -1.5725  0.0211
  159MOL    H4538281   2.532   3.860   4.975  0.6979 -0.9042  0.0644
  159MOL    H4638282   2.682   3.564   4.827  1.9367  0.7938  0.5681
  159MOL    H4738283   2.641   3.539   4.999 -0.8700  0.9791  1.0369
  159MOL    H4838284   2.718   3.682   4.958 -0.0330  1.4133 -1.4339
  159MOL    H4938285   2.525   3.443   4.901  0.5422  3.3433 -1.7781
  159MOL    C5038286   2.512   3.766   4.759 -0.3686 -0.0197 -0.0022
  159MOL    C5138287   2.523   3.711   4.614 -0.2766 -0.4312  0.2767
  159MOL    C5238288   2.533   3.846   4.541  0.1333  0.2143  0.1105
  159MOL    C5338289   2.656   3.630   4.598 -0.1949  0.3923 -0.2844
  159MOL    O5438290   2.670   3.509   4.606  0.6436  0.1373  0.2066
  159MOL    O5538291   2.762   3.709   4.562 -0.1805  0.3920 -0.2837
  159MOL    H5638292   2.444   3.852   4.761 -0.4125 -0.0783  1.9354
  159MOL    H5738293   2.605   3.819   4.782 -0.7306 -0.4356  2.6844
  159MOL    H5838294   2.600   3.920   4.583 -1.3222  0.5672  1.8627
  159MOL    H5938295   2.444   3.908   4.546 -0.4351 -0.4079 -1.8038
  159MOL    H6038296   2.555   3.826   4.436 -0.2721 -2.7879  0.5358
  159MOL    H6138297   2.839   3.657   4.547 -0.1450  0.9220 -2.0806
  159MOL    C6238298   2.405   3.628   4.571 -0.2338  0.0689  0.6008
  159MOL    C6338299   2.358   3.609   4.422 -0.2329 -0.4618  0.1874
  159MOL    C6438300   2.289   3.740   4.370 -0.5958 -0.0838 -0.2587
  159MOL    C6538301   2.474   3.579   4.324  0.3012  0.5286  0.1794
  159MOL    O6638302   2.514   3.669   4.250  0.2952  0.2440  0.3250
  159MOL    O6738303   2.515   3.452   4.338 -0.1204 -0.0814  0.2030
  159MOL    H6838304   2.424   3.529   4.613  3.6478 -0.6757 -2.5927
  159MOL    H6938305   2.317   3.665   4.624  0.5935  0.1340  1.9684
  159MOL    H7038306   2.251   3.730   4.268  0.7206  1.5383 -0.9374
  159MOL    H7138307   2.358   3.824   4.364  0.2303 -0.7704 -0.3109
  159MOL    H7238308   2.201   3.776   4.423 -1.6494 -1.8903 -0.7242
  159MOL    H7338309   2.583   3.432   4.276  0.1430 -0.7053  0.6940
  159MOL    C7438310   2.262   3.483   4.416 -0.2308  0.0866  0.3650
  159MOL    C7538311   2.105   3.483   4.448 -0.5734 -0.4780  0.6137
  159MOL    C7638312   2.072   3.567   4.579 -0.0380 -0.9368  0.1606
  159MOL    C7738313   2.025   3.544   4.330  0.3590  0.5190 -0.4060
  159MOL    O7838314   1.918   3.601   4.344 -0.0406 -0.1080  0.0647
  159MOL    O7938315   2.097   3.555   4.214  0.0998 -0.1463 -0.0717
  159MOL    H8038316   2.272   3.443   4.315  0.4686 -0.5676  0.6842
  159MOL    H8138317   2.304   3.402   4.477 -1.2611  0.4905  1.6405
  159MOL    H8238318   2.135   3.528   4.660 -1.2604 -0.8278  1.1886
  159MOL    H8338319   1.965   3.553   4.596 -0.9630  2.4612 -2.3787
  159MOL    H8438320   2.096   3.673   4.571 -0.5859 -0.8189  0.0264
  159MOL    H8538321   2.054   3.591   4.138  1.6775  0.5566 -0.6473
  159MOL    C8638322   2.045   3.340   4.472 -0.5858 -0.1675 -0.8624
  159MOL    C8738323   2.061   3.207   4.381  0.7759  0.0632  0.2569
  159MOL    C8838324   2.019   3.246   4.238  0.8718 -0.3873  0.2315
  159MOL    C8938325   2.208   3.169   4.380 -0.1624  0.0809  0.3771
  159MOL    O9038326   2.279   3.143   4.281 -0.0528  0.4573  0.1425
  159MOL    O9138327   2.262   3.155   4.503 -0.2221 -0.3734  0.1771
  159MOL    H9238328   2.078   3.322   4.574 -1.8784  0.2638 -0.3507
  159MOL    H9338329   1.937   3.359   4.473 -0.3920  1.0553 -1.4671
  159MOL    H9438330   1.940   3.321   4.231  3.6353  2.6137 -0.1806
  159MOL    H9538331   1.984   3.165   4.174 -1.2229  1.1797 -0.6735
  159MOL    H9638332   2.093   3.300   4.179 -0.4573  0.3990 -0.7493
  159MOL    H9738333   2.349   3.119   4.498 -0.5202 -0.8080 -2.4856
  159MOL    C9838334   1.964   3.097   4.452 -1.4689  0.0673 -0.1606
  159MOL    C9938335   1.957   2.947   4.416  0.4295  0.2978 -0.2814
  159MOL   C10038336   1.960   2.926   4.270  0.3308 -0.8836  0.2700
  159MOL   C10138337   2.081   2.878   4.471  0.1888 -0.0203 -0.1890
  159MOL   O10238338   2.166   2.811   4.399 -0.0407  0.3283  0.4198
  159MOL   O10338339   2.099   2.896   4.606 -0.3783  0.4386  0.3917
  159MOL   H10438340   1.988   3.113   4.558 -0.3445 -1.6387 -0.1407
  159MOL   H10538341   1.862   3.127   4.431 -1.1820 -0.6696 -2.8065
  159MOL   H10638342   1.959   2.825   4.228 -2.0713  0.3208 -2.7722
  159MOL   H10738343   2.053   2.972   4.236  0.0787  0.9548  1.9834
  159MOL   H10838344   1.872   2.977   4.230  1.7190  0.5786 -1.0234
  159MOL   H10938345   2.176   2.850   4.634 -0.3323  0.4903  0.3495
  159MOL   C11038346   1.817   2.887   4.470 -0.1776  0.1328  1.1039
  159MOL   C11138347   1.751   2.749   4.426 -0.1539 -0.0017 -0.1619
  159MOL   C11238348   1.685   2.757   4.282 -0.6262 -0.9437  0.1153
  159MOL   C11338349   1.849   2.624   4.423  0.1069  0.2951  0.4474
  159MOL   O11438350   1.936   2.601   4.506  0.1206 -0.1080 -0.2166
  159MOL   O11538351   1.829   2.545   4.316 -0.1710  0.1491  0.7584
  159MOL   H11638352   1.834   2.888   4.578  1.2597  0.4180  0.8863
  159MOL   H11738353   1.739   2.955   4.436  0.4870 -0.8756 -2.7080
  159MOL   H11838354   1.764   2.764   4.207 -0.1928  0.9997  0.7308
  159MOL   H11938355   1.621   2.846   4.280 -0.2050 -0.6539 -0.5117
  159MOL   H12038356   1.622   2.672   4.253  1.4864 -2.1699 -0.9892
  159MOL   H12138357   1.908   2.493   4.308 -0.1475  0.6774 -3.8326
  159MOL   C12238358   1.625   2.723   4.511  0.3671 -0.0499 -0.1066
  159MOL   C12338359   1.618   2.717   4.668  0.2004 -0.2550 -0.2216
  159MOL   C12438360   1.723   2.622   4.723  0.8252  0.1163 -1.0342
  159MOL   C12538361   1.633   2.855   4.737 -0.6660  0.2020 -0.3403
  159MOL   O12638362   1.627   2.959   4.670 -0.7417 -0.2232  0.0292
  159MOL   O12738363   1.653   2.851   4.872 -0.1994  0.8536 -0.7558
  159MOL   H12838364   1.549   2.795   4.481 -0.6121 -0.2544  1.8105
  159MOL   H12938365   1.582   2.632   4.471 -1.3714  0.4162  0.6606
  159MOL   H13038366   1.707   2.616   4.831  0.9529  3.4899 -0.7641
  159MOL   H13138367   1.825   2.660   4.720  1.2045 -0.8088 -0.0217
  159MOL   H13238368   1.725   2.520   4.686  0.2272 -1.3805  2.8015
  159MOL   H13338369   1.661   2.941   4.900  0.6567  1.2045 -2.0523
  159MOL   C13438370   1.470   2.661   4.685 -0.0093 -0.0313  0.1996
  159MOL   C13538371   1.381   2.646   4.817 -0.4047  0.1280 -0.2718
  159MOL   C13638372   1.264   2.565   4.774  0.8910 -0.1163 -0.3080
  159MOL   C13738373   1.455   2.550   4.915 -0.0039 -0.1885 -0.3194
  159MOL   O13838374   1.486   2.587   5.028 -0.5392 -0.5086 -0.0218
  159MOL   O13938375   1.491   2.431   4.864 -0.0286  0.0631 -0.2870
  159MOL   H14038376   1.411   2.705   4.604  0.2592 -0.1974 -0.0913
  159MOL   H14138377   1.485   2.559   4.648 -2.4608  0.5623 -2.6091
  159MOL   H14238378   1.213   2.514   4.856  0.7908  0.9110  0.2795
  159MOL   H14338379   1.293   2.485   4.705 -1.5872 -0.3492 -1.1210
  159MOL   H14438380   1.194   2.624   4.716  1.5718  1.2400  0.2161
  159MOL   H14538381   1.509   2.373   4.937 -0.4570  0.1519 -0.1033
  159MOL   C14638382   1.337   2.765   4.904  0.0720  0.5702  0.5556
  159MOL   C14738383   1.235   2.869   4.861  0.3180 -0.0689  0.1577
  159MOL   C14838384   1.262   2.905   4.707 -0.3389 -0.2642 -0.2742
  159MOL   C14938385   1.093   2.815   4.864  0.0334  0.4888  0.4756
  159MOL   O15038386   1.057   2.712   4.921 -0.2271 -0.3296  0.5986
  159MOL   O15138387   1.000   2.891   4.803 -0.0524  0.5004  0.3217
  159MOL   H15238388   1.297   2.732   5.000 -0.8651 -1.0715 -0.3780
  159MOL   H15338389   1.426   2.818   4.937  0.6447 -0.2334  0.2952
  159MOL   H15438390   1.195   2.984   4.673  1.4993  2.4634  2.2055
  159MOL   H15538391   1.245   2.818   4.643  1.4490  0.7466 -2.1907
  159MOL   H15638392   1.366   2.935   4.696 -0.2637 -0.6991 -0.8227
  159MOL   H15738393   0.916   2.851   4.820 -0.1603 -0.3999 -2.0094
  159MOL   C15838394   1.250   3.007   4.939 -0.0611 -0.1914 -0.0340
  159MOL   C15938395   1.241   3.018   5.099 -0.4694 -0.0395  0.2009
  159MOL   C16038396   1.106   2.965   5.148 -1.0453 -0.8727  0.7750
  159MOL   C16138397   1.362   2.950   5.170  0.2536 -0.8679  0.2326
  159MOL   O16238398   1.342   2.870   5.256  0.5056  0.1842 -0.1890
  159MOL   O16338399   1.486   2.967   5.120 -0.1999 -0.0419 -0.4716
  159MOL   H16438400   1.347   3.049   4.910 -0.2358 -0.5812 -1.2093
  159MOL   H16538401   1.173   3.070   4.897  0.1779 -0.9019 -1.5722
  159MOL   H16638402   1.097   2.857   5.139  2.4418 -1.0412 -1.8399
  159MOL   H16738403   1.022   3.008   5.094  0.7874  1.9883  0.0820
  159MOL   H16838404   1.087   2.981   5.254  1.1264 -1.5678  1.3097
  159MOL   H16938405   1.526   2.899   5.173 -1.7438  0.9986  2.1298
  159MOL   C17038406   1.242   3.173   5.144  0.1250 -0.1035  0.6526
  159MOL   C17138407   1.356   3.283   5.137 -0.8231 -0.1215  0.9225
  159MOL   C17238408   1.426   3.287   5.004 -0.7330 -0.3132  0.0840
  159MOL   C17338409   1.290   3.422   5.146 -0.3099 -0.6384 -0.3764
  159MOL   O17438410   1.296   3.511   5.057  0.1175  0.3715 -0.1813
  159MOL   O17538411   1.214   3.442   5.258 -0.8294 -0.4034 -0.0014
  159MOL   H17638412   1.159   3.221   5.091  0.8070  1.1176  0.6862
  159MOL   H17738413   1.217   3.177   5.250 -0.1027  1.2852  0.5564
  159MOL   H17838414   1.346   3.288   4.930 -0.8689  0.4341  0.2386
  159MOL   H17938415   1.487   3.197   4.996 -0.6843 -0.1410 -1.7272
  159MOL   H18038416   1.498   3.368   4.994  1.4804 -2.2824 -0.2486
  159MOL   H18138417   1.185   3.532   5.259  0.5594  0.0780 -0.7341
  159MOL   C18238418   1.458   3.269   5.259 -0.9712  0.0858 -0.5505
  159MOL   C18338419   1.599   3.342   5.272 -0.4974 -1.0850 -0.5631
  159MOL   C18438420   1.575   3.494   5.246  0.0053  0.0914 -0.1485
  159MOL   C18538421   1.636   3.331   5.431 -0.4882  0.8092  0.2235
  159MOL   O18638422   1.694   3.419   5.492  0.3299 -0.2459 -0.0139
  159MOL   O18738423   1.607   3.204   5.479 -0.0437 -0.0253  0.1165
  159MOL   H18838424   1.395   3.301   5.343  0.3136 -1.4383  1.0324
  159MOL   H18938425   1.486   3.165   5.274 -1.7438  0.0999  1.1238
  159MOL   H19038426   1.552   3.519   5.143 -1.4389 -0.1531  0.1132
  159MOL   H19138427   1.663   3.554   5.272  1.3224 -1.7855 -0.2065
  159MOL   H19238428   1.499   3.537   5.311 -0.4233  3.8734 -3.0160
  159MOL   H19338429   1.639   3.186   5.566  0.0396 -0.9609 -0.1022
  159MOL   C19438430   1.708   3.269   5.182  0.7112  0.0975 -0.6051
  159MOL   C19538431   1.843   3.340   5.143  0.2017  0.4266  0.4925
  159MOL   C19638432   1.818   3.457   5.046  0.1758 -0.4860  0.7098
  159MOL   C19738433   1.924   3.401   5.266 -0.0633 -0.1242 -0.6415
  159MOL   O19838434   1.956   3.521   5.270  0.0168 -0.2546 -0.2902
  159MOL   O19938435   1.952   3.311   5.365 -0.5408 -0.1735 -0.5655
  159MOL   H20038436   1.740   3.171   5.216 -0.7087  0.1967  1.1090
  159MOL   H20138437   1.662   3.241   5.087 -0.7115  1.4879 -0.3461
  159MOL   H20238438   1.759   3.431   4.958  0.3517 -2.3728  1.1212
  159MOL   H20338439   1.899   3.517   5.006 -1.6548  1.7385  0.2220
  159MOL   H20438440   1.747   3.534   5.076 -0.2567 -0.4355 -0.4343
  159MOL   H20538441   1.992   3.364   5.433  0.6860  1.0338 -2.1999
  159MOL   C20638442   1.942   3.238   5.082  0.2131 -0.2392  0.2507
  159MOL   C20738443   1.949   3.192   4.932  0.7575  0.1454 -0.1623
  159MOL   C20838444   1.805   3.150   4.888 -0.2465  0.3945  0.0621
  159MOL   C20938445   1.982   3.314   4.840  0.0890 -0.1368 -0.2540
  159MOL   O21038446   1.903   3.366   4.755 -0.2214  0.1251  0.5918
  159MOL   O21138447   2.098   3.373   4.874 -0.1074 -0.0667 -0.2202
  159MOL   H21238448   2.040   3.278   5.110  0.1849 -1.7743  2.6693
  159MOL   H21338449   1.939   3.148   5.142 -0.3275  0.1388  0.7976
  159MOL   H21438450   1.733   3.232   4.885 -0.2177  0.3384 -2.4440
  159MOL   H21538451   1.766   3.079   4.961 -1.9654 -3.2295 -4.2166
  159MOL   H21638452   1.795   3.119   4.785 -1.1099 -0.5653  0.4331
  159MOL   H21738453   2.130   3.445   4.822  0.1544 -0.1138 -0.1225
  159MOL   C21838454   2.028   3.067   4.907 -0.1119  0.0515 -0.1697
  159MOL   C21938455   2.181   3.037   4.940 -0.5843 -0.5316 -0.0317
  159MOL   C22038456   2.277   3.100   4.826 -0.0118  0.2530  0.7352
  159MOL   C22138457   2.234   3.103   5.077  0.3996  0.2896 -0.4035
  159MOL   O22238458   2.226   3.050   5.186 -0.0881 -0.0734 -0.5115
  159MOL   O22338459   2.286   3.236   5.055 -0.5340  0.0090  0.0386
  159MOL   H22438460   1.975   2.996   4.971 -2.3737  2.0188  0.2202
  159MOL   H22538461   2.013   3.035   4.803 -1.7380 -2.1269  0.6760
  159MOL   H22638462   2.236   3.068   4.730 -1.3357  2.9513  0.3534
  159MOL   H22738463   2.371   3.046   4.832 -1.1736 -1.6872  1.9043
  159MOL   H22838464   2.296   3.207   4.820 -0.0975  0.1805 -1.1306
  159MOL   H22938465   2.265   3.270   4.970 -3.3143 -2.1562 -0.2019
  159MOL   C23038466   2.201   2.880   4.943  0.9404 -0.1887  0.0049
  159MOL   C23138467   2.339   2.806   4.945 -0.0681  0.0574 -0.7672
  159MOL   C23238468   2.351   2.728   5.079  0.3673  0.7226  0.1962
  159MOL   C23338469   2.382   2.724   4.822 -0.2714 -0.2018 -0.3319
  159MOL   O23438470   2.449   2.622   4.829  0.4046 -0.5258 -0.6686
  159MOL   O23538471   2.335   2.775   4.707 -0.4023  0.3124  0.2335
  159MOL   H23638472   2.141   2.834   5.021 -1.8459 -1.6811 -2.9007
  159MOL   H23738473   2.154   2.848   4.850  0.3691  2.1303 -0.5133
  159MOL   H23838474   2.299   2.633   5.077  0.1729  0.8372 -0.4834
  159MOL   H23938475   2.313   2.795   5.156 -0.2258  0.5365  0.0623
  159MOL   H24038476   2.451   2.703   5.114  0.2992 -2.7975 -1.9148
  159MOL   H24138477   2.366   2.732   4.629  1.5913 -0.8827  1.6479
  159MOL   H24238478   2.416   2.883   4.956 -1.1917  0.9448  1.1743
  160MOL     C138479   7.524   7.105   7.338  0.3543  1.1200  0.2789
  160MOL     C238480   7.490   7.081   7.189 -0.1150 -0.5302 -0.6950
  160MOL     C338481   7.555   7.193   7.100  0.2149 -0.0925  0.4778
  160MOL     C438482   7.567   6.955   7.139  1.0562  0.2182 -0.1547
  160MOL     O538483   7.527   6.882   7.054 -0.4306  0.4712  0.0439
  160MOL     O638484   7.690   6.950   7.193 -0.2373 -0.4461  0.0270
  160MOL     H738485   7.623   7.149   7.351 -0.0899  2.2454 -0.0550
  160MOL     H838486   7.533   7.004   7.378  2.0500  2.1346  2.5817
  160MOL     H938487   7.643   7.234   7.149 -0.6878  0.7126  1.4761
  160MOL    H1038488   7.497   7.284   7.083  2.1214  1.2252  0.8808
  160MOL    H1138489   7.574   7.152   7.001 -0.8167  2.5279 -0.8635
  160MOL    H1238490   7.743   6.875   7.173  0.2578 -0.2629  0.6352
  160MOL    H1338491   7.442   7.158   7.388 -2.4587 -1.1935 -1.7385
  160MOL    C1438492   7.328   7.082   7.156  0.1149  0.4441 -0.0717
  160MOL    C1538493   7.230   6.986   7.240  0.3561 -0.3872 -0.3174
  160MOL    C1638494   7.283   6.845   7.262  0.1141 -0.3256  0.3178
  160MOL    C1738495   7.201   7.056   7.377  0.2072  0.4310 -0.1346
  160MOL    O1838496   7.213   7.003   7.487 -0.4115  0.1603  0.7889
  160MOL    O1938497   7.168   7.185   7.366 -0.1053 -0.2381 -0.0660
  160MOL    H2038498   7.284   7.182   7.150 -1.0153 -0.0819 -0.6286
  160MOL    H2138499   7.316   7.058   7.051  0.5247  1.1581 -0.2907
  160MOL    H2238500   7.293   6.778   7.177  0.1935  1.8031 -1.4087
  160MOL    H2338501   7.222   6.790   7.333  1.6981 -0.3257  1.6779
  160MOL    H2438502   7.381   6.842   7.308  0.1454  1.7374  0.4389
  160MOL    H2538503   7.162   7.217   7.455 -0.7343  1.3863 -0.6703
  160MOL    C2638504   7.094   6.985   7.157  0.0211  0.1215  0.0287
  160MOL    C2738505   6.983   6.870   7.172 -0.0434 -0.4068  0.6910
  160MOL    C2838506   7.034   6.743   7.101 -0.1721 -0.1939  0.8002
  160MOL    C2938507   6.950   6.846   7.318  0.3301 -0.3568  0.1032
  160MOL    O3038508   6.905   6.933   7.389  0.1499 -0.3323  0.2886
  160MOL    O3138509   6.967   6.714   7.359 -0.1953 -0.5531 -0.3477
  160MOL    H3238510   7.045   7.082   7.153 -4.2260 -1.9664 -0.8413
  160MOL    H3338511   7.127   6.978   7.053  1.4581 -0.3331  0.4980
  160MOL    H3438512   6.950   6.686   7.062  0.6135 -0.0440 -1.2046
  160MOL    H3538513   7.093   6.679   7.166  1.7684 -1.1721 -1.7970
  160MOL    H3638514   7.092   6.766   7.011  0.2277 -1.4170  0.7393
  160MOL    H3738515   6.935   6.706   7.448  3.0154 -0.8636  0.8212
  160MOL    C3838516   6.853   6.917   7.099  0.4663 -0.0720 -0.5939
  160MOL    C3938517   6.704   6.855   7.116  0.0697 -0.1229 -0.4013
  160MOL    C4038518   6.702   6.697   7.118 -0.3313  0.1186 -0.5172
  160MOL    C4138519   6.634   6.906   7.248  0.2978  0.4543  0.0957
  160MOL    O4238520   6.576   6.844   7.338 -0.2826 -0.1366  0.0647
  160MOL    O4338521   6.647   7.043   7.251  0.2012  0.1546 -0.4396
  160MOL    H4438522   6.841   7.024   7.117  2.6646  0.3778 -1.6441
  160MOL    H4538523   6.873   6.907   6.992  1.5666  1.5427 -0.5567
  160MOL    H4638524   6.757   6.667   7.208 -0.3546 -0.1136 -0.5804
  160MOL    H4738525   6.737   6.645   7.029 -0.1742 -0.8170  0.0836
  160MOL    H4838526   6.599   6.660   7.115 -0.5302  0.8205 -3.5480
  160MOL    H4938527   6.618   7.084   7.331 -0.0489 -2.1769  0.7188
  160MOL    C5038528   6.612   6.913   7.000 -0.3755 -0.3113 -0.2425
  160MOL    C5138529   6.598   6.856   6.861 -0.0493 -0.2183  0.3406
  160MOL    C5238530   6.499   6.736   6.853 -0.3681  0.1596 -0.0898
  160MOL    C5338531   6.538   6.982   6.789 -0.1663  0.1707  0.0841
  160MOL    O5438532   6.429   6.980   6.726  0.7710  1.1697 -0.4578
  160MOL    O5538533   6.606   7.104   6.799  0.3649  0.2290  0.0016
  160MOL    H5638534   6.511   6.936   7.034 -0.0671  0.3777  0.2256
  160MOL    H5738535   6.656   7.012   6.992 -0.1010 -0.5489 -1.6962
  160MOL    H5838536   6.557   6.656   6.899  0.4738  0.2597 -0.9523
  160MOL    H5938537   6.471   6.725   6.749 -1.0930 -0.3711  0.1616
  160MOL    H6038538   6.403   6.756   6.900 -1.1576 -1.7594 -0.8364
  160MOL    H6138539   6.548   7.170   6.764  1.7292  0.2236 -2.3907
  160MOL    C6238540   6.735   6.821   6.796  0.2136 -0.0968 -0.2589
  160MOL    C6338541   6.758   6.735   6.658  0.0323 -0.0035 -0.4050
  160MOL    C6438542   6.739   6.586   6.694  0.0799 -0.1195 -0.4622
  160MOL    C6538543   6.653   6.779   6.544 -0.4579 -1.1734 -0.1493
  160MOL    O6638544   6.565   6.709   6.506  0.3069  0.0608  0.2718
  160MOL    O6738545   6.667   6.907   6.510 -0.1732 -0.3601 -0.8142
  160MOL    H6838546   6.787   6.916   6.793  1.8279 -0.9366  0.4836
  160MOL    H6938547   6.778   6.759   6.874  1.6186 -0.9308 -1.6491
  160MOL    H7038548   6.637   6.571   6.731  1.0297 -1.1272  1.8508
  160MOL    H7138549   6.801   6.552   6.777 -1.0065 -2.4147 -0.5654
  160MOL    H7238550   6.757   6.523   6.607  1.5423 -0.8715  0.3593
  160MOL    H7338551   6.594   6.940   6.459 -0.4487 -0.6946 -0.6415
  160MOL    C7438552   6.902   6.756   6.611 -0.7191 -0.4002  0.6244
  160MOL    C7538553   6.959   6.719   6.458 -0.3800 -0.0633 -0.2418
  160MOL    C7638554   6.907   6.587   6.401 -0.5187  0.7425 -0.6874
  160MOL    C7738555   6.931   6.831   6.354  0.9289  0.0712 -0.6620
  160MOL    O7838556   6.868   6.819   6.253 -0.2443  0.4451 -0.4576
  160MOL    O7938557   6.991   6.944   6.387 -0.2286 -0.5222 -0.4996
  160MOL    H8038558   6.918   6.862   6.631  0.7777 -0.5546  0.3147
  160MOL    H8138559   6.971   6.719   6.687  0.3784  2.4684  1.0771
  160MOL    H8238560   6.798   6.573   6.399 -0.9603  3.5735  0.8206
  160MOL    H8338561   6.950   6.504   6.457  0.4144  2.2019  0.7979
  160MOL    H8438562   6.946   6.563   6.303  0.2413 -1.2409  0.0683
  160MOL    H8538563   6.980   7.008   6.318  1.9766 -1.3297 -1.6329
  160MOL    C8638564   7.120   6.715   6.472  0.2549 -0.0888 -0.2206
  160MOL    C8738565   7.222   6.607   6.531  0.5034  0.2238 -0.4246
  160MOL    C8838566   7.160   6.527   6.638  0.1539  0.0492  0.2427
  160MOL    C8938567   7.268   6.507   6.418  0.7232  0.2213  0.0734
  160MOL    O9038568   7.226   6.505   6.301  0.0529  0.5944 -0.0023
  160MOL    O9138569   7.366   6.420   6.453  0.3936  0.2396 -0.1201
  160MOL    H9238570   7.155   6.749   6.375  1.8565 -1.2703 -0.0766
  160MOL    H9338571   7.147   6.804   6.529  0.8147  1.2081 -2.4678
  160MOL    H9438572   7.071   6.465   6.621  1.7650 -2.0274 -0.8301
  160MOL    H9538573   7.133   6.587   6.725  1.5872  0.2472  0.5683
  160MOL    H9638574   7.228   6.450   6.674 -0.4874 -0.3851  0.5391
  160MOL    H9738575   7.381   6.364   6.378 -1.7710 -0.6987  0.1033
  160MOL    C9838576   7.342   6.681   6.601  0.1779  0.2273  0.6023
  160MOL    C9938577   7.432   6.790   6.534  0.4265 -0.2966  0.0683
  160MOL   C10038578   7.473   6.762   6.390  0.3856 -0.4336 -0.3024
  160MOL   C10138579   7.365   6.928   6.532  0.7956  0.5181 -0.4713
  160MOL   O10238580   7.361   7.006   6.438  0.3348 -0.1797 -0.2006
  160MOL   O10338581   7.305   6.961   6.647 -0.1940 -0.4552  0.3198
  160MOL   H10438582   7.296   6.714   6.694 -0.1659 -1.4365  1.0288
  160MOL   H10538583   7.407   6.601   6.637 -0.9206 -1.5191 -1.1859
  160MOL   H10638584   7.392   6.771   6.317 -1.2352 -1.2163  1.3438
  160MOL   H10738585   7.520   6.664   6.377 -0.2737 -0.9558  1.1151
  160MOL   H10838586   7.544   6.832   6.347 -1.4283  2.0430  0.5735
  160MOL   H10938587   7.259   7.043   6.643 -0.6173 -0.6690  0.7347
  160MOL   C11038588   7.556   6.823   6.622 -0.0382 -1.0691  0.1068
  160MOL   C11138589   7.690   6.736   6.643  0.0102 -0.0705  0.2206
  160MOL   C11238590   7.666   6.597   6.713  0.0210  0.3489  0.2079
  160MOL   C11338591   7.766   6.710   6.511  0.4793 -0.1606  0.3331
  160MOL   O11438592   0.000   6.598   6.461  0.6301  0.3363 -0.0284
  160MOL   O11538593   0.043   6.826   6.455  0.2474  0.0343 -0.0920
  160MOL   H11638594   7.594   6.913   6.572 -1.6918 -0.0488  0.6726
  160MOL   H11738595   7.521   6.858   6.719  0.8230  0.7119 -0.1928
  160MOL   H11838596   7.611   6.607   6.806  2.0730  4.2307  1.1344
  160MOL   H11938597   7.763   6.548   6.722  0.6323  1.3946 -0.5959
  160MOL   H12038598   7.598   6.541   6.649  1.3570 -2.3121  1.0399
  160MOL   H12138599   0.096   6.808   6.379 -1.4094 -0.0412 -1.2584
  160MOL   C12238600   0.011   6.825   6.735  0.3171 -0.2896  0.5409
  160MOL   C12338601   0.157   6.793   6.803 -0.7665 -0.0520  0.3202
  160MOL   C12438602   0.196   6.928   6.861  0.1032 -0.3627 -0.4681
  160MOL   C12538603   0.140   6.692   6.920 -0.5691  0.0911 -0.4103
  160MOL   O12638604   0.201   6.584   6.931 -0.7705 -0.0004  0.1825
  160MOL   O12738605   0.073   6.755   7.024  0.3205 -0.5915 -0.4862
  160MOL   H12838606   0.023   6.916   6.677 -0.6047 -2.9555 -4.1176
  160MOL   H12938607   7.710   6.862   6.812  1.5300  1.9682  0.5527
  160MOL   H13038608   0.261   6.920   6.948 -1.6952 -1.0909  0.8477
  160MOL   H13138609   0.107   6.981   6.895 -0.0429 -1.7100  1.2986
  160MOL   H13238610   0.246   7.002   6.798 -0.6361 -0.0362 -0.6807
  160MOL   H13338611   0.065   6.691   7.093  3.9732  0.1227  0.6951
  160MOL   C13438612   0.268   6.744   6.700 -0.1372  0.1383 -0.1428
  160MOL   C13538613   0.424   6.742   6.734  0.1963  0.0264  0.0367
  160MOL   C13638614   0.490   6.871   6.669  1.3663 -0.1118  0.2666
  160MOL   C13738615   0.469   6.754   6.888  0.5043 -0.8780  0.6344
  160MOL   O13838616   0.505   6.859   6.945 -0.4999  0.1180  0.0703
  160MOL   O13938617   0.463   6.639   6.957  0.2332 -0.2978  0.4653
  160MOL   H14038618   0.233   6.644   6.676  1.0393 -0.2809 -0.1450
  160MOL   H14138619   0.248   6.809   6.615  1.2106  0.4677 -0.2234
  160MOL   H14238620   0.598   6.861   6.666  1.6431  2.6077  0.1648
  160MOL   H14338621   0.464   6.962   6.724  0.3409 -0.4168  0.3092
  160MOL   H14438622   0.453   6.887   6.568  0.7155  0.3591  0.5778
  160MOL   H14538623   0.428   6.568   6.905 -1.6740  0.3115  0.8683
  160MOL   C14638624   0.491   6.607   6.671 -0.8911 -0.1339  0.4990
  160MOL   C14738625   0.512   6.580   6.515  0.0466 -0.2342 -0.2047
  160MOL   C14838626   0.369   6.578   6.449  0.4569 -0.5689 -0.9374
  160MOL   C14938627   0.604   6.691   6.454  0.0387  0.3641 -0.0003
  160MOL   O15038628   0.708   6.719   6.502 -0.7155 -0.0797 -0.0292
  160MOL   O15138629   0.547   6.750   6.343  0.8113 -0.3442 -0.1628
  160MOL   H15238630   0.591   6.604   6.714 -0.0253 -1.2351 -1.5350
  160MOL   H15338631   0.441   6.527   6.725  1.1009 -2.1717 -0.5467
  160MOL   H15438632   0.316   6.497   6.499  1.5430 -1.7761 -1.7260
  160MOL   H15538633   0.363   6.572   6.340 -0.0968  0.7678 -0.9920
  160MOL   H15638634   0.312   6.669   6.470 -1.1655 -1.8305  0.2480
  160MOL   H15738635   0.601   6.825   6.324 -0.7904  0.8358 -0.1703
  160MOL   C15838636   0.580   6.435   6.503 -0.1267 -0.9136 -0.1057
  160MOL   C15938637   0.639   6.383   6.368  0.3367  0.0017  0.6109
  160MOL   C16038638   0.561   6.427   6.247  0.3894  0.0306  0.3359
  160MOL   C16138639   0.787   6.419   6.357 -0.1210 -0.9795  0.3121
  160MOL   O16238640   0.858   6.479   6.438 -0.0443  0.3554 -0.3558
  160MOL   O16338641   0.838   6.372   6.244 -0.2085  0.3485  0.2718
  160MOL   H16438642   0.650   6.417   6.584  0.0776  4.3205  1.0765
  160MOL   H16538643   0.505   6.361   6.531 -1.7849  0.2060 -1.4908
  160MOL   H16638644   0.458   6.393   6.256  0.2647  0.5736  0.9834
  160MOL   H16738645   0.599   6.380   6.156  1.4628 -1.3549  1.4755
  160MOL   H16838646   0.563   6.536   6.239 -1.1718  0.0714  0.2659
  160MOL   H16938647   0.933   6.376   6.247 -0.1449 -0.7458 -0.2166
  160MOL   C17038648   0.627   6.227   6.351  0.0927  0.2288 -0.5421
  160MOL   C17138649   0.689   6.118   6.446  0.3732  1.0281 -0.5300
  160MOL   C17238650   0.837   6.153   6.495  0.2985 -0.2165  0.3339
  160MOL   C17338651   0.596   6.099   6.567 -0.4716  0.6509 -0.3257
  160MOL   O17438652   0.476   6.116   6.562 -0.4262 -0.1937  0.0780
  160MOL   O17538653   0.666   6.066   6.675 -0.0998 -0.2867  0.6827
  160MOL   H17638654   0.522   6.197   6.353  0.0226  0.5569  1.7717
  160MOL   H17738655   0.658   6.208   6.248  2.3567  0.5846  0.0466
  160MOL   H17838656   0.883   6.080   6.561  0.5597 -0.6762 -0.3560
  160MOL   H17938657   0.847   6.244   6.556 -2.6083  1.1606 -1.1278
  160MOL   H18038658   0.908   6.170   6.414 -0.4741  0.1109 -0.2805
  160MOL   H18138659   0.603   6.036   6.739 -1.5820 -1.0404 -1.0847
  160MOL   C18238660   0.681   5.991   6.354 -0.1588 -0.2263 -0.4102
  160MOL   C18338661   0.722   5.840   6.398  0.6412  0.4468 -0.4008
  160MOL   C18438662   0.839   5.825   6.494 -0.1718 -0.0730 -0.0516
  160MOL   C18538663   0.598   5.773   6.467  0.5849  0.1939 -0.9078
  160MOL   O18638664   0.487   5.816   6.452 -0.2746  0.0937  0.0802
  160MOL   O18738665   0.632   5.667   6.552  0.0524  0.2878 -0.4145
  160MOL   H18838666   0.595   5.988   6.287 -0.2120 -1.7872 -0.2949
  160MOL   H18938667   0.757   6.023   6.282  0.5795 -1.7158 -0.3171
  160MOL   H19038668   0.820   5.841   6.600  0.5157 -1.5844  0.3011
  160MOL   H19138669   0.929   5.876   6.460 -0.6271 -0.1423 -1.3994
  160MOL   H19238670   0.866   5.720   6.493 -0.9694 -0.2868  0.6529
  160MOL   H19338671   0.576   5.609   6.601 -0.4174 -0.1365 -1.4383
  160MOL   C19438672   0.737   5.759   6.263  0.0503  0.2603  0.2172
  160MOL   C19538673   0.874   5.757   6.176  0.7727 -0.1544 -0.9214
  160MOL   C19638674   0.921   5.898   6.138 -0.6800 -0.2667  0.3557
  160MOL   C19738675   0.995   5.685   6.244  0.4005 -0.7037  0.2324
  160MOL   O19838676   1.107   5.736   6.248 -0.0301  0.5778 -0.4298
  160MOL   O19938677   0.970   5.568   6.289 -0.0696 -0.1479 -0.3459
  160MOL   H20038678   0.721   5.653   6.285 -1.2075  0.1174 -1.2009
  160MOL   H20138679   0.659   5.790   6.193 -0.1003  0.1062  0.3149
  160MOL   H20238680   0.844   5.946   6.078 -0.9738 -1.0881  0.0755
  160MOL   H20338681   1.024   5.912   6.103 -0.8138  0.4481  0.2311
  160MOL   H20438682   0.942   5.963   6.223 -1.2341 -0.3526  0.5539
  160MOL   H20538683   1.049   5.524   6.316  0.3421  0.5870 -0.3319
  160MOL   C20638684   0.850   5.683   6.033  0.1921 -0.2798  0.2945
  160MOL   C20738685   0.927   5.677   5.900 -0.1113 -0.2045 -0.2616
  160MOL   C20838686   0.916   5.812   5.823 -0.0484  0.8514  0.5157
  160MOL   C20938687   1.076   5.646   5.925  0.3167  0.2994  0.0937
  160MOL   O21038688   1.169   5.708   5.882  0.7316  0.0116  0.4333
  160MOL   O21138689   1.094   5.529   6.005 -0.1724 -0.4238 -0.3589
  160MOL   H21238690   0.845   5.579   6.064  1.3547 -0.3076  0.4136
  160MOL   H21338691   0.745   5.705   6.015  0.4178  0.4349 -0.1512
  160MOL   H21438692   0.973   5.893   5.869 -0.2667  0.8026  0.8743
  160MOL   H21538693   0.809   5.835   5.825 -0.2525 -0.1393  2.1097
  160MOL   H21638694   0.954   5.801   5.721 -0.4559 -0.2027  0.4770
  160MOL   H21738695   1.184   5.509   6.023 -0.4053 -0.7741  0.4319
  160MOL   C21838696   0.880   5.558   5.808 -0.5082  0.6011 -0.5727
  160MOL   C21938697   0.745   5.554   5.726 -0.3233 -0.0642  0.0689
  160MOL   C22038698   0.628   5.576   5.824 -0.1590  0.7054  0.6063
  160MOL   C22138699   0.746   5.662   5.617 -0.2991 -0.4129 -0.5616
  160MOL   O22238700   0.683   5.768   5.614 -0.2593 -0.2054 -0.3093
  160MOL   O22338701   0.844   5.634   5.529 -0.9026  0.2845  0.2675
  160MOL   H22438702   0.959   5.528   5.739 -1.2814 -1.4573 -0.5965
  160MOL   H22538703   0.882   5.469   5.871  0.0658  0.2138 -1.1216
  160MOL   H22638704   0.536   5.523   5.797  0.8667 -0.6864 -0.2251
  160MOL   H22738705   0.614   5.683   5.841 -0.2479  1.2173 -2.3915
  160MOL   H22838706   0.663   5.536   5.919 -2.8991 -2.9488  0.1651
  160MOL   H22938707   0.855   5.700   5.462 -0.6459  1.0998  1.1004
  160MOL   C23038708   0.731   5.415   5.662  0.5715 -0.4816 -0.1457
  160MOL   C23138709   0.609   5.378   5.568 -0.1263 -0.2653  0.0906
  160MOL   C23238710   0.642   5.413   5.422 -0.3196 -0.2716 -0.7936
  160MOL   C23338711   0.574   5.236   5.582 -0.0984 -0.2646 -0.4414
  160MOL   O23438712   0.644   5.142   5.617  0.1508  0.1727  0.3375
  160MOL   O23538713   0.441   5.216   5.558 -0.9879 -0.3742  0.2340
  160MOL   H23638714   0.829   5.384   5.625 -1.3285 -3.6115 -2.7743
  160MOL   H23738715   0.724   5.356   5.753  0.9712 -2.1074 -1.1541
  160MOL   H23838716   0.718   5.352   5.373  2.8931  2.3583  0.7095
  160MOL   H23938717   0.664   5.519   5.408  0.0535 -0.6571 -3.3486
  160MOL   H24038718   0.558   5.380   5.361  0.7932 -2.0559 -1.4025
  160MOL   H24138719   0.413   5.127   5.573  1.5351 -1.1182  0.7515
  160MOL   H24238720   0.526   5.443   5.595 -1.6962 -2.0126 -0.4068
  161MOL     C138721   7.244   4.513   3.269 -0.5841 -0.7778 -0.0172
  161MOL     C238722   7.201   4.367   3.308  0.7009 -0.6064 -0.1117
  161MOL     C338723   7.048   4.370   3.279 -0.0747  0.4445  0.3970
  161MOL     C438724   7.262   4.256   3.217  0.0465 -0.1270 -0.2031
  161MOL     O538725   7.192   4.167   3.162  0.0480 -0.1828 -0.5038
  161MOL     O638726   7.399   4.262   3.209  0.2761  0.5452 -0.3021
  161MOL     H738727   7.343   4.523   3.226 -0.5802  2.5795  0.6559
  161MOL     H838728   7.240   4.592   3.344 -0.4560 -1.0481  0.2789
  161MOL     H938729   6.994   4.443   3.341 -1.0754  1.1318 -1.2541
  161MOL    H1038730   6.998   4.278   3.308  0.3739 -0.2000 -0.8953
  161MOL    H1138731   7.017   4.392   3.177  0.1061 -0.1461  0.2149
  161MOL    H1238732   7.424   4.334   3.265 -0.0492  1.0866 -0.8558
  161MOL    H1338733   7.191   4.545   3.179 -0.2032  0.9855  0.3673
  161MOL    C1438734   7.221   4.338   3.462 -0.9214 -0.4560  0.2115
  161MOL    C1538735   7.360   4.332   3.534 -0.5975  0.1351 -0.0750
  161MOL    C1638736   7.449   4.448   3.491  0.3908 -1.1082  0.4281
  161MOL    C1738737   7.326   4.360   3.682 -0.7640 -0.1135 -0.0741
  161MOL    O1838738   7.371   4.458   3.747  0.2776 -0.3132 -0.3316
  161MOL    O1938739   7.241   4.272   3.733 -0.1397 -0.2695  0.3365
  161MOL    H2038740   7.162   4.417   3.509  0.5275  1.1134 -0.5664
  161MOL    H2138741   7.170   4.245   3.486  0.9805 -1.5179  0.2186
  161MOL    H2238742   7.537   4.463   3.553  0.4732  1.3768 -0.2216
  161MOL    H2338743   7.396   4.544   3.489  2.3009 -0.0509 -0.5100
  161MOL    H2438744   7.499   4.438   3.394  1.5139 -1.6703  1.0617
  161MOL    H2538745   7.219   4.295   3.822  2.0598  1.6681  0.4371
  161MOL    C2638746   7.415   4.188   3.519  0.4089  0.0734 -0.2122
  161MOL    C2738747   7.556   4.132   3.557 -0.4488 -0.4214 -0.2144
  161MOL    C2838748   7.550   3.977   3.550 -0.0327 -0.2292  0.0493
  161MOL    C2938749   7.659   4.191   3.453  0.1136  0.0362  0.4085
  161MOL    O3038750   7.716   4.295   3.465 -0.2802 -0.3285 -0.6001
  161MOL    O3138751   7.670   4.107   3.346 -0.6830  0.7740 -0.2119
  161MOL    H3238752   7.353   4.125   3.583  0.5833  1.7362  1.6789
  161MOL    H3338753   7.395   4.149   3.420  0.3626 -0.6660  0.0839
  161MOL    H3438754   7.485   3.942   3.629 -1.6345  1.2497 -0.5990
  161MOL    H3538755   7.651   3.943   3.573 -0.1704 -1.1834 -0.7065
  161MOL    H3638756   7.511   3.936   3.457  3.4131 -0.1184 -1.5239
  161MOL    H3738757   7.713   4.141   3.269  0.7723 -0.0844  0.1950
  161MOL    C3838758   7.592   4.172   3.707 -0.5724  0.3037  0.4623
  161MOL    C3938759   7.704   4.110   3.806 -0.4441 -0.1329 -0.5463
  161MOL    C4038760   7.654   3.970   3.863 -0.4073 -0.0596 -0.6958
  161MOL    C4138761   0.069   4.087   3.724 -0.1262  0.2691  0.1554
  161MOL    O4238762   0.103   3.982   3.665  0.1057  0.3255  0.5290
  161MOL    O4338763   0.139   4.198   3.709 -0.2707  0.3413  0.2080
  161MOL    H4438764   7.629   4.274   3.698 -0.2383  0.1304 -0.1753
  161MOL    H4538765   7.500   4.165   3.763 -0.2096 -0.7647  0.9320
  161MOL    H4638766   7.553   3.970   3.904 -0.3728  1.2724 -0.5899
  161MOL    H4738767   7.721   3.935   3.942  0.0703  1.3722 -0.4531
  161MOL    H4838768   7.656   3.891   3.788 -1.7531 -1.0277  0.2610
  161MOL    H4938769   0.196   4.198   3.634 -1.6823  0.3032 -0.8936
  161MOL    C5038770   7.723   4.209   3.921  0.6152  0.0856 -0.1240
  161MOL    C5138771   0.050   4.185   4.049 -0.2247 -0.6213  0.9881
  161MOL    C5238772   7.725   4.128   4.162 -0.1412 -0.0534 -0.1143
  161MOL    C5338773   0.183   4.100   4.024 -0.5718  0.0231  0.5244
  161MOL    O5438774   0.281   4.151   3.970 -0.1908  0.1171 -0.2234
  161MOL    O5538775   0.169   3.972   4.057  0.0005 -0.4695  0.0823
  161MOL    H5638776   7.749   4.297   3.863 -1.1627 -0.3698 -1.6547
  161MOL    H5738777   7.621   4.229   3.953 -0.4202 -2.1375 -1.9065
  161MOL    H5838778   0.021   4.101   4.246 -0.9301 -2.6121 -0.3151
  161MOL    H5938779   7.678   4.040   4.118 -2.5082  1.2016 -0.2044
  161MOL    H6038780   7.636   4.186   4.187 -0.0601 -0.1121  0.3105
  161MOL    H6138781   0.244   3.923   4.027 -0.5012 -1.5088  0.5057
  161MOL    C6238782   0.087   4.334   4.091  0.1605 -0.4937 -0.5348
  161MOL    C6338783   0.144   4.379   4.233 -0.0084  0.0225  0.2748
  161MOL    C6438784   0.230   4.504   4.197 -0.9865 -0.0922 -0.1026
  161MOL    C6538785   0.029   4.416   4.329 -0.1621 -0.3208 -0.5285
  161MOL    O6638786   7.763   4.341   4.423 -0.3618 -0.3696 -0.9710
  161MOL    O6738787   7.743   4.533   4.298  0.3822 -0.4764 -0.7192
  161MOL    H6838788   0.165   4.360   4.019 -0.6301 -1.0016 -1.5891
  161MOL    H6938789   0.004   4.397   4.060  1.2870  0.3646 -1.8679
  161MOL    H7038790   0.237   4.570   4.284  2.1912 -0.4949 -0.0117
  161MOL    H7138791   0.208   4.576   4.118 -1.6483  0.3289  0.4518
  161MOL    H7238792   0.332   4.475   4.174 -0.1546  0.6444  2.4566
  161MOL    H7338793   7.672   4.550   4.359  1.5155  0.8558  0.2416
  161MOL    C7438794   0.247   4.274   4.302 -0.2718  0.5321 -0.1537
  161MOL    C7538795   0.365   4.298   4.414 -0.5277 -0.2804 -0.4971
  161MOL    C7638796   0.498   4.292   4.346 -0.8302  0.4491  0.2696
  161MOL    C7738797   0.346   4.428   4.490 -0.4472 -0.7125 -0.0664
  161MOL    O7838798   0.406   4.531   4.473 -0.3976 -0.2257  0.2630
  161MOL    O7938799   0.247   4.415   4.584  0.3729  0.4391  0.6710
  161MOL    H8038800   0.187   4.191   4.338  2.2987 -1.5565 -0.5510
  161MOL    H8138801   0.297   4.230   4.215  0.0730  2.0176 -0.7336
  161MOL    H8238802   0.515   4.211   4.275 -2.2568  2.0593 -1.9372
  161MOL    H8338803   0.572   4.297   4.426 -0.0814  0.1382 -0.4010
  161MOL    H8438804   0.513   4.368   4.269 -0.6867 -1.0190 -1.1831
  161MOL    H8538805   0.250   4.489   4.643 -1.1518  1.7736 -0.8919
  161MOL    C8638806   0.364   4.180   4.528 -0.0050  0.2495 -0.0012
  161MOL    C8738807   0.402   4.029   4.501  0.6090  0.4772 -0.0385
  161MOL    C8838808   0.318   3.977   4.375 -0.3302  0.5200 -0.8126
  161MOL    C8938809   0.549   4.008   4.461  0.1077 -0.0043 -0.5491
  161MOL    O9038810   0.591   3.954   4.363  0.1071 -0.1347 -0.0644
  161MOL    O9138811   0.626   4.082   4.556  0.1229  0.3400  0.5691
  161MOL    H9238812   0.411   4.224   4.616  0.3462 -0.7625  0.3225
  161MOL    H9338813   0.267   4.186   4.576  0.4434  2.3381  0.7340
  161MOL    H9438814   0.337   4.026   4.280 -0.6468  0.3530 -0.9636
  161MOL    H9538815   0.212   3.991   4.395 -0.4298  0.8861 -1.5969
  161MOL    H9638816   0.321   3.868   4.373  2.2569  0.5763 -1.0954
  161MOL    H9738817   0.714   4.069   4.524  0.1814  1.8006  0.1112
  161MOL    C9838818   0.360   3.932   4.621 -0.6720  0.6133 -0.5725
  161MOL    C9938819   0.443   3.905   4.749 -0.3438 -1.0209  0.1423
  161MOL   C10038820   0.567   3.822   4.732 -0.3600  0.2780  0.2072
  161MOL   C10138821   0.477   4.041   4.822  0.3166 -0.6698 -0.1922
  161MOL   O10238822   0.591   4.088   4.833 -0.3200  0.4414  0.4790
  161MOL   O10338823   0.360   4.101   4.863  0.4042 -0.4612 -0.1087
  161MOL   H10438824   0.266   3.982   4.645 -0.2249  1.8109 -1.2898
  161MOL   H10538825   0.336   3.829   4.593 -0.0025  0.7770 -1.7630
  161MOL   H10638826   0.645   3.831   4.808  0.8588  0.3816 -1.0363
  161MOL   H10738827   0.613   3.850   4.637 -1.3690 -0.7347 -0.5885
  161MOL   H10838828   0.549   3.716   4.717 -0.6656 -0.0330  2.6048
  161MOL   H10938829   0.385   4.184   4.899 -0.3730 -0.3424  0.1673
  161MOL   C11038830   0.335   3.827   4.842  0.1435  0.9001 -0.1980
  161MOL   C11138831   0.360   3.793   4.992 -0.2817  0.0212 -0.3366
  161MOL   C11238832   0.499   3.807   5.041 -0.0077 -0.0357 -0.6678
  161MOL   C11338833   0.281   3.894   5.087 -0.0709  0.4248  0.1319
  161MOL   O11438834   0.329   3.956   5.180 -0.1990 -0.2905 -0.1717
  161MOL   O11538835   0.148   3.899   5.060  0.2592 -0.1445  0.0159
  161MOL   H11638836   0.244   3.887   4.845 -0.9811 -0.8684  2.2484
  161MOL   H11738837   0.294   3.744   4.785 -0.0917  0.2889  0.8590
  161MOL   H11838838   0.511   3.772   5.144 -1.4161  0.9182 -0.1727
  161MOL   H11938839   0.549   3.903   5.031  2.9345 -1.1035  2.6556
  161MOL   H12038840   0.562   3.739   4.984 -0.5541 -2.2231  1.2577
  161MOL   H12138841   0.113   3.959   5.124  1.5360  2.2275 -1.4659
  161MOL   C12238842   0.326   3.645   5.023  0.2147 -0.2617  0.8576
  161MOL   C12338843   0.184   3.568   5.014 -0.0935 -0.2524 -0.1592
  161MOL   C12438844   0.098   3.614   4.898  0.1850 -0.4511  0.0132
  161MOL   C12538845   0.224   3.417   4.990  0.0894 -0.3759 -0.2939
  161MOL   O12638846   0.332   3.373   5.016 -0.8647  0.1801  0.0547
  161MOL   O12738847   0.116   3.340   4.953  0.1286  0.3679  0.2483
  161MOL   H12838848   0.394   3.597   4.953  1.0835  0.7850  0.9664
  161MOL   H12938849   0.371   3.605   5.114  1.0316  0.4481  0.7819
  161MOL   H13038850   0.141   3.585   4.802 -1.9988 -0.5481 -0.9516
  161MOL   H13138851   0.086   3.722   4.901  1.1779 -0.3114 -0.9777
  161MOL   H13238852   7.761   3.583   4.906 -0.6714  2.1071 -0.9226
  161MOL   H13338853   0.143   3.250   4.940 -0.3317  0.2176  0.3153
  161MOL   C13438854   0.087   3.574   5.143 -0.2000  0.9665 -0.7308
  161MOL   C13538855   0.137   3.548   5.291 -0.1355  0.3342  0.3125
  161MOL   C13638856   0.226   3.416   5.313  0.8013 -0.7020  0.6794
  161MOL   C13738857   0.222   3.667   5.333 -0.3024  0.8167 -0.4669
  161MOL   O13838858   0.339   3.657   5.367  0.0036  0.2313  0.0917
  161MOL   O13938859   0.149   3.782   5.325 -0.1099 -0.3219 -0.2561
  161MOL   H14038860   0.031   3.667   5.129 -1.7014  0.0784 -0.7162
  161MOL   H14138861   0.014   3.494   5.131  1.5071 -0.3074 -3.0357
  161MOL   H14238862   0.328   3.431   5.278  0.5872  3.7470  1.5920
  161MOL   H14338863   0.189   3.331   5.255  0.1569  1.0968 -1.6307
  161MOL   H14438864   0.239   3.390   5.418  1.2120  1.7959  1.2789
  161MOL   H14538865   0.214   3.847   5.351  1.1970 -2.2486  1.4257
  161MOL   C14638866   0.013   3.539   5.383  0.2002 -0.3124 -0.6252
  161MOL   C14738867   7.654   3.431   5.381  0.3716 -0.2965  0.4658
  161MOL   C14838868   7.697   3.295   5.306  0.1192 -0.2366  0.6540
  161MOL   C14938869   7.617   3.399   5.526 -0.5299 -0.9336  0.1554
  161MOL   O15038870   7.618   3.280   5.569 -0.0695  0.4053  0.5064
  161MOL   O15138871   7.608   3.512   5.602 -0.3453  0.0735 -0.2052
  161MOL   H15238872   0.056   3.519   5.481 -1.3409 -1.1454 -0.1038
  161MOL   H15338873   7.743   3.640   5.397 -0.9029 -0.9346  1.0730
  161MOL   H15438874   7.610   3.230   5.314  0.4897 -0.6900  1.0309
  161MOL   H15538875   0.012   3.255   5.366  2.5539  2.3710 -0.8030
  161MOL   H15638876   7.733   3.309   5.204 -3.0160  1.3496 -0.3134
  161MOL   H15738877   7.604   3.494   5.695 -0.8834 -0.2027 -0.2768
  161MOL   C15838878   7.533   3.500   5.307  0.1120  0.5719 -0.8336
  161MOL   C15938879   7.414   3.423   5.234  0.2099 -0.8698 -0.4204
  161MOL   C16038880   7.478   3.350   5.113 -0.0255  0.4363  0.0801
  161MOL   C16138881   7.348   3.308   5.318  0.2237 -0.1411 -0.8688
  161MOL   O16238882   7.314   3.196   5.283  0.2384 -0.0367  0.1550
  161MOL   O16338883   7.332   3.350   5.449  0.5255  0.0691  0.3667
  161MOL   H16438884   7.494   3.569   5.381 -0.5256 -0.7825  0.1262
  161MOL   H16538885   7.590   3.565   5.240  1.6635  0.1760  0.0737
  161MOL   H16638886   7.568   3.394   5.071  2.0694 -1.4601  2.4319
  161MOL   H16738887   7.405   3.339   5.033  0.0445  1.7942 -0.1793
  161MOL   H16838888   7.510   3.248   5.133 -0.8044  0.4200  1.2920
  161MOL   H16938889   7.285   3.290   5.505  1.6203 -1.7908 -0.6397
  161MOL   C17038890   7.294   3.519   5.194  0.2841 -0.1345 -0.0868
  161MOL   C17138891   7.322   3.657   5.124  0.2798  0.3818 -0.2364
  161MOL   C17238892   7.375   3.761   5.233  0.8942 -0.6269  0.8987
  161MOL   C17338893   7.412   3.642   4.995  0.0258  0.2471  0.1005
  161MOL   O17438894   7.409   3.549   4.920  0.4672 -0.1006  0.3930
  161MOL   O17538895   7.497   3.756   4.979 -0.0123 -0.0145  0.0560
  161MOL   H17638896   7.222   3.463   5.134 -3.2655  3.6419  0.4244
  161MOL   H17738897   7.242   3.537   5.288  0.2445  0.3036 -0.1910
  161MOL   H17838898   7.334   3.860   5.212 -0.2672 -0.7217  2.6384
  161MOL   H17938899   7.484   3.768   5.232  0.9506 -1.0637 -2.3595
  161MOL   H18038900   7.350   3.736   5.336  2.5045 -1.8364  1.0212
  161MOL   H18138901   7.537   3.741   4.895 -1.2639 -2.8492 -0.0781
  161MOL   C18238902   7.186   3.717   5.069  0.0231  1.2229 -0.0072
  161MOL   C18338903   7.049   3.729   5.148  0.3869  0.2676  0.2247
  161MOL   C18438904   6.956   3.612   5.116  0.0280 -0.1610 -0.2712
  161MOL   C18538905   7.069   3.728   5.303 -0.0449 -0.2622  0.0779
  161MOL   O18638906   7.033   3.634   5.370 -0.0337  0.1105  0.0134
  161MOL   O18738907   7.126   3.838   5.353  0.1876 -0.2025 -0.0480
  161MOL   H18838908   7.214   3.810   5.019  2.3023  0.2040 -0.6649
  161MOL   H18938909   7.158   3.650   4.987 -1.1251  0.0462  1.3109
  161MOL   H19038910   6.865   3.640   5.168 -0.8157 -0.5314 -1.5312
  161MOL   H19138911   6.993   3.519   5.157  1.6246  0.5125 -0.1227
  161MOL   H19238912   6.941   3.592   5.010  0.8698  1.8340 -0.7992
  161MOL   H19338913   7.122   3.850   5.447  1.3536  1.2824 -0.1697
  161MOL   C19438914   6.974   3.870   5.098 -0.5917  0.4552 -0.2203
  161MOL   C19538915   6.908   3.881   4.951 -0.4449  0.0973 -0.2743
  161MOL   C19638916   7.007   3.846   4.834 -0.2078  0.4502 -0.4803
  161MOL   C19738917   6.781   3.794   4.940  0.5825  0.4687  0.2797
  161MOL   O19838918   6.751   3.724   4.845 -0.5384 -0.7620  0.0761
  161MOL   O19938919   6.705   3.809   5.045 -0.2023 -0.3053 -0.5898
  161MOL   H20038920   6.906   3.898   5.179  0.8879  0.0779  1.1928
  161MOL   H20138921   7.058   3.940   5.107 -0.6988  0.3433  2.0806
  161MOL   H20238922   7.039   3.742   4.837  0.9671  0.8208  0.2355
  161MOL   H20338923   7.102   3.900   4.836 -0.1818  0.4047 -0.5434
  161MOL   H20438924   6.946   3.841   4.744 -1.3385 -2.2185  0.3867
  161MOL   H20538925   6.626   3.757   5.042  1.4908 -2.9151 -2.3165
  161MOL   C20638926   6.870   4.031   4.928  0.0017  0.0772  0.0497
  161MOL   C20738927   6.829   4.103   4.789 -0.2141  0.5170 -0.0107
  161MOL   C20838928   6.949   4.110   4.688  0.4927 -0.2009  0.1555
  161MOL   C20938929   6.711   4.020   4.716  0.1789 -0.7078 -0.0019
  161MOL   O21038930   6.722   3.935   4.623  0.0200 -0.0695 -0.3161
  161MOL   O21138931   6.592   4.045   4.771 -0.1986 -0.3901  0.1599
  161MOL   H21238932   6.786   4.049   4.994  1.5006  0.6805  1.8238
  161MOL   H21338933   6.955   4.089   4.964 -1.6367  2.0911  0.8274
  161MOL   H21438934   6.969   4.015   4.638  0.1642 -0.4468  0.4866
  161MOL   H21538935   7.033   4.133   4.753  0.9260  2.0322 -1.1682
  161MOL   H21638936   6.924   4.168   4.599  1.3904 -0.6651 -0.4067
  161MOL   H21738937   6.523   3.993   4.734 -0.1212 -0.2430 -0.1923
  161MOL   C21838938   6.777   4.249   4.811  0.1826  0.3992  0.5179
  161MOL   C21938939   6.866   4.363   4.884 -0.0941 -0.0151  1.0981
  161MOL   C22038940   6.883   4.332   5.036 -0.1236  0.0031 -0.5516
  161MOL   C22138941   7.014   4.382   4.827  0.0855  0.1619  0.6700
  161MOL   O22238942   7.116   4.373   4.891 -0.2116  0.6029  0.2016
  161MOL   O22338943   7.013   4.413   4.696  0.0174 -0.0226 -0.0146
  161MOL   H22438944   6.749   4.294   4.716  0.8300  0.2363  0.2493
  161MOL   H22538945   6.689   4.254   4.875 -1.0649 -2.5233 -0.8632
  161MOL   H22638946   6.913   4.426   5.083  1.2336 -1.8991  2.5413
  161MOL   H22738947   6.968   4.266   5.054 -0.4912 -0.9425 -2.1720
  161MOL   H22838948   6.792   4.292   5.081 -0.2954  0.9139 -0.0835
  161MOL   H22938949   7.104   4.410   4.669  0.4530  0.8214  1.2938
  161MOL   C23038950   6.799   4.511   4.868  0.1028  0.1448 -0.0312
  161MOL   C23138951   6.672   4.544   4.954 -0.6458  0.5443  1.0142
  161MOL   C23238952   6.640   4.695   4.947 -0.3007 -0.3366 -0.0245
  161MOL   C23338953   6.553   4.473   4.908 -0.1503  0.3300 -0.3732
  161MOL   O23438954   6.522   4.445   4.794  1.0082 -0.2615  0.3873
  161MOL   O23538955   6.486   4.425   5.015 -0.0958  0.1228  0.4172
  161MOL   H23638956   6.879   4.580   4.897  0.8140  0.9940 -3.6707
  161MOL   H23738957   6.781   4.525   4.761  0.9348  4.8869  0.3170
  161MOL   H23838958   6.721   4.760   4.979  1.8830 -3.0829  0.1768
  161MOL   H23938959   6.550   4.734   4.994 -0.1696 -0.0224 -0.0307
  161MOL   H24038960   6.621   4.728   4.844  2.6937  0.2598 -0.4219
  161MOL   H24138961   6.406   4.375   5.001 -0.4425  0.1822  2.0518
  161MOL   H24238962   6.684   4.524   5.061  1.2096  0.9269  0.9071
  162MOL     C138963   4.527   7.352   3.438  0.5173  0.0570  0.4941
  162MOL     C238964   4.407   7.381   3.525  0.9779 -0.8345 -0.6446
  162MOL     C338965   4.451   7.515   3.588 -0.0262  0.7781  0.3497
  162MOL     C438966   4.282   7.399   3.435 -0.1109 -0.7933  0.1265
  162MOL     O538967   4.223   7.506   3.427  0.1267 -0.2349 -0.2170
  162MOL     O638968   4.258   7.285   3.366  0.5166 -0.3359 -0.2110
  162MOL     H738969   4.541   7.251   3.400  0.1850  0.3506 -0.4271
  162MOL     H838970   4.621   7.376   3.487 -0.1889  0.2919  1.7561
  162MOL     H938971   4.494   7.584   3.515 -1.1595  0.1328 -0.9508
  162MOL    H1038972   4.522   7.500   3.669  0.8783  0.7015 -0.4494
  162MOL    H1138973   4.366   7.569   3.631  0.4270  1.3939  0.4798
  162MOL    H1238974   4.194   7.316   3.304  1.2867 -0.9541 -1.3384
  162MOL    H1338975   4.537   7.420   3.353  3.2045 -0.9916 -0.0857
  162MOL    C1438976   4.398   7.263   3.636 -0.6329  0.5265 -0.1512
  162MOL    C1538977   4.274   7.241   3.733  0.0345  0.5049  0.5733
  162MOL    C1638978   4.218   7.378   3.774 -0.2211 -0.7012 -0.2009
  162MOL    C1738979   4.162   7.169   3.650  0.3767 -0.6327 -1.1888
  162MOL    O1838980   4.050   7.225   3.636 -0.6133 -0.0892 -0.1500
  162MOL    O1938981   4.205   7.050   3.607  0.0741 -0.1003 -0.6438
  162MOL    H2038982   4.416   7.170   3.582 -1.1622 -0.6461  1.6470
  162MOL    H2138983   4.481   7.286   3.704  1.2834 -2.2112 -1.4906
  162MOL    H2238984   4.133   7.370   3.841  0.5960 -0.7279  0.8475
  162MOL    H2338985   4.197   7.442   3.687 -1.9351 -0.3977  0.4236
  162MOL    H2438986   4.282   7.441   3.836  0.4854 -2.5426  0.9771
  162MOL    H2538987   4.146   6.994   3.559 -0.6287  0.1160 -0.0372
  162MOL    C2638988   4.324   7.144   3.847  0.1409 -0.2270 -0.1139
  162MOL    C2738989   4.267   7.173   3.995 -0.0406  0.0797  0.0110
  162MOL    C2838990   4.311   7.306   4.064 -0.0788 -0.2924 -0.5154
  162MOL    C2938991   4.114   7.169   3.997 -0.1157 -0.7991  0.6251
  162MOL    O3038992   4.048   7.245   4.066  0.4481  0.2960 -0.0323
  162MOL    O3138993   4.055   7.076   3.919 -0.2156  0.1949  0.6842
  162MOL    H3238994   4.318   7.039   3.819  0.4806 -0.8202  1.9374
  162MOL    H3338995   4.431   7.163   3.851  0.3095 -1.1263 -0.2471
  162MOL    H3438996   4.254   7.393   4.030  0.3489 -0.9621 -3.0622
  162MOL    H3538997   4.405   7.333   4.015 -0.3953  2.0387  0.1002
  162MOL    H3638998   4.325   7.304   4.172 -0.1700  2.5203 -0.4096
  162MOL    H3738999   3.963   7.067   3.937 -0.3854 -0.6526 -0.5994
  162MOL    C3839000   4.288   7.045   4.087  0.5305  0.4441  0.5204
  162MOL    C3939001   4.431   6.986   4.117 -0.1114  0.2892 -0.0470
  162MOL    C4039002   4.499   6.913   3.998 -0.4952 -0.2290  0.4470
  162MOL    C4139003   4.523   7.098   4.168  0.5845  0.3455 -0.0322
  162MOL    O4239004   4.627   7.130   4.118 -0.0449 -0.4493 -0.4829
  162MOL    O4339005   4.480   7.142   4.284 -0.0365 -0.5914  0.0323
  162MOL    H4439006   4.241   7.065   4.183  1.3852 -0.7714  1.1994
  162MOL    H4539007   4.228   6.963   4.048 -0.0338  1.0614  0.0663
  162MOL    H4639008   4.436   6.846   3.939  0.0077  1.2316 -1.8134
  162MOL    H4739009   4.599   6.872   4.013 -0.7575 -0.4119  1.7118
  162MOL    H4839010   4.527   6.996   3.933  0.0036 -0.7254  0.0256
  162MOL    H4939011   4.541   7.201   4.325  0.5109  0.1583 -1.8096
  162MOL    C5039012   4.402   6.875   4.231 -0.7542 -0.1327 -0.3342
  162MOL    C5139013   4.512   6.778   4.289  0.2486 -0.4364 -0.1967
  162MOL    C5239014   4.632   6.863   4.341  0.5271  0.2670  0.6523
  162MOL    C5339015   4.456   6.709   4.415 -0.3024 -0.0867  0.2475
  162MOL    O5439016   4.495   6.742   4.524  0.7033  0.8326 -0.6918
  162MOL    O5539017   4.351   6.633   4.397  0.0022 -0.8523 -0.0700
  162MOL    H5639018   4.354   6.935   4.308 -0.9833 -0.7870  0.0417
  162MOL    H5739019   4.327   6.806   4.191  0.3575 -1.6375  0.1033
  162MOL    H5839020   4.701   6.800   4.398 -0.2475 -2.0065 -0.8295
  162MOL    H5939021   4.605   6.941   4.411 -1.5906 -0.8409  1.1048
  162MOL    H6039022   4.680   6.913   4.257 -0.2979  1.2211  0.7381
  162MOL    H6139023   4.325   6.602   4.482  0.3153  0.5056  0.5319
  162MOL    C6239024   4.551   6.664   4.189 -0.0207 -0.3253  1.2879
  162MOL    C6339025   4.680   6.570   4.202  0.3129  0.6249  0.2404
  162MOL    C6439026   4.647   6.449   4.112  0.1643  0.0007 -0.3041
  162MOL    C6539027   4.803   6.651   4.153  0.0242 -0.5158  1.2633
  162MOL    O6639028   4.885   6.691   4.229 -0.3501 -0.3671  0.7233
  162MOL    O6739029   4.807   6.679   4.022  0.8132 -0.2798 -0.4192
  162MOL    H6839030   4.463   6.601   4.184  1.3440 -2.2057 -0.1842
  162MOL    H6939031   4.541   6.690   4.083 -1.3269 -2.2078  0.9227
  162MOL    H7039032   4.727   6.375   4.103  2.1466  2.2400 -1.8438
  162MOL    H7139033   4.621   6.476   4.010 -0.8309 -0.2636 -0.1221
  162MOL    H7239034   4.561   6.390   4.142 -0.2657 -0.0347 -1.5738
  162MOL    H7339035   4.890   6.718   3.997  2.8655 -3.8258  0.4092
  162MOL    C7439036   4.694   6.509   4.356 -0.1751  0.2173 -0.2180
  162MOL    C7539037   4.785   6.398   4.404 -0.0950  0.2852 -0.4995
  162MOL    C7639038   4.722   6.260   4.355  0.1955  0.8544 -0.2656
  162MOL    C7739039   4.923   6.428   4.341  0.1980  0.4016  0.0386
  162MOL    O7839040   4.952   6.375   4.234  0.4879 -0.5488  0.2067
  162MOL    O7939041   5.004   6.513   4.413 -0.2672 -0.3961 -0.1407
  162MOL    H8039042   4.714   6.595   4.421  1.0915 -0.7817  0.7370
  162MOL    H8139043   4.593   6.482   4.387 -0.0748  1.0238  0.8860
  162MOL    H8239044   4.785   6.197   4.292 -0.2652  0.0403  0.0765
  162MOL    H8339045   4.640   6.275   4.285 -1.4169 -0.6796  1.2559
  162MOL    H8439046   4.674   6.193   4.426 -1.8172  1.7136 -0.7992
  162MOL    H8539047   5.088   6.545   4.386 -0.5914  0.6984  0.1171
  162MOL    C8639048   4.796   6.407   4.565 -0.5698 -0.2671  0.0373
  162MOL    C8739049   4.886   6.306   4.650 -0.1423  0.3906  0.4912
  162MOL    C8839050   4.968   6.402   4.743  0.2099 -0.6388  0.2853
  162MOL    C8939051   4.789   6.225   4.739  0.1634 -0.7439  0.0105
  162MOL    O9039052   4.685   6.179   4.705  0.3681  0.1896  0.1912
  162MOL    O9139053   4.850   6.191   4.857  0.0599  0.1879  0.7905
  162MOL    H9239054   4.831   6.509   4.577 -2.2274  0.4233 -0.8271
  162MOL    H9339055   4.696   6.428   4.604 -0.9799  1.7933 -2.0182
  162MOL    H9439056   5.035   6.351   4.812  1.0674 -2.0111 -1.5157
  162MOL    H9539057   4.908   6.460   4.813  1.5418  1.6235 -0.4341
  162MOL    H9639058   5.034   6.469   4.689  0.5218 -0.9825  0.2325
  162MOL    H9739059   4.798   6.125   4.901 -1.0041 -0.4897 -1.3606
  162MOL    C9839060   4.988   6.212   4.569  0.3881 -0.4491  0.4032
  162MOL    C9939061   5.061   6.073   4.612 -0.3158  0.5568  0.6671
  162MOL   C10039062   5.130   6.101   4.746  0.0026 -0.6469 -0.5927
  162MOL   C10139063   4.954   5.962   4.622  0.2245  0.3804  0.6820
  162MOL   O10239064   4.836   5.962   4.581  0.0927 -0.0792 -0.4348
  162MOL   O10339065   5.014   5.851   4.680  0.3033 -0.0504  0.2715
  162MOL   H10439066   4.943   6.183   4.474  1.3438  1.9098 -0.8226
  162MOL   H10539067   5.060   6.283   4.528  0.4078 -1.5870 -1.6216
  162MOL   H10639068   5.201   6.184   4.745  0.2471 -0.7080  3.1767
  162MOL   H10739069   5.186   6.014   4.780 -2.5683 -2.3064 -0.4960
  162MOL   H10839070   5.070   6.108   4.837  1.2721 -2.1118  0.3858
  162MOL   H10939071   4.958   5.776   4.670 -1.0826  0.8697  0.9365
  162MOL   C11039072   5.182   6.032   4.515 -0.1398 -0.3244  0.5998
  162MOL   C11139073   5.156   5.960   4.378  0.3055 -1.0613 -0.3539
  162MOL   C11239074   5.109   5.814   4.409  0.4777  0.0010  0.0732
  162MOL   C11339075   5.061   6.036   4.280 -0.5859  0.2251 -0.7276
  162MOL   O11439076   4.967   5.990   4.223 -0.5339  0.3681 -0.6294
  162MOL   O11539077   5.097   6.166   4.282  0.5344 -0.5026  0.5117
  162MOL   H11639078   5.250   6.115   4.499 -1.8323  0.5142 -2.5913
  162MOL   H11739079   5.253   5.971   4.571  1.7451  0.0010 -1.3315
  162MOL   H11839080   5.144   5.744   4.333  1.8503 -0.0592  0.7315
  162MOL   H11939081   5.002   5.798   4.416  0.6055 -0.8768  0.1220
  162MOL   H12039082   5.165   5.764   4.488 -2.0290 -2.0978  0.5904
  162MOL   H12139083   5.033   6.212   4.230  1.4582 -2.1345 -2.1657
  162MOL   C12239084   5.296   5.945   4.301 -0.8332  0.0071  0.7932
  162MOL   C12339085   5.306   5.915   4.141  0.1358 -0.2767  0.5929
  162MOL   C12439086   5.203   5.810   4.089 -0.2022 -0.1816  0.0092
  162MOL   C12539087   5.296   6.053   4.066  0.0266  0.0166 -0.5884
  162MOL   O12639088   5.202   6.090   3.990 -0.3573  0.0375 -0.2870
  162MOL   O12739089   5.391   6.143   4.105 -0.3093 -0.2658 -0.2155
  162MOL   H12839090   5.336   6.044   4.319  0.8725 -0.5660  0.2080
  162MOL   H12939091   5.362   5.876   4.354 -0.0605 -0.3278 -0.5961
  162MOL   H13039092   5.161   5.840   3.992 -1.0596  2.1423  1.0796
  162MOL   H13139093   5.108   5.818   4.141 -0.9415  0.3103 -1.3782
  162MOL   H13239094   5.231   5.706   4.104  0.5925 -0.3683 -2.4100
  162MOL   H13339095   5.378   6.232   4.075 -0.1174 -0.0690  0.2793
  162MOL   C13439096   5.452   5.853   4.121 -0.7869 -0.4507  0.2805
  162MOL   C13539097   5.526   5.809   3.989  0.3166  0.7595  0.3763
  162MOL   C13639098   5.667   5.739   4.034  0.3063 -0.5184  0.4197
  162MOL   C13739099   5.438   5.702   3.925 -0.1673 -0.1225 -0.2771
  162MOL   O13839100   5.435   5.585   3.973 -0.0094  0.5292 -0.0256
  162MOL   O13939101   5.355   5.752   3.832 -0.1635 -0.1714 -0.0690
  162MOL   H14039102   5.522   5.915   4.177  1.0959 -0.7558 -1.6968
  162MOL   H14139103   5.446   5.760   4.178 -0.2202 -0.1920  0.7688
  162MOL   H14239104   5.746   5.814   4.044  0.4770 -0.2803 -2.3656
  162MOL   H14339105   5.700   5.660   3.966 -1.4914 -0.4024 -0.6357
  162MOL   H14439106   5.665   5.691   4.132  0.6095  1.3920  1.3933
  162MOL   H14539107   5.294   5.689   3.799 -1.6821  1.6644 -0.8614
  162MOL   C14639108   5.565   5.927   3.894  0.6728 -0.0172 -0.4713
  162MOL   C14739109   5.660   5.915   3.774 -0.3114  0.3939  0.3241
  162MOL   C14839110   5.630   6.039   3.681  0.5893  0.2157 -0.5366
  162MOL   C14939111   5.812   5.928   3.819  0.4367  0.9603 -0.5045
  162MOL   O15039112   5.884   5.832   3.812 -0.5935  0.1034  0.3791
  162MOL   O15139113   5.837   6.048   3.874  0.0724  0.1616  0.5541
  162MOL   H15239114   5.472   5.966   3.853  0.2521  0.4943  0.9371
  162MOL   H15339115   5.594   6.014   3.954 -3.9577  0.1254  1.7669
  162MOL   H15439116   5.710   6.081   3.621  0.2997  1.0789 -0.3259
  162MOL   H15539117   5.599   6.121   3.746  0.3463 -1.4772  1.5617
  162MOL   H15639118   5.547   6.028   3.611 -0.7635 -2.3016  1.3542
  162MOL   H15739119   5.927   6.049   3.902  0.0612 -2.9819  0.8752
  162MOL   C15839120   5.631   5.785   3.689  0.4422 -0.2302 -0.3140
  162MOL   C15939121   5.689   5.749   3.550  0.0194 -0.2532 -0.2230
  162MOL   C16039122   5.787   5.858   3.491  0.1610  0.0204 -0.2618
  162MOL   C16139123   5.763   5.616   3.570 -0.0434 -0.2495  0.6965
  162MOL   O16239124   5.713   5.504   3.562  0.0461 -0.2420 -0.1710
  162MOL   O16339125   5.892   5.633   3.599 -0.4450  0.0943 -0.3497
  162MOL   H16439126   5.633   5.700   3.756  1.0554  1.8774  2.4514
  162MOL   H16539127   5.523   5.791   3.677  0.4386 -0.8816 -0.6094
  162MOL   H16639128   5.848   5.813   3.413  2.1939  1.7252  0.2919
  162MOL   H16739129   5.861   5.889   3.564  0.0152  3.0652 -1.3443
  162MOL   H16839130   5.734   5.944   3.451 -0.2209 -0.0504  0.0849
  162MOL   H16939131   5.932   5.549   3.612 -0.5018  0.3065  1.2459
  162MOL   C17039132   5.565   5.749   3.455  0.2935  0.2616  0.1707
  162MOL   C17139133   5.573   5.730   3.298  0.0518  0.1785 -0.8320
  162MOL   C17239134   5.635   5.852   3.228  1.0850  0.0375 -0.0273
  162MOL   C17339135   5.663   5.615   3.263 -0.0134  0.0196  0.1198
  162MOL   O17439136   5.772   5.637   3.200 -0.3565 -0.4174  0.1170
  162MOL   O17539137   5.620   5.492   3.297  0.5958 -0.3568  0.9128
  162MOL   H17639138   5.506   5.665   3.492  0.5335  0.4417  0.9741
  162MOL   H17739139   5.516   5.845   3.474 -1.1354 -0.6346  1.1664
  162MOL   H17839140   5.599   5.948   3.265 -0.4378 -0.1952 -0.8368
  162MOL   H17939141   5.606   5.839   3.124 -2.3928 -0.7243  0.9634
  162MOL   H18039142   5.743   5.860   3.233  1.2088 -2.2454  1.4781
  162MOL   H18139143   5.692   5.438   3.270  1.2217  0.6528  0.5096
  162MOL   C18239144   5.436   5.704   3.234  0.4097  0.3377 -0.2559
  162MOL   C18339145   5.316   5.804   3.218 -0.3291  0.2007 -0.0669
  162MOL   C18439146   5.194   5.710   3.197  0.2109  0.0577 -0.1700
  162MOL   C18539147   5.292   5.889   3.349  0.2068  0.1531 -0.3328
  162MOL   O18639148   5.332   6.006   3.362 -0.0369 -0.0983  0.2738
  162MOL   O18739149   5.224   5.828   3.445  0.4622  0.0197 -0.0247
  162MOL   H18839150   5.445   5.672   3.130 -0.3692  0.8895 -0.5018
  162MOL   H18939151   5.403   5.612   3.281  1.2504 -0.5233 -1.3431
  162MOL   H19039152   5.101   5.752   3.235 -2.2404 -4.1085 -1.3073
  162MOL   H19139153   5.195   5.619   3.257 -0.7495 -0.0878 -0.3794
  162MOL   H19239154   5.172   5.681   3.094 -0.5181 -2.7463  0.7207
  162MOL   H19339155   5.206   5.896   3.509  0.0582  1.1710 -1.3278
  162MOL   C19439156   5.328   5.889   3.090  0.3124 -0.4932 -0.1833
  162MOL   C19539157   5.216   5.990   3.032 -0.1719 -0.1016 -0.2076
  162MOL   C19639158   5.217   5.975   2.880 -0.7066  0.0610 -0.4933
  162MOL   C19739159   5.074   5.955   3.068  0.1255 -0.5503 -0.3826
  162MOL   O19839160   5.021   6.005   3.164  0.2879 -0.6891 -0.1991
  162MOL   O19939161   5.005   5.879   2.983  0.5169  0.4097 -0.4724
  162MOL   H20039162   5.416   5.951   3.107  0.3469 -1.2621  2.6553
  162MOL   H20139163   5.367   5.825   3.011  0.8121  0.7554 -0.9734
  162MOL   H20239164   5.142   6.034   2.827  0.0047  1.8280  0.4243
  162MOL   H20339165   5.208   5.872   2.845 -2.7673  0.3922 -0.9804
  162MOL   H20439166   5.312   6.005   2.837 -0.0125 -0.4136  0.6758
  162MOL   H20539167   4.921   5.865   3.025  1.3825 -3.7442  0.0770
  162MOL   C20639168   5.247   6.139   3.071 -0.8315 -0.1258 -0.3997
  162MOL   C20739169   5.188   6.275   3.009  0.9349 -0.1934 -0.3948
  162MOL   C20839170   5.243   6.376   3.117 -0.1686  0.1696  0.2029
  162MOL   C20939171   5.256   6.305   2.870 -0.3610  0.4422 -0.6453
  162MOL   O21039172   5.199   6.309   2.765  0.3167  0.4787 -0.6227
  162MOL   O21139173   5.393   6.329   2.877  0.3769 -0.5251 -0.1155
  162MOL   H21239174   5.221   6.144   3.177 -1.5853 -1.5535 -0.4991
  162MOL   H21339175   5.353   6.155   3.051 -0.2403 -1.4045  1.4785
  162MOL   H21439176   5.224   6.477   3.081 -0.0959 -0.2090 -0.9392
  162MOL   H21539177   5.352   6.366   3.116 -0.2165 -0.8307  2.9297
  162MOL   H21639178   5.201   6.360   3.216  1.4977 -2.0741  0.5838
  162MOL   H21739179   5.416   6.358   2.790 -2.9456 -0.7840 -1.1294
  162MOL   C21839180   5.032   6.274   2.995 -0.5207 -0.4725  0.6028
  162MOL   C21939181   4.953   6.405   2.999  0.4605  0.5090  0.2871
  162MOL   C22039182   4.943   6.463   3.146  0.2620  0.0556  0.1327
  162MOL   C22139183   4.981   6.521   2.904  0.7567 -0.2068  0.0706
  162MOL   O22239184   5.009   6.633   2.941 -0.0273  0.1370 -0.1385
  162MOL   O22339185   4.977   6.477   2.782  0.3485 -0.0259  0.1336
  162MOL   H22439186   5.003   6.221   2.905 -0.3972  2.6621 -1.3588
  162MOL   H22539187   4.999   6.219   3.083  2.3869 -3.7850 -0.2687
  162MOL   H22639188   5.030   6.524   3.171  0.9586  0.2514 -2.6042
  162MOL   H22739189   4.931   6.380   3.215 -1.7517  1.5634  1.6613
  162MOL   H22839190   4.862   6.535   3.150  0.0533 -0.0688 -1.3795
  162MOL   H22939191   5.000   6.551   2.727  3.0492  2.0589  3.8240
  162MOL   C23039192   4.803   6.356   2.985  0.2246  0.1348  0.4845
  162MOL   C23139193   4.759   6.297   2.848 -0.1973  0.3908 -0.6855
  162MOL   C23239194   4.697   6.160   2.878 -0.3718  0.6057 -0.0385
  162MOL   C23339195   4.671   6.382   2.753 -0.5679 -0.1558 -0.0551
  162MOL   O23439196   4.603   6.475   2.798  0.4384 -0.2656  0.1489
  162MOL   O23539197   4.683   6.335   2.625 -0.1464 -0.3876  0.5032
  162MOL   H23639198   4.772   6.290   3.066 -0.3703 -1.3799 -0.9451
  162MOL   H23739199   4.734   6.436   3.009 -1.2652 -1.2555  0.9694
  162MOL   H23839200   4.761   6.102   2.944 -0.7552  1.2481  0.9033
  162MOL   H23939201   4.669   6.096   2.794  0.0567  0.9217 -0.4217
  162MOL   H24039202   4.602   6.173   2.930 -0.3484 -1.2336  0.5028
  162MOL   H24139203   4.721   6.249   2.632  1.9472  0.3503 -1.2237
  162MOL   H24239204   4.844   6.269   2.785  0.7006  1.1352  0.1776
  163MOL     C139205   4.499   1.553   1.981  0.3941  0.4145  0.3928
  163MOL     C239206   4.470   1.637   2.106 -0.6583  0.6964  0.5433
  163MOL     C339207   4.523   1.557   2.230 -0.1560  0.1239  0.4683
  163MOL     C439208   4.547   1.766   2.117 -0.1258  0.0172  0.1341
  163MOL     O539209   4.549   1.832   2.221 -0.2317 -0.1253 -0.2978
  163MOL     O639210   4.607   1.812   2.004  0.1036 -0.0293  0.5206
  163MOL     H739211   4.459   1.594   1.889 -0.9812 -1.0419  0.3159
  163MOL     H839212   4.459   1.452   1.988  1.4596  0.0501  1.5805
  163MOL     H939213   4.504   1.597   2.330 -1.1803 -0.6460  0.5873
  163MOL    H1039214   4.627   1.534   2.206 -0.2826 -2.2000  2.0086
  163MOL    H1139215   4.478   1.458   2.235  1.7225 -0.8452 -1.2747
  163MOL    H1239216   4.664   1.887   2.018  1.1449 -0.8519  0.7650
  163MOL    H1339217   4.606   1.533   1.973  0.5712  0.9640  1.3459
  163MOL    C1439218   4.320   1.663   2.132 -0.2954  0.0589  0.1453
  163MOL    C1539219   4.227   1.734   2.026 -0.6629 -0.0445  0.5292
  163MOL    C1639220   4.295   1.862   1.959 -0.1722 -0.4490  0.7077
  163MOL    C1739221   4.187   1.647   1.908  0.8973  0.5385 -0.7695
  163MOL    O1839222   4.219   1.528   1.908 -0.8242  0.7129 -0.1599
  163MOL    O1939223   4.130   1.717   1.803 -0.0514  0.4408 -0.2184
  163MOL    H2039224   4.277   1.571   2.170 -1.2278  0.4255 -0.0200
  163MOL    H2139225   4.322   1.724   2.222  1.9142  0.5410 -0.1868
  163MOL    H2239226   4.221   1.918   1.901  2.0024 -0.1767 -1.9102
  163MOL    H2339227   4.365   1.835   1.881  0.4711 -0.3185  1.2390
  163MOL    H2439228   4.355   1.933   2.017  1.6791 -1.8743  0.5663
  163MOL    H2539229   4.122   1.673   1.719 -2.6698 -0.7659  0.6004
  163MOL    C2639230   4.104   1.801   2.104  0.2039  0.6092 -0.2457
  163MOL    C2739231   4.011   1.728   2.207 -0.0151  0.4697 -0.1094
  163MOL    C2839232   3.963   1.596   2.150 -0.2127  0.5182  0.7686
  163MOL    C2939233   4.094   1.706   2.337 -0.1401 -0.0725 -0.7019
  163MOL    O3039234   4.125   1.597   2.382  0.2584 -0.1433 -0.2320
  163MOL    O3139235   4.140   1.826   2.387  0.3911 -0.3869 -0.2689
  163MOL    H3239236   4.124   1.900   2.143 -1.8248  1.2696 -0.8538
  163MOL    H3339237   4.037   1.827   2.023  1.9676  2.5904 -1.1132
  163MOL    H3439238   3.890   1.612   2.071 -0.8654 -1.0229  1.0401
  163MOL    H3539239   3.908   1.544   2.229 -1.0438 -0.7590 -0.6214
  163MOL    H3639240   4.052   1.537   2.128  1.4675  2.6765  1.5441
  163MOL    H3739241   4.223   1.804   2.427  0.0575  0.7678  1.1136
  163MOL    C3839242   3.885   1.825   2.231 -0.2770  0.2755  0.4125
  163MOL    C3939243   3.749   1.789   2.296  0.7565 -0.1354 -0.5368
  163MOL    C4039244   3.778   1.721   2.431  0.3422 -0.4690 -0.1397
  163MOL    C4139245   3.675   1.923   2.329  0.2217  0.3612 -0.7507
  163MOL    O4239246   3.663   1.969   2.442  0.4249 -0.3290  0.5699
  163MOL    O4339247   3.635   1.985   2.215  0.5582 -0.3690 -0.6149
  163MOL    H4439248   3.936   1.903   2.288  0.8095 -0.5144  0.5366
  163MOL    H4539249   3.870   1.880   2.137  2.1415  0.3858  0.0659
  163MOL    H4639250   3.799   1.614   2.423  3.0212  0.1275 -1.7792
  163MOL    H4739251   3.694   1.721   2.501 -2.0297 -0.9624 -2.8711
  163MOL    H4839252   3.859   1.772   2.484 -0.0901 -2.1816  2.2527
  163MOL    H4939253   3.576   2.058   2.225 -0.2725 -1.2323  0.9891
  163MOL    C5039254   3.661   1.699   2.192 -0.1899  0.0224 -0.2471
  163MOL    C5139255   3.508   1.653   2.205 -0.0974  0.8826 -0.5088
  163MOL    C5239256   3.501   1.534   2.103  0.3814  0.0054  0.5713
  163MOL    C5339257   3.472   1.611   2.352 -0.0218  0.4592  0.2410
  163MOL    O5439258   3.474   1.491   2.388  0.2702 -0.0281 -0.2905
  163MOL    O5539259   3.441   1.719   2.427  0.1504  0.0446  0.1823
  163MOL    H5639260   3.670   1.739   2.091 -1.3842  1.3855  0.1757
  163MOL    H5739261   3.725   1.611   2.189  2.7564  2.1202 -0.6387
  163MOL    H5839262   3.590   1.470   2.100 -1.1916 -2.3767  2.3815
  163MOL    H5939263   3.492   1.562   1.998 -1.1710 -0.6791  0.5161
  163MOL    H6039264   3.426   1.460   2.131 -1.4142  0.7016 -2.1518
  163MOL    H6139265   3.403   1.694   2.510  2.5815  2.4040  2.1052
  163MOL    C6239266   3.417   1.769   2.146 -0.3275  0.0291 -0.1092
  163MOL    C6339267   3.255   1.767   2.147  0.5483  0.0819  0.2542
  163MOL    C6439268   3.206   1.626   2.159 -0.0924  0.3272  0.8297
  163MOL    C6539269   3.202   1.858   2.258  0.0423 -0.0049 -0.8185
  163MOL    O6639270   3.118   1.825   2.344  0.3823 -0.5463  0.0800
  163MOL    O6739271   3.256   1.983   2.255  0.0250 -0.0736  0.2281
  163MOL    H6839272   3.440   1.858   2.204  4.7556 -0.5228 -1.0871
  163MOL    H6939273   3.456   1.799   2.049 -1.6611  1.3105 -0.2661
  163MOL    H7039274   3.097   1.623   2.164 -0.0449 -2.7636  1.0846
  163MOL    H7139275   3.237   1.583   2.254 -3.0245  1.0047  2.1389
  163MOL    H7239276   3.234   1.558   2.078  1.4986 -0.7800  2.2788
  163MOL    H7339277   3.224   2.035   2.326 -1.2190  1.8485 -1.6691
  163MOL    C7439278   3.202   1.819   2.012 -0.2923 -0.2039 -0.1557
  163MOL    C7539279   3.051   1.859   1.977  0.2664  0.2926 -0.4407
  163MOL    C7639280   2.943   1.759   2.036 -1.7200 -0.7287  0.4053
  163MOL    C7739281   3.031   1.993   2.039  0.1581  0.6336 -0.3843
  163MOL    O7839282   2.947   2.016   2.121  0.0553  0.3337 -0.1520
  163MOL    O7939283   3.109   2.093   1.991  0.6596  0.0233 -0.3005
  163MOL    H8039284   3.269   1.901   1.986 -0.6226  0.8118  2.0268
  163MOL    H8139285   3.240   1.749   1.938 -0.7325 -1.8581  1.1473
  163MOL    H8239286   2.837   1.768   2.009 -1.7504 -2.1709  0.0357
  163MOL    H8339287   2.947   1.753   2.145  0.0033  1.1578  0.4705
  163MOL    H8439288   2.969   1.662   1.995 -0.5280 -0.2361 -0.0214
  163MOL    H8539289   3.091   2.172   2.040  0.0121 -0.8559  0.9073
  163MOL    C8639290   3.039   1.890   1.824  0.0227  0.7935 -0.4540
  163MOL    C8739291   3.020   1.779   1.707  0.4454 -0.3160 -0.1842
  163MOL    C8839292   3.120   1.657   1.732  0.4693  0.1030 -0.1060
  163MOL    C8939293   2.878   1.718   1.704  0.0930 -0.0941  0.0495
  163MOL    O9039294   2.786   1.760   1.768  0.1098  0.1690 -0.0870
  163MOL    O9139295   2.865   1.608   1.626  0.6531  0.3001 -0.2243
  163MOL    H9239296   2.947   1.946   1.808  0.0866  0.3491 -2.5100
  163MOL    H9339297   3.116   1.961   1.792 -0.6703  0.9148 -1.8491
  163MOL    H9439298   3.225   1.682   1.746  1.2188 -1.6451 -2.2173
  163MOL    H9539299   3.117   1.592   1.644 -0.8461 -2.4844  1.7971
  163MOL    H9639300   3.099   1.597   1.820  2.1889 -0.4080 -0.0278
  163MOL    H9739301   2.773   1.585   1.627  0.8534 -0.5329  1.0967
  163MOL    C9839302   3.064   1.835   1.569 -0.0673 -0.2140  0.0937
  163MOL    C9939303   2.977   1.935   1.483 -0.0539  0.0356 -0.4284
  163MOL   C10039304   2.917   2.044   1.577  0.3057 -0.3829 -0.4069
  163MOL   C10139305   3.075   2.013   1.388 -0.3458 -0.1880  0.1068
  163MOL   O10239306   3.043   2.120   1.337 -0.2293  0.4499 -0.1701
  163MOL   O10339307   3.185   1.935   1.357  0.9539  0.1818  0.4733
  163MOL   H10439308   3.164   1.877   1.584  0.2585 -1.1236  0.5021
  163MOL   H10539309   3.074   1.756   1.494  0.4776  1.4627 -1.6407
  163MOL   H10639310   2.840   1.998   1.639 -0.7901  0.9123 -0.7839
  163MOL   H10739311   2.866   2.120   1.517 -0.9377 -0.6414  0.3138
  163MOL   H10839312   2.990   2.094   1.642 -1.3643  0.3555  0.9371
  163MOL   H10939313   3.222   1.988   1.288  0.4544  0.4022  0.3645
  163MOL   C11039314   2.872   1.853   1.397  0.4019  0.1054 -0.3904
  163MOL   C11139315   2.781   1.911   1.275  0.6083  0.5274  0.2241
  163MOL   C11239316   2.714   2.037   1.326  0.4142 -0.4310  0.3320
  163MOL   C11339317   2.870   1.943   1.152  0.1633  1.2942  0.2231
  163MOL   O11439318   2.972   1.891   1.112 -0.1354 -0.6513  0.2129
  163MOL   O11539319   2.823   2.044   1.079 -0.1803 -0.1907 -0.1406
  163MOL   H11639320   2.921   1.758   1.374 -0.4374 -1.0654  2.4368
  163MOL   H11739321   2.796   1.828   1.472  0.8741  0.0181  0.0607
  163MOL   H11839322   2.651   2.075   1.246 -0.2978 -0.8397  0.6884
  163MOL   H11939323   2.784   2.120   1.338 -0.1031  0.1397 -0.5837
  163MOL   H12039324   2.657   2.043   1.419 -0.8883 -1.8042 -0.3650
  163MOL   H12139325   2.876   2.063   1.004 -1.0431  0.0140 -0.7135
  163MOL   C12239326   2.669   1.815   1.224  0.7959  0.0380  0.3288
  163MOL   C12339327   2.683   1.659   1.212  0.3099 -0.2506 -0.8518
  163MOL   C12439328   2.803   1.624   1.131  0.1805 -0.4352 -0.4394
  163MOL   C12539329   2.675   1.601   1.354  0.8049 -1.2067 -0.0692
  163MOL   O12639330   2.599   1.640   1.446  0.1924 -0.3769 -0.3319
  163MOL   O12739331   2.745   1.490   1.372 -0.4718  0.0576 -0.3240
  163MOL   H12839332   2.582   1.832   1.287  1.1381 -0.7282  1.0166
  163MOL   H12939333   2.635   1.860   1.131 -2.6300 -1.2336  0.8944
  163MOL   H13039334   2.805   1.681   1.038  0.3587 -0.8708 -0.7071
  163MOL   H13139335   2.800   1.519   1.100 -2.5966 -0.1450 -1.3018
  163MOL   H13239336   2.896   1.640   1.186  0.3776 -1.6635 -0.3948
  163MOL   H13339337   2.810   1.488   1.304  0.8591  3.0553  0.7729
  163MOL   C13439338   2.552   1.613   1.136  0.3723  0.2468  0.7508
  163MOL   C13539339   2.527   1.473   1.065 -0.5097 -0.2427 -0.5878
  163MOL   C13639340   2.375   1.441   1.047 -0.2215  0.4900 -0.3682
  163MOL   C13739341   2.591   1.489   0.925 -0.7395  0.3688  0.5293
  163MOL   O13839342   2.704   1.449   0.898  0.0519  0.0970  0.8172
  163MOL   O13939343   2.510   1.550   0.832 -0.8804 -0.1509 -0.0306
  163MOL   H14039344   2.468   1.619   1.205 -0.1002  0.1503  0.1862
  163MOL   H14139345   2.532   1.691   1.063  2.1138 -0.2600 -0.3039
  163MOL   H14239346   2.328   1.428   1.145 -0.3637  0.1488 -0.4819
  163MOL   H14339347   2.363   1.360   0.976  1.1173  0.0125 -0.0633
  163MOL   H14439348   2.337   1.535   1.007  0.7309  0.8981 -0.3361
  163MOL   H14539349   2.540   1.556   0.743 -0.0502  3.0499  0.4015
  163MOL   C14639350   2.573   1.344   1.144 -0.5941 -0.6745 -0.5765
  163MOL   C14739351   2.541   1.187   1.117  0.2085  0.0835 -0.2999
  163MOL   C14839352   2.398   1.158   1.165 -0.5541 -0.3492 -0.1362
  163MOL   C14939353   2.541   1.151   0.964  0.0351 -0.4672 -0.7374
  163MOL   O15039354   2.443   1.097   0.906  0.1771  0.0242  0.1070
  163MOL   O15139355   2.660   1.181   0.904  0.4064  0.1151  0.0491
  163MOL   H15239356   2.681   1.358   1.144 -0.7447  0.5523 -1.3303
  163MOL   H15339357   2.553   1.374   1.247 -1.0284  4.6582 -2.0386
  163MOL   H15439358   2.372   1.052   1.163  2.3603 -1.0692 -1.6963
  163MOL   H15539359   2.322   1.211   1.106 -0.2673 -0.8921 -1.0015
  163MOL   H15639360   2.391   1.192   1.269 -1.5352 -0.8845 -0.0186
  163MOL   H15739361   2.720   1.228   0.960  0.9229 -1.1178  0.5475
  163MOL   C15839362   2.657   1.102   1.182 -0.2624  0.4371 -0.0798
  163MOL   C15939363   2.659   1.054   1.333 -0.8799 -0.1418 -0.0517
  163MOL   C16039364   2.643   1.184   1.423 -0.3241  0.2202  0.1336
  163MOL   C16139365   2.535   0.960   1.365 -0.0112  0.9123  0.3431
  163MOL   O16239366   2.461   0.982   1.464  0.0882  0.3193  0.0184
  163MOL   O16339367   2.513   0.861   1.274 -0.4757 -0.4375 -0.3046
  163MOL   H16439368   2.665   1.013   1.120 -2.1000  0.2690 -0.0930
  163MOL   H16539369   2.751   1.150   1.157 -0.3535 -0.0018 -1.2906
  163MOL   H16639370   2.723   1.253   1.397 -0.9333  0.6636 -0.5864
  163MOL   H16739371   2.653   1.171   1.531 -2.5985 -0.8630  0.2485
  163MOL   H16839372   2.543   1.223   1.406  0.7797  3.6150  0.9184
  163MOL   H16939373   2.457   0.799   1.317  1.6901 -1.5281  1.0489
  163MOL   C17039374   2.796   0.996   1.379  0.3709 -0.2334  0.1062
  163MOL   C17139375   2.862   0.856   1.345  0.4896 -0.5392  0.2388
  163MOL   C17239376   2.784   0.739   1.411 -0.0385  0.0784 -0.2623
  163MOL   C17339377   2.855   0.830   1.193  0.3959  0.2073  0.9640
  163MOL   O17439378   2.791   0.742   1.140  0.2579  0.1648  0.5075
  163MOL   O17539379   2.940   0.913   1.124 -0.5079 -0.4505  0.6661
  163MOL   H17639380   2.864   1.077   1.351  1.2037 -0.0327  2.5669
  163MOL   H17739381   2.792   1.002   1.488  0.8450  2.2210  0.0256
  163MOL   H17839382   2.824   0.640   1.389  0.7254 -0.2339  2.3351
  163MOL   H17939383   2.676   0.736   1.398 -0.5855  2.5159  3.0720
  163MOL   H18039384   2.796   0.751   1.518 -4.4025  0.6540  0.2523
  163MOL   H18139385   2.959   0.891   1.034  1.8544  0.9456  0.7656
  163MOL   C18239386   3.011   0.869   1.393  0.2911 -0.1731 -0.7509
  163MOL   C18339387   3.105   0.749   1.413  0.5940  0.2038 -0.5099
  163MOL   C18439388   3.083   0.682   1.553  0.0081 -0.0507  0.0074
  163MOL   C18539389   3.090   0.646   1.297  0.2363  0.2739 -0.6230
  163MOL   O18639390   3.062   0.527   1.320  0.3584 -1.0913  0.1779
  163MOL   O18739391   3.118   0.693   1.171  0.3015  0.3762  0.1754
  163MOL   H18839392   3.055   0.938   1.321 -0.0885  2.0096  1.0568
  163MOL   H18939393   3.021   0.934   1.480 -0.4415  1.0506 -1.5736
  163MOL   H19039394   3.153   0.602   1.576 -1.3501 -0.6517  2.1227
  163MOL   H19139395   2.989   0.626   1.551  0.8299 -1.4189 -2.2396
  163MOL   H19239396   3.088   0.755   1.634  0.1651 -0.2888  0.2133
  163MOL   H19339397   3.085   0.627   1.112  1.5798 -1.9091  1.8960
  163MOL   C19439398   3.256   0.808   1.409 -0.2197 -0.6050 -0.1284
  163MOL   C19539399   3.390   0.738   1.445  0.1415 -1.0518  0.1672
  163MOL   C19639400   3.419   0.750   1.598 -0.0683  0.4717  0.0389
  163MOL   C19739401   3.387   0.593   1.410  0.2249  1.2212 -0.0292
  163MOL   O19839402   3.362   0.505   1.490 -0.3977  0.4616  0.1932
  163MOL   O19939403   3.391   0.572   1.274  0.2521  0.0673  0.1499
  163MOL   H20039404   3.255   0.834   1.303  2.1276  0.2994  0.0440
  163MOL   H20139405   3.253   0.899   1.469 -0.5478 -0.2741 -0.6307
  163MOL   H20239406   3.499   0.680   1.622  0.7197  1.0377 -0.9010
  163MOL   H20339407   3.328   0.718   1.649 -0.5981 -0.2169 -1.3185
  163MOL   H20439408   3.442   0.854   1.621  1.4335  0.2913 -0.5849
  163MOL   H20539409   3.384   0.479   1.255 -1.7144  0.3553 -0.7184
  163MOL   C20639410   3.503   0.819   1.359 -0.1560 -0.4137 -0.0835
  163MOL   C20739411   3.661   0.787   1.353 -0.1395  0.3091 -0.1717
  163MOL   C20839412   3.690   0.640   1.337  0.3796  0.7906  0.3119
  163MOL   C20939413   3.713   0.860   1.231  0.0955 -0.2065  0.5501
  163MOL   O21039414   3.779   0.807   1.137  0.2696  0.2478  0.4999
  163MOL   O21139415   3.675   0.989   1.233  0.4381  0.0019 -0.0862
  163MOL   H21239416   3.462   0.807   1.259 -1.4714  0.8899  0.2675
  163MOL   H21339417   3.491   0.925   1.382  1.7215 -0.3018  0.4492
  163MOL   H21439418   3.794   0.618   1.312  1.3835  3.9506  1.4925
  163MOL   H21539419   3.645   0.591   1.251 -1.7084  1.9366  0.7323
  163MOL   H21639420   3.678   0.575   1.424  2.0654  0.8902  0.6289
  163MOL   H21739421   3.734   1.031   1.173  2.2355  0.9849  2.2933
  163MOL   C21839422   3.732   0.848   1.483  0.2502  0.7446  0.3770
  163MOL   C21939423   3.893   0.861   1.502 -0.0404  0.3249 -0.1465
  163MOL   C22039424   3.939   1.001   1.450 -0.5204 -0.5506 -0.1224
  163MOL   C22139425   3.913   0.849   1.656 -0.0605 -0.2984  0.8908
  163MOL   O22239426   3.950   0.948   1.724 -0.8917  0.2790 -0.2405
  163MOL   O22339427   3.906   0.724   1.698 -0.4970  0.0048 -0.1686
  163MOL   H22439428   3.697   0.950   1.496 -1.5270  0.1704  0.2579
  163MOL   H22539429   3.687   0.804   1.572  1.4325  1.0966  1.1522
  163MOL   H22639430   3.895   1.076   1.515 -0.4795 -0.4385 -0.2227
  163MOL   H22739431   3.911   1.016   1.345  0.1012  0.1957 -0.1878
  163MOL   H22839432   4.047   1.000   1.465 -0.3799 -0.4028 -1.0687
  163MOL   H22939433   3.936   0.723   1.787  1.6069 -2.3855 -0.8452
  163MOL   C23039434   3.984   0.750   1.434 -0.0218 -0.0167 -0.1393
  163MOL   C23139435   4.143   0.758   1.462 -0.5473 -0.4645 -0.0445
  163MOL   C23239436   4.202   0.632   1.536 -0.1573  0.4535  0.1938
  163MOL   C23339437   4.224   0.785   1.338  0.1342 -1.0946 -0.1896
  163MOL   O23439438   4.171   0.854   1.252  0.3125  0.1088  0.1347
  163MOL   O23539439   4.356   0.754   1.348  0.0444  0.1702  0.5971
  163MOL   H23639440   3.941   0.653   1.459 -0.2394  0.0562 -0.2354
  163MOL   H23739441   3.964   0.759   1.328 -1.2499 -0.8338  0.0162
  163MOL   H23839442   4.150   0.636   1.632 -0.0518 -0.5113  0.2921
  163MOL   H23939443   4.309   0.641   1.555  0.0854 -1.5199 -0.1152
  163MOL   H24039444   4.175   0.541   1.483 -1.5774  0.6396  0.5683
  163MOL   H24139445   4.400   0.780   1.269 -2.3030  1.1183 -0.4697
  163MOL   H24239446   4.151   0.845   1.526 -0.7007  0.4778 -1.2834
  164MOL     C139447   1.381   1.278   7.709  0.3820 -0.4851  0.6261
  164MOL     C239448   1.470   1.397   7.758 -0.8017  0.1933  0.6451
  164MOL     C339449   1.510   1.474   7.631 -0.1846 -0.8435  0.8979
  164MOL     C439450   1.379   1.501   0.075  0.3670 -0.4324  0.4023
  164MOL     O539451   1.276   1.465   0.139 -0.0632  0.6318 -0.1692
  164MOL     O639452   1.443   1.625   0.083 -0.4390  0.4853 -0.1515
  164MOL     H739453   1.425   1.220   7.628 -0.1844  0.8885 -0.7015
  164MOL     H839454   1.293   1.319   7.659 -0.1144 -1.0531  1.0274
  164MOL     H939455   1.598   1.538   7.639 -0.4754  0.4352 -4.1345
  164MOL    H1039456   1.428   1.543   7.608  1.3454  0.3825 -1.0244
  164MOL    H1139457   1.528   1.411   7.544 -0.2392  2.0586 -1.3081
  164MOL    H1239458   1.410   1.681   0.151  0.5892  0.2104  0.5899
  164MOL    H1339459   1.334   1.211   0.013  1.4494 -0.8022  1.0358
  164MOL    C1439460   1.608   1.355   0.058 -0.5709 -0.3427 -0.1194
  164MOL    C1539461   1.633   1.220   0.149  0.3638  0.7420 -0.3746
  164MOL    C1639462   1.640   1.099   0.053  0.5121  0.4108  0.0045
  164MOL    C1739463   1.773   1.228   0.211 -0.4472  0.2985 -0.7187
  164MOL    O1839464   1.850   1.324   0.198 -0.2741  0.1680 -0.1689
  164MOL    O1939465   1.808   1.110   0.270 -0.3929  0.4463 -0.2034
  164MOL    H2039466   1.677   1.340   7.743 -2.1427  0.4812 -1.6181
  164MOL    H2139467   1.659   1.447   0.088  0.8958 -1.0421 -0.4395
  164MOL    H2239468   1.740   1.064   0.026  0.3555 -0.9367  1.1359
  164MOL    H2339469   1.580   1.128   7.734 -0.6065  1.2940  1.0740
  164MOL    H2439470   1.591   1.008   0.089 -0.0741  0.8505  0.3211
  164MOL    H2539471   1.902   1.118   0.278 -0.1991 -1.2864 -0.5109
  164MOL    C2639472   1.513   1.207   0.255  0.4260  0.2054 -0.1967
  164MOL    C2739473   1.515   1.287   0.401  0.4298 -0.2475 -0.4201
  164MOL    C2839474   1.578   1.421   0.382  0.3615 -0.8204 -0.0975
  164MOL    C2939475   1.364   1.309   0.434 -0.0209  0.5117 -0.7861
  164MOL    O3039476   1.306   1.414   0.451  0.0030  0.3186  0.6050
  164MOL    O3139477   1.298   1.193   0.443  0.1178  0.2922 -0.4133
  164MOL    H3239478   1.414   1.229   0.214 -0.5000 -1.3521  1.1428
  164MOL    H3339479   1.499   1.101   0.277 -1.5525  0.1831 -1.4973
  164MOL    H3439480   1.534   1.463   0.291 -0.6242  1.1975  1.2613
  164MOL    H3539481   1.686   1.429   0.380  0.3458 -0.6342 -0.2495
  164MOL    H3639482   1.553   1.491   0.462  0.9822  0.3250 -0.8865
  164MOL    H3739483   1.209   1.198   0.474  1.4170  1.2005  3.5554
  164MOL    C3839484   1.577   1.189   0.505  0.0028  0.0100  0.3473
  164MOL    C3939485   1.572   1.204   0.664 -0.8093  0.1091 -1.5205
  164MOL    C4039486   1.699   1.125   0.720  0.0024 -0.3789  0.2098
  164MOL    C4139487   1.589   1.350   0.700  0.1925  0.7370  0.2996
  164MOL    O4239488   1.495   1.422   0.728 -0.0906 -0.0003  0.2361
  164MOL    O4339489   1.715   1.399   0.687 -0.2114  0.0603 -0.5928
  164MOL    H4439490   1.544   1.086   0.490 -0.6196  0.3313 -0.4946
  164MOL    H4539491   1.683   1.183   0.479  0.0136 -0.1200  0.4181
  164MOL    H4639492   1.690   1.022   0.686 -1.2904 -0.5344  1.0165
  164MOL    H4739493   1.717   1.129   0.827  0.2847  0.4892  0.1331
  164MOL    H4839494   1.795   1.160   0.682  1.2193 -0.0388  3.4695
  164MOL    H4939495   1.709   1.489   0.715 -0.2968 -0.0286 -0.3203
  164MOL    C5039496   1.434   1.161   0.740  0.6882  0.4033 -0.3225
  164MOL    C5139497   1.388   1.018   0.771 -0.4983 -0.0371 -0.3514
  164MOL    C5239498   1.365   0.946   0.643  0.6509 -0.1574  0.0310
  164MOL    C5339499   1.490   0.939   0.846 -1.1802  0.2267 -1.0074
  164MOL    O5439500   1.530   0.827   0.803 -0.0906 -0.1830 -0.5958
  164MOL    O5539501   1.534   0.993   0.964  0.0236  0.4109  0.1460
  164MOL    H5639502   1.425   1.216   0.834  2.0813  1.5335 -0.8116
  164MOL    H5739503   1.356   1.214   0.686  1.0971 -0.7422 -2.0749
  164MOL    H5839504   1.314   0.852   0.665 -2.8898  1.6782  0.0491
  164MOL    H5939505   1.455   0.922   0.586  1.0708  0.7380  0.3003
  164MOL    H6039506   1.296   1.006   0.585 -0.5472 -3.1933 -1.8172
  164MOL    H6139507   1.601   0.939   1.004 -0.6286  0.2773  1.0816
  164MOL    C6239508   1.255   1.004   0.858  0.2018 -0.4331  0.2992
  164MOL    C6339509   1.120   1.078   0.831 -0.2305  0.5627 -0.2642
  164MOL    C6439510   1.139   1.228   0.873  0.3856 -0.0871  0.5357
  164MOL    C6539511   1.075   1.069   0.684 -0.2424  0.4724 -0.3298
  164MOL    O6639512   1.072   1.166   0.605 -0.0575 -0.2865  0.1965
  164MOL    O6739513   1.040   0.945   0.647  0.0930  0.5837  0.2839
  164MOL    H6839514   1.226   0.900   0.849  0.6768 -0.7636  2.4393
  164MOL    H6939515   1.276   1.014   0.965 -1.0520  1.4942  0.3946
  164MOL    H7039516   1.055   1.287   0.837 -1.3609 -2.5750  0.4357
  164MOL    H7139517   1.230   1.280   0.844  0.2943  0.2573  0.8583
  164MOL    H7239518   1.135   1.240   0.982  0.8900 -1.1493  0.6740
  164MOL    H7339519   0.996   0.957   0.564 -2.0445  1.7422  1.5375
  164MOL    C7439520   1.007   1.013   0.922 -0.1090  0.2025  0.5450
  164MOL    C7539521   0.862   1.062   0.946 -0.5679 -0.2890 -0.3730
  164MOL    C7639522   0.786   0.943   0.989 -0.0869 -0.4011  0.2827
  164MOL    C7739523   0.861   1.158   1.065 -0.0136  0.8275 -0.1456
  164MOL    O7839524   0.868   1.281   1.067  0.7059 -0.5044 -0.1022
  164MOL    O7939525   0.852   1.097   1.187 -0.0770 -0.1862  1.0198
  164MOL    H8039526   1.003   0.907   0.896 -1.8854 -0.0015  1.5839
  164MOL    H8139527   1.048   1.001   1.023  1.3970 -3.6831 -0.4344
  164MOL    H8239528   0.835   0.885   1.067 -1.2339  2.0720  2.9335
  164MOL    H8339529   0.751   0.872   0.913 -0.4960  0.2038 -0.0976
  164MOL    H8439530   0.689   0.965   1.035  0.3064  0.6734  0.6115
  164MOL    H8539531   0.840   1.159   1.258  0.8232  0.7203  0.3961
  164MOL    C8639532   0.803   1.124   0.815  0.2054  0.5182  0.0386
  164MOL    C8739533   0.651   1.144   0.777 -0.2513 -0.9362  0.3638
  164MOL    C8839534   0.579   1.206   0.902  0.3259  0.4339 -0.4147
  164MOL    C8939535   0.650   1.257   0.663  0.5400  0.0933  0.4166
  164MOL    O9039536   0.576   1.355   0.656  0.1555 -0.1274 -0.4040
  164MOL    O9139537   0.734   1.228   0.559 -0.4931 -0.2199 -0.4491
  164MOL    H9239538   0.844   1.224   0.805 -1.0777  1.0230 -0.2439
  164MOL    H9339539   0.841   1.063   0.733 -1.5255 -0.9622  0.3056
  164MOL    H9439540   0.559   1.122   0.970 -1.0960 -0.9099 -2.4417
  164MOL    H9539541   0.492   1.260   0.865  2.0457  0.9528 -3.8488
  164MOL    H9639542   0.641   1.275   0.959  0.9831 -2.1015  2.0937
  164MOL    H9739543   0.723   1.304   0.504 -1.7054 -0.1222 -0.0930
  164MOL    C9839544   0.592   1.009   0.714  0.1239  0.5402  0.4110
  164MOL    C9939545   0.447   0.986   0.659  0.3599 -0.2428  0.1892
  164MOL   C10039546   0.349   1.037   0.760 -0.4611  0.1352  0.5773
  164MOL   C10139547   0.411   1.052   0.525  0.2297 -0.3669  0.0968
  164MOL   O10239548   0.498   1.097   0.450  0.2530 -0.0014 -0.2198
  164MOL   O10339549   0.278   1.072   0.496 -0.0015 -0.6754 -0.0885
  164MOL   H10439550   0.663   0.980   0.636 -0.3766 -0.9130  0.4950
  164MOL   H10539551   0.598   0.936   0.794 -0.8388 -0.4074 -0.3685
  164MOL   H10639552   0.251   1.002   0.729  0.0872  0.2868 -1.4107
  164MOL   H10739553   0.338   1.145   0.755 -1.6071 -0.0466 -1.1540
  164MOL   H10839554   0.357   0.999   0.862  0.4411 -0.5352  0.2646
  164MOL   H10939555   0.266   1.111   0.411  1.0397  2.6599  1.2050
  164MOL   C11039556   0.395   0.831   0.650 -0.3209 -0.5804 -0.0586
  164MOL   C11139557   0.475   0.724   0.560 -0.0530  0.0452 -0.0988
  164MOL   C11239558   0.543   0.787   0.432 -0.5948  0.6681  0.0253
  164MOL   C11339559   0.585   0.688   0.658 -0.0890  0.3527 -0.7677
  164MOL   O11439560   0.707   0.714   0.647 -0.3683  0.2388  0.5059
  164MOL   O11539561   0.533   0.620   0.766 -0.1746  0.8088 -0.0331
  164MOL   H11639562   0.379   0.795   0.752 -0.8506 -2.0276 -0.6527
  164MOL   H11739563   0.298   0.830   0.601  0.7788 -0.8920 -2.2798
  164MOL   H11839564   0.611   0.869   0.456 -0.7715  0.8391 -0.0597
  164MOL   H11939565   0.468   0.828   0.364  0.0623  1.6541 -0.1142
  164MOL   H12039566   0.610   0.724   0.374  0.7080  1.6281  0.4628
  164MOL   H12139567   0.607   0.597   0.821  0.5929  0.3803 -1.2290
  164MOL   C12239568   0.366   0.615   0.515  0.4208  0.3062 -0.0183
  164MOL   C12339569   0.403   0.467   0.460 -0.6056  0.0990 -0.4874
  164MOL   C12439570   0.448   0.376   0.580 -0.0090 -0.7172  0.4812
  164MOL   C12539571   0.277   0.391   0.407 -0.1734 -0.2687 -0.0216
  164MOL   O12639572   0.162   0.443   0.397  0.8398 -0.2993 -0.6263
  164MOL   O12739573   0.307   0.271   0.361  0.3090  0.5378  0.1404
  164MOL   H12839574   0.301   0.607   0.602  1.4210  0.6048  0.7796
  164MOL   H12939575   0.294   0.664   0.450  1.1269  1.4470  0.0375
  164MOL   H13039576   0.549   0.402   0.612  0.6084 -0.1803 -1.8783
  164MOL   H13139577   0.449   0.267   0.569 -2.3878 -0.9924  2.4140
  164MOL   H13239578   0.387   0.387   0.670  0.2201  1.8062  0.3524
  164MOL   H13339579   0.398   0.250   0.374 -0.3241 -1.9022  0.9484
  164MOL   C13439580   0.499   0.480   0.335 -0.5679  0.1831  0.2682
  164MOL   C13539581   0.643   0.413   0.326  0.5028  0.6781 -0.5391
  164MOL   C13639582   0.743   0.472   0.428 -0.6252 -0.4102 -0.0663
  164MOL   C13739583   0.643   0.264   0.346 -0.0165 -0.4038 -0.9678
  164MOL   O13839584   0.542   0.195   0.337  0.3813  0.0734  0.1733
  164MOL   O13939585   0.767   0.215   0.359  0.1669  0.0475  0.2737
  164MOL   H14039586   0.447   0.430   0.253  1.0495 -1.6305  0.2995
  164MOL   H14139587   0.496   0.581   0.296  0.9310 -0.2807 -1.1127
  164MOL   H14239588   0.730   0.437   0.531  1.2492  0.7969  0.6083
  164MOL   H14339589   0.748   0.581   0.428 -1.4409 -0.3410  2.4246
  164MOL   H14439590   0.838   0.425   0.403 -0.3707  0.5459 -0.9156
  164MOL   H14539591   0.787   0.123   0.354 -1.0306 -0.2752  1.1986
  164MOL   C14639592   0.714   0.446   0.187  0.6389 -0.0729 -0.1534
  164MOL   C14739593   0.676   0.416   0.040  0.0847 -0.0329 -0.5004
  164MOL   C14839594   0.697   0.263   0.006  0.4835 -0.1472  0.0742
  164MOL   C14939595   0.533   0.471   0.011 -0.1285 -0.1647 -0.2038
  164MOL   O15039596   0.443   0.407   7.733 -0.1221  0.1461 -0.4218
  164MOL   O15139597   0.515   0.601   0.051 -0.4828 -0.4660 -0.2131
  164MOL   H15239598   0.744   0.551   0.192  0.9110 -0.1771  0.4535
  164MOL   H15339599   0.815   0.406   0.191  0.3957 -0.5545  5.9376
  164MOL   H15439600   0.648   0.248   7.676  1.3262 -1.1180 -0.2111
  164MOL   H15539601   0.645   0.201   0.079 -0.8633  1.4074  0.4646
  164MOL   H15639602   0.802   0.237   0.004  1.0310  1.8317  1.6305
  164MOL   H15739603   0.425   0.623   0.067 -0.2214  0.1732  0.4105
  164MOL   C15839604   0.781   0.494   7.717 -0.3825 -0.1169  0.5449
  164MOL   C15939605   0.796   0.505   7.556  0.4247  0.2409 -0.3344
  164MOL   C16039606   0.902   0.628   7.540 -0.2612 -0.7551 -0.0934
  164MOL   C16139607   0.867   0.385   7.498  0.3771  0.4893  0.0966
  164MOL   O16239608   0.986   0.374   7.470 -0.2540  0.1727 -0.0434
  164MOL   O16339609   0.781   0.284   7.487 -0.0483  0.0373 -0.1042
  164MOL   H16439610   0.775   0.599   7.747 -1.4591  0.1921 -0.6898
  164MOL   H16539611   0.880   0.463   7.750 -0.1003 -1.3298 -1.3977
  164MOL   H16639612   0.879   0.719   7.595 -1.3286 -0.3330 -1.2131
  164MOL   H16739613   0.937   0.647   7.439  0.7729 -0.8785  0.2340
  164MOL   H16839614   0.990   0.594   7.593 -0.5629  0.9401  1.5473
  164MOL   H16939615   0.836   0.212   7.461 -0.6761 -0.8368  0.9590
  164MOL   C17039616   0.656   0.531   7.481  0.0560 -0.3603  0.1957
  164MOL   C17139617   0.639   0.585   7.335  0.9422  0.5130  0.8250
  164MOL   C17239618   0.727   0.504   7.241 -0.2416 -0.0880  0.8390
  164MOL   C17339619   0.493   0.550   7.297 -0.1694  0.4500 -0.4700
  164MOL   O17439620   0.455   0.478   7.198  0.7001 -0.1761  0.4560
  164MOL   O17539621   0.414   0.606   7.389  0.3195 -0.3682 -0.8769
  164MOL   H17639622   0.584   0.451   7.498 -0.9343  0.4756  0.0284
  164MOL   H17739623   0.608   0.615   7.531 -2.0276  0.2772 -2.6990
  164MOL   H17839624   0.836   0.510   7.248 -0.2040 -0.2941  0.4508
  164MOL   H17939625   0.698   0.499   7.136  1.2726 -0.2360  0.4129
  164MOL   H18039626   0.706   0.402   7.272  2.7880 -1.6602 -1.9342
  164MOL   H18139627   0.325   0.574   7.380 -0.3076  1.3806 -1.0221
  164MOL   C18239628   0.664   0.740   7.327 -0.1322  0.5825  0.0640
  164MOL   C18339629   0.658   0.827   7.192  0.4228 -0.4115 -0.0788
  164MOL   C18439630   0.681   0.970   7.246  0.8406  0.0387  0.2052
  164MOL   C18539631   0.793   0.788   7.114 -0.4129  0.3500  0.1743
  164MOL   O18639632   0.906   0.821   7.152  0.1904  0.1613  0.0051
  164MOL   O18739633   0.770   0.699   7.013  0.2729 -0.1064 -0.0074
  164MOL   H18839634   0.586   0.788   7.385 -0.3997  1.2753 -0.8621
  164MOL   H18939635   0.758   0.760   7.378  0.3269 -0.8136 -0.2103
  164MOL   H19039636   0.748   0.992   7.329  1.4739  0.1054 -0.3154
  164MOL   H19139637   0.582   0.994   7.284  0.8566 -1.5917  1.3162
  164MOL   H19239638   0.697   1.039   7.163  1.0571  2.3292  2.1250
  164MOL   H19339639   0.840   0.655   6.968 -1.0620 -1.6895 -0.6061
  164MOL   C19439640   0.527   0.816   7.111  0.2883 -0.0295 -0.6610
  164MOL   C19539641   0.478   0.922   7.001 -0.0103 -0.3144 -0.3721
  164MOL   C19639642   0.591   0.981   6.908  0.0831  0.2875  0.1983
  164MOL   C19739643   0.384   0.845   6.902  0.8717 -0.2608 -0.5008
  164MOL   O19839644   0.373   0.872   6.786  0.4055  0.3328  0.7230
  164MOL   O19939645   0.306   0.756   6.968  0.1209 -0.7165  0.1332
  164MOL   H20039646   0.517   0.714   7.072  1.0190 -0.1356 -0.5789
  164MOL   H20139647   0.444   0.819   7.182  0.1310 -0.4474 -0.8216
  164MOL   H20239648   0.672   0.909   6.894  1.4982  1.7155  0.7829
  164MOL   H20339649   0.646   1.061   6.958  0.6884  0.3959 -0.6229
  164MOL   H20439650   0.559   1.032   6.817 -0.1103  0.2557  0.2485
  164MOL   H20539651   0.255   0.702   6.909  0.4330 -0.7060 -0.1447
  164MOL   C20639652   0.395   1.037   7.072 -0.0127  0.0864 -0.6312
  164MOL   C20739653   0.302   1.140   6.998  0.0566 -0.0170  0.5672
  164MOL   C20839654   0.367   1.190   6.869  0.3298 -0.1823  0.2583
  164MOL   C20939655   0.163   1.083   6.960  0.8400 -0.4670  0.1715
  164MOL   O21039656   0.090   1.141   6.880  0.1382  0.0114  0.0033
  164MOL   O21139657   0.125   0.974   7.027  0.3754  0.1282  0.1954
  164MOL   H21239658   0.338   1.000   7.157  1.4055  2.9273  1.6606
  164MOL   H21339659   0.470   1.091   7.130  3.9472 -4.2951 -1.3547
  164MOL   H21439660   0.355   1.124   6.783  2.6004 -0.0363 -0.2156
  164MOL   H21539661   0.474   1.210   6.880  0.5410 -1.6468  1.0022
  164MOL   H21639662   0.313   1.279   6.836  2.2973  1.0636  0.3243
  164MOL   H21739663   0.039   0.951   6.995 -0.0292 -1.4171  2.2480
  164MOL   C21839664   0.280   1.273   7.075  0.2671  0.4015  0.3026
  164MOL   C21939665   0.224   1.276   7.230 -0.0138 -0.6542  0.8123
  164MOL   C22039666   0.086   1.207   7.237 -0.2832  0.5631  0.6665
  164MOL   C22139667   0.326   1.222   7.337 -0.6442  0.4068 -0.3409
  164MOL   O22239668   0.291   1.139   7.425 -0.2096 -0.0639 -0.4319
  164MOL   O22339669   0.450   1.276   7.336  0.3993 -0.2740 -0.0600
  164MOL   H22439670   0.377   1.324   7.073 -0.4271  1.7024 -0.5293
  164MOL   H22539671   0.210   1.334   7.018 -1.1183  0.4764  2.0547
  164MOL   H22639672   0.037   1.233   7.330 -1.3630 -0.0337  0.2732
  164MOL   H22739673   0.097   1.098   7.232  0.7553  0.6860 -0.1391
  164MOL   H22839674   0.025   1.233   7.150  1.0075 -1.5972 -0.9412
  164MOL   H22939675   0.491   1.235   7.410 -3.1542 -1.8612  1.1804
  164MOL   C23039676   0.195   1.429   7.258 -0.5575  0.2234 -0.7277
  164MOL   C23139677   0.140   1.471   7.397 -0.2359 -0.4101 -0.2654
  164MOL   C23239678   0.246   1.540   7.488 -0.3725 -0.2830 -0.4733
  164MOL   C23339679   0.016   1.556   7.381  0.6068  0.3128 -0.1722
  164MOL   O23439680   0.017   1.678   7.366 -0.8348 -0.1736  0.6219
  164MOL   O23539681   7.667   1.481   7.398 -0.1823 -0.0954  0.0059
  164MOL   H23639682   0.276   1.496   7.230 -1.3859  1.4419 -0.2285
  164MOL   H23739683   0.114   1.446   7.186 -3.2192 -0.6297  1.9653
  164MOL   H23839684   0.299   1.620   7.436  0.3699  0.8114  1.8914
  164MOL   H23939685   0.324   1.465   7.506 -0.7543 -1.3246 -2.9568
  164MOL   H24039686   0.210   1.579   7.583 -1.0664  0.2511 -0.9554
  164MOL   H24139687   7.592   1.527   7.363 -2.6099 -2.8143  1.4474
  164MOL   H24239688   0.102   1.382   7.446 -0.8879 -0.8486 -1.5542
  165MOL     C139689   3.627   0.990   4.640 -0.3975  0.0808 -0.0755
  165MOL     C239690   3.654   1.105   4.539 -0.2465  0.2094 -0.4381
  165MOL     C339691   3.625   1.236   4.621 -0.8926  0.2630 -0.9568
  165MOL     C439692   3.796   1.091   4.488 -0.4142 -0.1101 -1.0725
  165MOL     O539693   3.857   0.983   4.476  0.4791 -0.4617  0.1480
  165MOL     O639694   3.853   1.215   4.467  0.4434 -0.4544  0.3108
  165MOL     H739695   3.536   1.007   4.698  0.5692 -2.8640  2.4336
  165MOL     H839696   3.707   0.977   4.712  2.8039 -0.0666 -3.5085
  165MOL     H939697   3.677   1.230   4.716 -2.3220 -2.3448 -0.2894
  165MOL    H1039698   3.520   1.251   4.647 -0.2903 -0.0143  1.7782
  165MOL    H1139699   3.667   1.326   4.577 -0.5406  0.3540 -0.4321
  165MOL    H1239700   3.945   1.218   4.446 -0.2691 -1.5096 -3.1820
  165MOL    H1339701   3.609   0.896   4.587  0.3379  0.2349 -0.6026
  165MOL    C1439702   3.539   1.096   4.431  0.2525  0.3164 -0.2888
  165MOL    C1539703   3.520   1.203   4.305  0.0279  0.2990 -0.4108
  165MOL    C1639704   3.652   1.203   4.225  0.1507  0.1528  0.2374
  165MOL    C1739705   3.405   1.142   4.218  0.0231  0.4679 -0.8495
  165MOL    O1839706   3.428   1.073   4.116 -0.0674 -0.6643  0.3529
  165MOL    O1939707   3.288   1.148   4.281 -0.1471 -0.2244  0.0424
  165MOL    H2039708   3.548   0.994   4.393 -0.2673  0.5058 -0.9285
  165MOL    H2139709   3.445   1.088   4.485  0.4678  0.0964  0.0522
  165MOL    H2239710   3.637   1.233   4.121 -0.2834  0.7450  0.4654
  165MOL    H2339711   3.695   1.104   4.214  0.6306  0.4251 -0.3195
  165MOL    H2439712   3.729   1.268   4.265  0.8224 -1.6023  1.8714
  165MOL    H2539713   3.228   1.086   4.242 -0.9639  0.8369 -0.4264
  165MOL    C2639714   3.465   1.348   4.354  0.2465  0.5259  0.3160
  165MOL    C2739715   3.442   1.480   4.269  0.5161 -0.0333 -0.2790
  165MOL    C2839716   3.572   1.529   4.197  0.1609  0.5895 -0.1408
  165MOL    C2939717   3.342   1.440   4.157  0.0242 -0.2103  0.1579
  165MOL    O3039718   3.219   1.432   4.179  0.6956  0.2401 -0.2292
  165MOL    O3139719   3.393   1.411   4.039 -0.6704 -0.6508  0.1233
  165MOL    H3239720   3.378   1.336   4.418 -1.2161  1.1353 -1.5061
  165MOL    H3339721   3.548   1.382   4.416 -0.0189  1.2890  0.2588
  165MOL    H3439722   3.569   1.635   4.170 -0.0324 -0.2273 -3.4656
  165MOL    H3539723   3.614   1.455   4.130 -0.2762  0.0298  0.1997
  165MOL    H3639724   3.653   1.542   4.269 -0.2534  0.9578  0.2607
  165MOL    H3739725   3.482   1.441   4.047 -1.5382  1.5961  1.8776
  165MOL    C3839726   3.363   1.588   4.350 -0.1654  0.3534 -0.5820
  165MOL    C3939727   3.424   1.688   4.455  0.3812  0.2529  0.5328
  165MOL    C4039728   3.508   1.615   4.564  0.0052  0.1799  0.2188
  165MOL    C4139729   3.513   1.789   4.383  0.3415  0.0391 -0.1233
  165MOL    O4239730   3.627   1.820   4.419  0.1826 -0.1668 -0.0890
  165MOL    O4339731   3.443   1.848   4.279 -0.1555  0.2087 -0.1347
  165MOL    H4439732   3.295   1.647   4.289 -0.5923 -1.9263 -2.3913
  165MOL    H4539733   3.285   1.540   4.409  0.9505 -0.8256 -0.0123
  165MOL    H4639734   3.455   1.530   4.606  0.1244 -1.3393 -2.6080
  165MOL    H4739735   3.529   1.679   4.649 -2.0899  1.2880 -0.0599
  165MOL    H4839736   3.603   1.571   4.536 -0.7296 -1.5533  0.3795
  165MOL    H4939737   3.486   1.922   4.240  0.2211 -0.2450 -0.5865
  165MOL    C5039738   3.298   1.768   4.516  0.3087 -0.1017 -0.1795
  165MOL    C5139739   3.298   1.836   4.660  0.4468  0.2756 -0.5832
  165MOL    C5239740   3.159   1.900   4.667 -0.1977 -0.5232  0.1023
  165MOL    C5339741   3.293   1.726   4.769 -0.1999 -0.3930  0.1424
  165MOL    O5439742   3.281   1.609   4.743 -0.6002  0.3656 -0.7366
  165MOL    O5539743   3.309   1.772   4.896 -0.2176 -0.2590  0.2757
  165MOL    H5639744   3.259   1.842   4.446  1.5259 -1.5751 -2.4638
  165MOL    H5739745   3.213   1.701   4.520 -0.4400  0.8417 -0.0150
  165MOL    H5839746   3.163   1.993   4.610  1.6976 -0.0033  1.0539
  165MOL    H5939747   3.127   1.929   4.767  1.9326 -0.8591  0.9102
  165MOL    H6039748   3.076   1.841   4.628 -0.8531  1.2574 -1.2737
  165MOL    H6139749   3.290   1.700   4.953  0.1866 -0.5971 -0.0158
  165MOL    C6239750   3.413   1.942   4.677 -0.1466  0.2234 -0.5055
  165MOL    C6339751   3.445   2.044   4.793 -0.3458 -0.2618 -0.4626
  165MOL    C6439752   3.312   2.118   4.829  0.2785  0.2033 -0.3430
  165MOL    C6539753   3.502   1.987   4.924  0.6312  0.4424 -0.0940
  165MOL    O6639754   3.475   2.045   5.036  0.2848 -0.4224  0.0378
  165MOL    O6739755   3.572   1.874   4.911  0.1349 -0.6470 -0.4248
  165MOL    H6839756   3.509   1.892   4.663 -0.4290 -0.2437 -0.7873
  165MOL    H6939757   3.393   2.010   4.594  0.7219  0.5493 -0.4594
  165MOL    H7039758   3.337   2.206   4.889  0.2219 -0.5003  0.7126
  165MOL    H7139759   3.244   2.063   4.894  2.5077 -1.0324  0.9880
  165MOL    H7239760   3.257   2.145   4.739  0.3917 -1.1481 -0.8267
  165MOL    H7339761   3.627   1.841   4.981 -1.5449 -0.7339  0.8959
  165MOL    C7439762   3.534   2.168   4.746 -0.6029  0.4591  0.2049
  165MOL    C7539763   3.674   2.162   4.665  0.2530 -0.3938  0.1839
  165MOL    C7639764   3.757   2.038   4.708  0.8125 -0.6577 -0.1305
  165MOL    C7739765   3.638   2.151   4.511 -0.7766  0.6411  0.4648
  165MOL    O7839766   3.524   2.152   4.467  0.3195  0.0490  0.2204
  165MOL    O7939767   3.753   2.131   4.433  0.2155  0.5992 -0.3146
  165MOL    H8039768   3.466   2.239   4.699 -0.7972  0.4797  0.5235
  165MOL    H8139769   3.559   2.223   4.837 -1.5673  1.3700 -0.0652
  165MOL    H8239770   3.714   1.954   4.653  0.5000 -0.0629 -0.8064
  165MOL    H8339771   3.757   2.015   4.815  1.4123  0.2010  0.0547
  165MOL    H8439772   3.856   2.053   4.663  0.2447 -0.3760 -1.2973
  165MOL    H8539773   3.718   2.096   4.352 -1.5573  1.4174  0.0716
  165MOL    C8639774   3.772   2.283   4.709 -0.0866 -0.8934 -0.1062
  165MOL    C8739775   3.763   2.436   4.660 -0.1258  0.1493 -0.0603
  165MOL    C8839776   3.854   2.513   4.764  0.0960 -0.0232 -0.1039
  165MOL    C8939777   3.828   2.445   4.518 -0.2256  0.3276 -0.7299
  165MOL    O9039778   3.944   2.477   4.497 -0.0752  0.3977 -0.4448
  165MOL    O9139779   3.741   2.422   4.419  0.2594 -0.4970  0.6881
  165MOL    H9239780   3.766   2.293   4.817 -2.6232  0.2297 -0.3021
  165MOL    H9339781   3.876   2.267   4.684  0.4487 -0.5660  1.8537
  165MOL    H9439782   3.961   2.491   4.762  0.3129  0.9317  0.5961
  165MOL    H9539783   3.812   2.505   4.864 -1.0824 -2.1518 -0.7489
  165MOL    H9639784   3.858   2.621   4.747 -0.2984  0.6823  3.9228
  165MOL    H9739785   3.791   2.440   4.342 -0.2422 -3.6717 -0.4600
  165MOL    C9839786   3.614   2.485   4.675  0.6858  0.4027 -0.5985
  165MOL    C9939787   3.558   2.615   4.609 -0.1599  0.4981  0.6545
  165MOL   C10039788   3.469   2.680   4.723 -0.1263 -0.0249  0.0269
  165MOL   C10139789   3.675   2.714   4.578  0.0023  0.0319  0.9072
  165MOL   O10239790   3.722   2.723   4.464 -0.2016 -0.1140  0.1622
  165MOL   O10339791   3.720   2.795   4.680 -0.1103  0.2719  0.1102
  165MOL   H10439792   3.552   2.399   4.649  0.9607 -0.5107  1.6145
  165MOL   H10539793   3.591   2.491   4.781 -1.7383  2.3082 -1.1836
  165MOL   H10639794   3.434   2.780   4.699  0.1059 -0.1184 -0.7379
  165MOL   H10739795   3.523   2.672   4.817 -1.2893 -2.1009  0.5601
  165MOL   H10839796   3.376   2.624   4.737  0.2704 -0.7886 -0.3450
  165MOL   H10939797   3.796   2.840   4.646  0.2039  0.1403  0.6266
  165MOL   C11039798   3.470   2.572   4.483 -0.5049  0.1013 -0.4408
  165MOL   C11139799   3.409   2.669   4.376 -0.5002  0.0795  0.1247
  165MOL   C11239800   3.402   2.814   4.433 -0.0141  0.4185 -0.2858
  165MOL   C11339801   3.500   2.667   4.250  0.1994 -0.4230 -0.7363
  165MOL   O11439802   3.584   2.579   4.230 -0.5738 -0.6462 -0.2898
  165MOL   O11539803   3.468   2.770   4.166 -0.2303  0.4743 -0.5406
  165MOL   H11639804   3.511   2.483   4.435 -0.5068 -0.0151 -0.2286
  165MOL   H11739805   3.384   2.530   4.535  0.6924 -0.2052  1.3428
  165MOL   H11839806   3.364   2.885   4.360  0.0591 -0.3978 -1.1285
  165MOL   H11939807   3.495   2.855   4.472 -1.3986  3.8455 -0.4518
  165MOL   H12039808   3.326   2.811   4.511  1.9741 -0.8990  1.6337
  165MOL   H12139809   3.508   2.758   4.081  2.5989  0.6190  0.7444
  165MOL   C12239810   3.261   2.628   4.344  0.6555 -0.1489 -0.2593
  165MOL   C12339811   3.220   2.498   4.267  0.1945 -0.1475  0.0733
  165MOL   C12439812   3.267   2.502   4.119  0.1894 -0.3234 -0.4761
  165MOL   C12539813   3.282   2.378   4.341 -0.1024 -0.1313 -0.5060
  165MOL   O12639814   3.243   2.350   4.455 -0.3390  0.2601  0.2290
  165MOL   O12739815   3.385   2.322   4.281  0.3100  0.0285 -0.5498
  165MOL   H12839816   3.200   2.630   4.434  1.0566  0.4506  0.0031
  165MOL   H12939817   3.223   2.713   4.288  1.1885  1.4905  1.7778
  165MOL   H13039818   3.373   2.484   4.099  0.1250 -1.7019  0.3806
  165MOL   H13139819   3.254   2.600   4.072 -0.9542  0.7162  1.9181
  165MOL   H13239820   3.202   2.438   4.061  0.1036 -1.0682  0.4243
  165MOL   H13339821   3.428   2.265   4.343  0.4892 -0.2300 -0.9077
  165MOL   C13439822   3.065   2.481   4.275  0.3948 -0.6833 -0.8763
  165MOL   C13539823   2.950   2.582   4.242  0.1448 -0.2730  0.5834
  165MOL   C13639824   2.924   2.691   4.349 -0.1923 -1.1030  0.4434
  165MOL   C13739825   2.965   2.650   4.107 -0.7847 -0.8426 -0.6806
  165MOL   O13839826   2.967   2.770   4.087  0.0854  0.0394 -0.0857
  165MOL   O13939827   2.994   2.561   4.017 -0.3920  0.7703  0.1921
  165MOL   H14039828   3.044   2.384   4.231 -1.4006 -1.0128  0.6393
  165MOL   H14139829   3.045   2.454   4.379  0.3667  0.9642 -0.4435
  165MOL   H14239830   2.853   2.767   4.317  1.0739  0.5081  1.3618
  165MOL   H14339831   3.014   2.747   4.371 -1.1237  0.6689 -0.1281
  165MOL   H14439832   2.893   2.646   4.444  1.1425 -3.5012 -0.2092
  165MOL   H14539833   2.987   2.592   3.928 -0.6000  0.7734  0.2095
  165MOL   C14639834   2.819   2.494   4.232  0.0063  0.5157  0.2143
  165MOL   C14739835   2.677   2.535   4.174  0.2372 -0.3943  0.5769
  165MOL   C14839836   2.646   2.689   4.180 -0.4871  0.1896 -0.3667
  165MOL   C14939837   2.671   2.482   4.030  0.5287  0.2514  0.6641
  165MOL   O15039838   2.673   2.562   3.939 -0.0104  0.2087 -0.0030
  165MOL   O15139839   2.670   2.347   4.017 -0.3837  0.3557 -0.2976
  165MOL   H15239840   2.850   2.412   4.168  0.5626  0.2430  0.8338
  165MOL   H15339841   2.804   2.449   4.330  0.2931  2.1647  1.0211
  165MOL   H15439842   2.719   2.745   4.122  1.7284 -2.3446 -0.1230
  165MOL   H15539843   2.646   2.705   4.287 -1.1933 -1.0673 -0.1623
  165MOL   H15639844   2.543   2.715   4.152 -0.6393 -0.0536 -0.0402
  165MOL   H15739845   2.693   2.332   3.927  0.5895 -0.8762  0.1487
  165MOL   C15839846   2.575   2.435   4.257 -0.1931 -0.3095 -0.3228
  165MOL   C15939847   2.512   2.470   4.400 -0.3395  0.3245 -0.2879
  165MOL   C16039848   2.622   2.489   4.506  0.3433  0.6377  0.6384
  165MOL   C16139849   2.417   2.591   4.397  0.2989  0.7580  0.1198
  165MOL   O16239850   2.417   2.681   4.482 -0.5712 -0.1854 -0.4944
  165MOL   O16339851   2.325   2.585   4.302 -0.2778 -0.1970 -0.3323
  165MOL   H16439852   2.486   2.425   4.196 -0.8124  1.1262  0.3157
  165MOL   H16539853   2.622   2.337   4.257  0.8677  0.1483  2.1265
  165MOL   H16639854   2.586   2.510   4.606  1.1081 -0.2935  1.1165
  165MOL   H16739855   2.677   2.579   4.478 -0.2782  1.0774  0.8368
  165MOL   H16839856   2.682   2.398   4.508 -0.7817 -0.3536 -3.6274
  165MOL   H16939857   2.265   2.659   4.307  0.3947  0.5209 -2.6044
  165MOL   C17039858   2.435   2.341   4.452  1.1433  0.3998  0.4110
  165MOL   C17139859   2.300   2.276   4.395 -0.0108  0.1692  0.1347
  165MOL   C17239860   2.283   2.152   4.482 -0.5819 -0.4109 -0.4736
  165MOL   C17339861   2.175   2.368   4.428 -0.7171 -0.3495  0.0687
  165MOL   O17439862   2.088   2.384   4.349  0.3523 -0.0293 -0.0577
  165MOL   O17539863   2.174   2.433   4.549 -0.4268 -0.3699  0.3911
  165MOL   H17639864   2.502   2.255   4.453  0.7382  0.0711  2.6994
  165MOL   H17739865   2.415   2.362   4.557 -2.4383  1.6908 -0.4563
  165MOL   H17839866   2.371   2.089   4.485  0.7007  1.4153  2.6850
  165MOL   H17939867   2.199   2.093   4.445  0.1775 -1.1343 -1.0398
  165MOL   H18039868   2.260   2.180   4.585 -0.2900 -1.6698 -0.0664
  165MOL   H18139869   2.104   2.495   4.538  1.9269  2.2745 -0.3521
  165MOL   C18239870   2.317   2.237   4.242 -0.2491 -0.2632  0.5432
  165MOL   C18339871   2.248   2.124   4.155  0.7160  0.8917 -0.2059
  165MOL   C18439872   2.096   2.120   4.184  0.3538 -0.6500  0.1084
  165MOL   C18539873   2.264   2.184   4.008 -0.2303 -0.5140  0.6518
  165MOL   O18639874   2.180   2.192   3.919 -0.4251  0.0946 -0.1029
  165MOL   O18739875   2.396   2.217   3.991 -0.9067  0.0529 -0.3300
  165MOL   H18839876   2.293   2.331   4.192  1.0609 -0.1044  0.1927
  165MOL   H18939877   2.424   2.218   4.239 -0.4264 -1.5234  1.5375
  165MOL   H19039878   2.075   2.100   4.289 -1.9568 -1.6757 -0.5001
  165MOL   H19139879   2.039   2.040   4.136 -0.9813  1.4469 -1.8779
  165MOL   H19239880   2.054   2.214   4.148  1.1757 -0.6234 -0.7949
  165MOL   H19339881   2.410   2.264   3.910 -0.0432  4.3239  2.2007
  165MOL   C19439882   2.325   1.989   4.173 -0.5019  0.2412 -0.1542
  165MOL   C19539883   2.292   1.856   4.095 -0.0626  0.4110  0.8464
  165MOL   C19639884   2.415   1.766   4.106 -0.2031 -0.3959 -0.1475
  165MOL   C19739885   2.172   1.790   4.173 -0.7850 -0.0447 -0.3966
  165MOL   O19839886   2.056   1.804   4.128 -0.3224  0.2208 -0.2312
  165MOL   O19939887   2.209   1.736   4.294  0.3021  1.0608 -0.7477
  165MOL   H20039888   2.421   2.004   4.123 -0.6027  2.8637  0.3405
  165MOL   H20139889   2.364   1.966   4.272 -1.7167 -0.6223  0.1238
  165MOL   H20239890   2.492   1.798   4.036 -0.6282 -0.0851 -0.4799
  165MOL   H20339891   2.393   1.663   4.075  1.5238 -0.6640 -0.5201
  165MOL   H20439892   2.460   1.748   4.203  0.9303 -1.1426 -0.7933
  165MOL   H20539893   2.133   1.707   4.343  1.4272  1.3373  1.2328
  165MOL   C20639894   2.253   1.885   3.943 -0.7336 -0.5968  0.7016
  165MOL   C20739895   2.233   1.782   3.827  0.3984 -0.6346  0.3061
  165MOL   C20839896   2.177   1.648   3.876  1.0764  0.1546 -0.7462
  165MOL   C20939897   2.127   1.845   3.722  0.2197  0.5116 -0.1703
  165MOL   O21039898   2.039   1.772   3.669  0.1985  0.4024  0.7921
  165MOL   O21139899   2.147   1.976   3.687  0.0062 -0.3271  0.3411
  165MOL   H21239900   2.170   1.955   3.938 -0.2911 -0.2157 -1.8028
  165MOL   H21339901   2.345   1.935   3.914 -0.9967 -0.4453  0.1256
  165MOL   H21439902   2.216   1.596   3.963 -1.1272  0.8790  0.7084
  165MOL   H21539903   2.172   1.580   3.791  1.6682 -1.0622  0.1747
  165MOL   H21639904   2.071   1.667   3.894  0.8026 -0.6628 -1.4228
  165MOL   H21739905   2.209   2.018   3.746  0.3175  0.7081 -0.7049
  165MOL   C21839906   2.361   1.763   3.745 -1.1844  1.2038  1.1550
  165MOL   C21939907   2.389   1.646   3.636 -0.4070  0.6125 -0.7839
  165MOL   C22039908   2.536   1.671   3.580  0.6573 -0.0171  0.3244
  165MOL   C22139909   2.400   1.507   3.693 -0.3237  0.5339 -0.4861
  165MOL   O22239910   2.337   1.407   3.662  0.4437  0.2714  0.3479
  165MOL   O22339911   2.488   1.508   3.801 -0.2741 -0.2789 -0.0306
  165MOL   H22439912   2.379   1.852   3.684 -0.8548 -0.7908 -1.7826
  165MOL   H22539913   2.445   1.755   3.815 -0.9571  0.5712  0.8096
  165MOL   H22639914   2.536   1.758   3.515  1.7407  0.6849  1.2498
  165MOL   H22739915   2.565   1.587   3.518  0.4156 -2.3341  3.2642
  165MOL   H22839916   2.608   1.696   3.658  0.4761 -0.8181  0.7530
  165MOL   H22939917   2.475   1.424   3.842 -0.7164  0.7466  1.9498
  165MOL   C23039918   2.287   1.646   3.517 -0.3218 -0.8735  0.0960
  165MOL   C23139919   2.328   1.562   3.390  0.0832 -0.1233 -0.7550
  165MOL   C23239920   2.194   1.534   3.303 -0.1131  0.0832 -0.6200
  165MOL   C23339921   2.417   1.629   3.286  0.1890  0.5789 -0.2085
  165MOL   O23439922   2.422   1.749   3.275  0.0596 -0.7038  0.3252
  165MOL   O23539923   2.499   1.533   3.224 -0.0844  0.4012 -0.5130
  165MOL   H23639924   2.192   1.600   3.540 -1.0873 -0.2930 -1.8309
  165MOL   H23739925   2.258   1.748   3.491 -0.3966 -0.5502  1.4202
  165MOL   H23839926   2.187   1.605   3.221  0.0400 -1.5219 -2.0426
  165MOL   H23939927   2.100   1.540   3.358  0.9072 -0.2324  1.2053
  165MOL   H24039928   2.192   1.432   3.263 -0.7260  0.8977 -2.7250
  165MOL   H24139929   2.553   1.570   3.155  1.3000 -1.1610 -0.3020
  165MOL   H24239930   2.380   1.469   3.413 -0.5114 -0.3796 -0.4271
  166MOL     C139931   2.506   4.403   7.568  0.0844 -0.4025 -0.3457
  166MOL     C239932   2.359   4.444   7.581  0.4545 -0.0380  0.0564
  166MOL     C339933   2.360   4.546   7.702 -0.3722 -0.4809  0.2600
  166MOL     C439934   2.317   4.522   7.454  0.8070  0.0380  0.5662
  166MOL     O539935   2.379   4.519   7.350  0.0966 -0.1329 -0.7508
  166MOL     O639936   2.216   4.602   7.481  0.3976  0.4363  0.0244
  166MOL     H739937   2.569   4.486   7.538 -0.2605  0.4925  1.3180
  166MOL     H839938   2.530   4.337   7.485  0.5392  0.0787 -0.5960
  166MOL     H939939   2.417   4.508   0.021  0.3313  0.9620  0.4413
  166MOL    H1039940   2.259   4.566   7.737  0.0753  3.7620 -0.6056
  166MOL    H1139941   2.418   4.637   7.688 -1.6321  0.0571 -1.6262
  166MOL    H1239942   2.169   4.638   7.407  1.2843 -1.5081 -1.5390
  166MOL    H1339943   2.559   4.374   7.659  1.5363 -0.6001 -1.2470
  166MOL    C1439944   2.266   4.321   7.627  0.2350  0.0003 -0.0743
  166MOL    C1539945   2.218   4.205   7.532  0.0286  0.2037  0.8620
  166MOL    C1639946   2.247   4.074   7.615 -0.4996 -0.2154  0.0859
  166MOL    C1739947   2.061   4.210   7.506 -0.2947 -0.2981  0.0786
  166MOL    O1839948   1.982   4.125   7.541  0.4607 -0.0984  0.1401
  166MOL    O1939949   2.027   4.338   7.455 -0.3997  0.1552  0.2278
  166MOL    H2039950   2.297   4.286   7.725  0.7374  0.3163 -0.1192
  166MOL    H2139951   2.172   4.367   7.656  1.1324  1.1653  1.0233
  166MOL    H2239952   2.354   4.059   7.624 -0.6521 -2.1961 -1.0977
  166MOL    H2339953   2.208   3.980   7.575  3.1549 -1.4514 -0.7072
  166MOL    H2439954   2.210   4.089   7.716 -1.5384 -1.9009 -0.0166
  166MOL    H2539955   2.099   4.387   7.420 -0.6082 -0.9329 -1.8145
  166MOL    C2639956   2.287   4.196   7.385  0.7505  0.0333  0.4451
  166MOL    C2739957   2.257   4.093   7.270 -0.2589  0.3327 -0.5458
  166MOL    C2839958   2.374   4.111   7.165 -0.2174  0.2323 -0.5917
  166MOL    C2939959   2.267   3.942   7.316  0.4510 -0.0477 -0.3510
  166MOL    O3039960   2.177   3.873   7.357  0.2993 -0.0632 -0.1220
  166MOL    O3139961   2.402   3.898   7.325 -0.2342  0.1964  0.6375
  166MOL    H3239962   2.287   4.299   7.350 -2.1917 -0.5587 -1.5257
  166MOL    H3339963   2.392   4.176   7.406 -0.0469 -3.5710  1.4560
  166MOL    H3439964   2.385   4.212   7.127  1.3930  0.0162 -0.7289
  166MOL    H3539965   2.368   4.042   7.080  0.4223 -0.4942 -0.0509
  166MOL    H3639966   2.473   4.100   7.209 -0.8104  0.8111  0.9072
  166MOL    H3739967   2.394   3.815   7.370 -0.3770 -0.7823 -1.1714
  166MOL    C3839968   2.120   4.108   7.205  0.1744  0.6050 -0.5723
  166MOL    C3939969   2.082   4.215   7.099  0.0354 -0.0472 -0.0687
  166MOL    C4039970   1.930   4.223   7.116  0.1730  0.2603 -0.1354
  166MOL    C4139971   2.141   4.363   7.118  0.4887  0.3653 -0.0926
  166MOL    O4239972   2.082   4.451   7.171  0.3460 -0.0030 -0.1366
  166MOL    O4339973   2.251   4.388   7.048 -0.4650  0.0852  0.1986
  166MOL    H4439974   2.078   4.015   7.168  0.6403  1.7157 -4.1103
  166MOL    H4539975   2.052   4.117   7.290  0.2456 -1.3351 -0.2880
  166MOL    H4639976   1.891   4.123   7.103 -0.6495  0.7465 -1.5647
  166MOL    H4739977   1.878   4.293   7.050  0.1864  0.9744  0.5999
  166MOL    H4839978   1.894   4.243   7.217 -1.4374  0.0255 -0.6598
  166MOL    H4939979   2.274   4.479   7.057 -0.1007 -0.0732  0.8384
  166MOL    C5039980   2.108   4.160   6.956  0.4456 -0.2994  0.5195
  166MOL    C5139981   2.025   4.185   6.828 -0.6192 -0.2986  0.3551
  166MOL    C5239982   1.891   4.095   6.822 -0.1751 -0.5211  0.5156
  166MOL    C5339983   1.994   4.333   6.812  0.7338 -0.4961 -0.2863
  166MOL    O5439984   1.877   4.364   6.794  0.7525 -0.0852 -0.3941
  166MOL    O5539985   2.093   4.424   6.798  0.5630  0.5340  0.0409
  166MOL    H5639986   2.215   4.175   6.944  0.7478 -0.2836  2.9839
  166MOL    H5739987   2.094   4.052   6.967  0.5183 -0.4772 -1.0441
  166MOL    H5839988   1.847   4.093   6.723 -1.4534 -3.3653  1.0934
  166MOL    H5939989   1.816   4.144   6.883 -1.3399 -2.4339  0.6661
  166MOL    H6039990   1.902   3.995   6.865 -2.3720 -0.4417  1.2824
  166MOL    H6139991   2.064   4.512   6.779 -0.8306 -0.1732 -1.2032
  166MOL    C6239992   2.122   4.153   6.701 -0.1914  0.0164 -0.1668
  166MOL    C6339993   2.153   4.016   6.643 -0.2217  0.0867  0.4124
  166MOL    C6439994   2.193   3.921   6.756  0.2842  0.1341  0.1022
  166MOL    C6539995   2.028   3.954   6.562 -0.2039  0.5074 -0.6394
  166MOL    O6639996   2.002   3.836   6.572 -0.4379 -0.0329  0.2145
  166MOL    O6739997   1.966   4.035   6.479  0.5025  0.3951  0.3011
  166MOL    H6839998   2.085   4.211   6.617 -0.0998  1.9403  1.0781
  166MOL    H6939999   2.212   4.202   6.737 -1.2868  1.1052  1.1388
  166MOL    H7040000   2.273   3.967   6.813 -0.5575  3.5766 -1.3202
  166MOL    H7140001   2.216   3.823   6.715  1.6471  1.1516 -1.6318
  166MOL    H7240002   2.113   3.892   6.824 -0.7869 -1.4090 -1.7478
  166MOL    H7340003   1.900   3.995   6.424 -0.5228 -0.4040  2.0791
  166MOL    C7440004   2.277   4.041   6.543  0.1494  0.5791 -0.4078
  166MOL    C7540005   2.352   3.916   6.472 -0.6743  0.0203 -0.5384
  166MOL    C7640006   2.259   3.805   6.433  0.1367 -0.2025  0.5976
  166MOL    C7740007   2.408   3.988   6.344 -0.1419 -0.1831 -0.7015
  166MOL    O7840008   2.373   3.969   6.228 -0.3598  0.3598  0.1241
  166MOL    O7940009   2.491   4.091   6.375 -0.2472  0.1710  0.5394
  166MOL    H8040010   2.237   4.113   6.472 -1.6771  0.3950  0.4112
  166MOL    H8140011   2.353   4.107   6.587  2.1530 -2.0080  0.1268
  166MOL    H8240012   2.216   3.755   6.520  2.0666 -1.2083  1.0242
  166MOL    H8340013   2.302   3.734   6.363  0.9145 -0.6762  1.5349
  166MOL    H8440014   2.178   3.848   6.374  1.0007 -0.0133 -0.4601
  166MOL    H8540015   2.540   4.115   6.298 -0.3380 -1.7732 -0.1511
  166MOL    C8640016   2.473   3.875   6.565 -0.1743  0.0747 -0.7445
  166MOL    C8740017   2.554   3.737   6.540 -0.1753 -0.3224 -0.6310
  166MOL    C8840018   2.485   3.619   6.617 -0.2595 -0.3049  0.7065
  166MOL    C8940019   2.573   3.704   6.396 -0.2819  0.2811 -0.1031
  166MOL    O9040020   2.628   3.793   6.329 -0.2019  0.5303 -0.7416
  166MOL    O9140021   2.522   3.587   6.345 -0.5778 -0.4571  0.0844
  166MOL    H9240022   2.537   3.962   6.572  3.0941 -2.3295  0.3896
  166MOL    H9340023   2.431   3.856   6.664  0.0053  0.2226 -0.6417
  166MOL    H9440024   2.378   3.641   6.608 -0.3788 -0.1541  2.3463
  166MOL    H9540025   2.507   3.621   6.724  1.5546  1.1326  0.3215
  166MOL    H9640026   2.489   3.516   6.581  0.6527 -0.1384  0.3327
  166MOL    H9740027   2.528   3.584   6.251 -1.1790  1.5885 -0.0606
  166MOL    C9840028   2.690   3.767   6.614  0.5600  0.6313 -0.1842
  166MOL    C9940029   2.827   3.685   6.592  0.6253  0.2856 -0.5930
  166MOL   C10040030   2.799   3.534   6.600  0.1955  0.3208 -0.4353
  166MOL   C10140031   2.897   3.725   6.463  0.4190  0.3800  0.4516
  166MOL   O10240032   2.892   3.837   6.416 -0.7351  0.4919  0.1693
  166MOL   O10340033   2.960   3.621   6.402 -0.1889  0.1137  0.1419
  166MOL   H10440034   2.723   3.867   6.589 -2.0782  1.4385 -0.5965
  166MOL   H10540035   2.683   3.756   6.722  0.5155 -2.2521 -0.4199
  166MOL   H10640036   2.888   3.472   6.596 -1.4600 -2.0313 -1.8254
  166MOL   H10740037   2.748   3.488   6.516  2.3590  0.1724 -1.7102
  166MOL   H10840038   2.749   3.510   6.694  1.9932  0.3056  0.5362
  166MOL   H10940039   2.955   3.654   6.314 -1.0813  0.0579  0.1645
  166MOL   C11040040   2.918   3.709   6.724  0.1063 -0.0828 -0.5079
  166MOL   C11140041   2.957   3.846   6.792 -0.2790 -0.1710  0.2198
  166MOL   C11240042   3.075   3.809   6.900  0.2027  0.5561 -0.6055
  166MOL   C11340043   3.025   3.940   6.690 -0.1956  0.5530  0.1595
  166MOL   O11440044   2.975   4.039   6.639  0.0223  0.0116 -0.0205
  166MOL   O11540045   3.147   3.892   6.655  0.1576  0.4397 -0.3725
  166MOL   H11640046   2.877   3.635   6.793 -0.2034 -0.3764 -1.0007
  166MOL   H11740047   3.013   3.666   6.691  0.9459  1.4963 -0.1700
  166MOL   H11840048   3.138   3.895   6.923  2.3321 -0.7164 -1.5384
  166MOL   H11940049   3.146   3.742   6.852  0.7171  0.2338  0.5701
  166MOL   H12040050   3.037   3.757   6.989  2.5191  0.4597  0.3725
  166MOL   H12140051   3.187   3.958   6.601  2.0144 -0.5966 -0.3031
  166MOL   C12240052   2.839   3.913   6.868  0.2584  0.6911 -0.4330
  166MOL   C12340053   2.836   4.026   6.973 -0.9224  0.0886 -0.4080
  166MOL   C12440054   2.682   4.043   7.009  0.3689 -0.6820  0.8361
  166MOL   C12540055   2.926   3.988   7.092 -0.3035  0.1623 -0.4069
  166MOL   O12640056   3.040   4.032   7.109 -0.0988  0.6328 -0.3970
  166MOL   O12740057   2.868   3.884   7.158 -0.1425  0.2687  0.1032
  166MOL   H12840058   2.766   3.928   6.789 -1.5154  0.8999  1.2052
  166MOL   H12940059   2.805   3.823   6.920 -1.4890  2.0476  0.8682
  166MOL   H13040060   2.658   4.120   7.082  0.2231 -0.4211  0.5172
  166MOL   H13140061   2.651   3.946   7.046  1.7597 -2.6840 -2.8921
  166MOL   H13240062   2.636   4.070   6.914  0.4950  0.8829  1.2033
  166MOL   H13340063   2.914   3.856   7.235  1.4071 -0.6342 -1.1094
  166MOL   C13440064   2.886   4.160   6.900 -0.5986 -0.6271  0.7382
  166MOL   C13540065   2.869   4.305   6.962  0.3410  0.4870 -0.1093
  166MOL   C13640066   2.989   4.384   6.918  0.2742  0.1775  0.1876
  166MOL   C13740067   2.746   4.372   6.891 -0.4756 -0.0352 -0.1055
  166MOL   O13840068   2.646   4.310   6.847 -0.4497 -0.7664  0.1747
  166MOL   O13940069   2.767   4.504   6.865  0.4699 -0.7440  0.3232
  166MOL   H14040070   2.992   4.138   6.884 -0.6556  0.0037 -0.5411
  166MOL   H14140071   2.848   4.150   6.799 -1.3794  1.2818  0.8157
  166MOL   H14240072   2.989   4.396   6.810 -3.2152  2.4865  0.3575
  166MOL   H14340073   3.081   4.332   6.945 -0.7511 -1.9525 -0.3506
  166MOL   H14440074   2.998   4.487   6.952 -0.5395  0.1334  0.5448
  166MOL   H14540075   2.700   4.547   6.813  2.6595  1.2808 -0.9173
  166MOL   C14640076   2.872   4.307   7.122 -0.1470 -0.4129  0.1908
  166MOL   C14740077   2.834   4.418   7.224 -0.0496  0.1205  0.2852
  166MOL   C14840078   2.911   4.548   7.197 -0.4772  0.5640  0.6045
  166MOL   C14940079   2.680   4.432   7.215  0.2660 -0.4862 -0.1270
  166MOL   O15040080   2.605   4.348   7.171  0.0726  0.2493  0.0317
  166MOL   O15140081   2.637   4.553   7.268  0.5294  0.1183 -0.1941
  166MOL   H15240082   2.824   4.219   7.164 -0.4490 -0.7061 -0.7500
  166MOL   H15340083   2.979   4.294   7.134  0.1244  0.1696 -1.4983
  166MOL   H15440084   3.020   4.549   7.188 -0.4902 -0.6618  0.2515
  166MOL   H15540085   2.882   4.638   7.250 -0.2948  1.3036 -0.5384
  166MOL   H15640086   2.884   4.582   7.097 -1.2757  1.2033  1.0362
  166MOL   H15740087   2.543   4.549   7.266  0.5209  0.4465 -0.7344
  166MOL   C15840088   2.848   4.374   7.374 -0.5375  0.0354 -0.2017
  166MOL   C15940089   2.980   4.368   7.454  0.0282 -0.6762 -0.6855
  166MOL   C16040090   3.099   4.300   7.380  0.4402  0.6551 -0.1549
  166MOL   C16140091   3.020   4.516   7.493  0.3732 -0.5993 -0.0095
  166MOL   O16240092   2.947   4.613   7.509 -0.3832  0.2307  0.1262
  166MOL   O16340093   3.155   4.523   7.507  0.6126 -0.5560 -0.0281
  166MOL   H16440094   2.771   4.418   7.438 -0.2218 -0.7453  0.7236
  166MOL   H16540095   2.818   4.269   7.365 -1.8395  0.4829 -1.3222
  166MOL   H16640096   3.065   4.208   7.333  1.6853 -0.2318  0.6782
  166MOL   H16740097   3.188   4.282   7.440 -0.1820  0.6465  0.7661
  166MOL   H16840098   3.150   4.355   7.301  1.8514 -1.7817 -0.9708
  166MOL   H16940099   3.185   4.603   7.547 -0.4829  0.9141 -2.0585
  166MOL   C17040100   2.969   4.301   7.593  0.0216  0.4547 -0.8970
  166MOL   C17140101   2.910   4.156   7.615 -0.1513 -0.1350  0.0382
  166MOL   C17240102   2.757   4.164   7.641  0.3245  0.5581  0.1610
  166MOL   C17340103   2.940   4.064   7.492 -0.5418  0.4383  0.1405
  166MOL   O17440104   2.858   4.031   7.411 -0.0451 -0.5954 -0.0034
  166MOL   O17540105   3.071   4.024   7.489 -0.5843  0.6742  0.0756
  166MOL   H17640106   3.065   4.313   7.643 -0.1183  0.0460 -0.5203
  166MOL   H17740107   2.911   4.361   7.664  0.0954 -1.2886  0.6818
  166MOL   H17840108   2.746   4.224   7.731 -0.8627 -0.4058  0.6727
  166MOL   H17940109   2.702   4.072   7.663  0.7513 -0.0421 -1.2102
  166MOL   H18040110   2.701   4.209   7.559 -0.0561 -0.0524  0.0797
  166MOL   H18140111   3.082   3.966   7.415  0.6065 -0.7282  1.3084
  166MOL   C18240112   2.969   4.100   7.747 -0.4179  0.9805  0.0660
  166MOL   C18340113   2.914   3.977   0.059 -0.2175 -0.0245 -0.3415
  166MOL   C18440114   3.024   3.952   0.168 -0.2212  0.3232  0.0565
  166MOL   C18540115   2.782   4.016   0.141  0.0199  0.2455 -0.1707
  166MOL   O18640116   2.674   3.954   0.143 -0.0695  0.6498 -0.3536
  166MOL   O18740117   2.802   4.127   0.214  0.1974 -0.4029 -0.3742
  166MOL   H18840118   3.077   4.088   7.738 -0.4309  0.7596  0.1889
  166MOL   H18940119   2.950   4.181   0.050 -0.8865  1.4823 -0.6342
  166MOL   H19040120   2.996   3.862   0.223 -4.1894 -0.0672 -2.3990
  166MOL   H19140121   3.027   4.035   0.238  1.9958  0.0627  0.3073
  166MOL   H19240122   3.123   3.944   0.123 -1.2393 -0.3990 -2.1294
  166MOL   H19340123   2.715   4.155   0.239  0.4462 -0.7755  0.9580
  166MOL   C19440124   2.894   3.847   7.734  0.1222 -0.4024  0.0864
  166MOL   C19540125   2.861   3.701   0.007 -0.1901 -0.0974  0.1009
  166MOL   C19640126   2.987   3.620   0.065  0.0136  0.1832 -0.4203
  166MOL   C19740127   2.762   3.685   0.132 -0.2210  0.4740 -0.3796
  166MOL   O19840128   2.794   3.729   0.242  0.3469 -0.1497 -0.5034
  166MOL   O19940129   2.648   3.615   0.116  0.2232 -0.4829  0.2269
  166MOL   H20040130   2.815   3.871   7.663 -1.2534  1.0657  2.0227
  166MOL   H20140131   2.988   3.830   7.682  0.3259 -0.7361  0.5531
  166MOL   H20240132   3.042   3.573   7.750  0.0705  2.0069 -1.4609
  166MOL   H20340133   2.965   3.543   0.139 -0.1105  1.2172  0.6326
  166MOL   H20440134   3.061   3.683   0.113  1.8526 -1.3263 -1.2075
  166MOL   H20540135   2.590   3.624   0.190  1.8131 -0.0476  1.4588
  166MOL   C20640136   2.812   3.608   7.656 -0.3226 -0.3102  0.3729
  166MOL   C20740137   2.696   3.643   7.551 -0.5978 -0.6867 -0.9893
  166MOL   C20840138   2.577   3.712   7.620  0.2004 -0.2734  0.3114
  166MOL   C20940139   2.752   3.733   7.439 -0.0312  0.3094 -0.2272
  166MOL   O21040140   2.862   3.718   7.387 -0.2080 -0.2201 -0.3445
  166MOL   O21140141   2.669   3.839   7.416  0.5059 -0.0097 -0.2230
  166MOL   H21240142   2.900   3.595   7.592 -0.2143 -1.7498  0.7832
  166MOL   H21340143   2.800   3.508   7.698 -1.6593  0.2338  1.3060
  166MOL   H21440144   2.629   3.785   7.682  1.3352 -1.9023  1.3279
  166MOL   H21540145   2.525   3.641   7.686 -1.3258 -0.6855 -1.2929
  166MOL   H21640146   2.500   3.758   7.559  3.0039  1.3915 -2.1088
  166MOL   H21740147   2.724   3.899   7.369  1.1730 -0.2486  0.2479
  166MOL   C21840148   2.648   3.504   7.492  0.3768 -0.7944  0.4032
  166MOL   C21940149   2.539   3.492   7.380 -0.8746 -0.4838 -0.6939
  166MOL   C22040150   2.527   3.343   7.353  0.2096 -0.3129  0.1099
  166MOL   C22140151   2.404   3.538   7.438  0.4557  0.1540  0.3570
  166MOL   O22240152   2.326   3.613   7.385  0.4098  0.0345  0.3056
  166MOL   O22340153   2.380   3.468   7.552 -0.3918  0.0089 -0.1687
  166MOL   H22440154   2.736   3.458   7.448 -0.1559 -1.3233 -0.1041
  166MOL   H22540155   2.623   3.448   7.582  0.6444  1.5321  1.9773
  166MOL   H22640156   2.442   3.315   7.292  0.2000  1.9793 -0.9898
  166MOL   H22740157   2.528   3.288   7.447 -0.2014 -1.3753 -0.5056
  166MOL   H22840158   2.619   3.302   7.311  0.0814 -0.9683  0.4710
  166MOL   H22940159   2.307   3.490   7.608  1.0657  1.2248  1.3160
  166MOL   C23040160   2.580   3.561   7.247  0.2114 -0.2800 -0.1401
  166MOL   C23140161   2.491   3.556   7.124  0.6126  0.4406  0.1490
  166MOL   C23240162   2.514   3.683   7.036  0.3403  0.8010  0.2061
  166MOL   C23340163   2.500   3.431   7.044 -0.5756 -0.0499 -0.1343
  166MOL   O23440164   2.409   3.346   7.028  0.0593 -0.5180 -0.8040
  166MOL   O23540165   2.618   3.426   6.978 -0.2601  0.5420  0.2634
  166MOL   H23640166   2.596   3.669   7.245  0.7415 -0.3126  1.5392
  166MOL   H23740167   2.675   3.516   7.218  0.0422 -0.4115 -0.4851
  166MOL   H23840168   2.448   3.685   6.950  0.1914  0.8767  0.3206
  166MOL   H23940169   2.616   3.696   7.001 -0.3941 -0.1838 -2.4208
  166MOL   H24040170   2.474   3.763   7.098  0.4744 -0.5348  2.0651
  166MOL   H24140171   2.611   3.341   6.938 -0.0183  1.2537 -1.2972
  166MOL   H24240172   2.388   3.569   7.155  0.9669 -0.0053  1.5334
  167MOL     C140173   4.462   2.771   2.292  0.1012  0.1201 -0.7475
  167MOL     C240174   4.503   2.895   2.213  0.2681 -0.3987 -0.3752
  167MOL     C340175   4.520   3.011   2.311 -0.1675 -0.1630  0.1036
  167MOL     C440176   4.641   2.883   2.141  0.3096  0.2534  0.3085
  167MOL     O540177   4.685   2.973   2.073 -0.4953 -0.6334  0.8828
  167MOL     O640178   4.703   2.763   2.173 -0.2543  0.2795 -0.1670
  167MOL     H740179   4.369   2.784   2.347 -0.2621  1.9337 -1.7749
  167MOL     H840180   4.525   2.753   2.379  0.9360  0.2599 -1.3184
  167MOL     H940181   4.611   3.005   2.372  0.6799 -0.0741 -1.1300
  167MOL    H1040182   4.441   3.009   2.386 -0.0320  5.1246  0.5407
  167MOL    H1140183   4.524   3.109   2.264 -1.5378 -0.7031 -1.1714
  167MOL    H1240184   4.787   2.749   2.132 -1.6340  0.7188 -3.3003
  167MOL    H1340185   4.467   2.683   2.228 -0.2292  0.0957 -0.7415
  167MOL    C1440186   4.402   2.946   2.106 -0.4424 -0.6976  0.1023
  167MOL    C1540187   4.349   2.863   1.975 -0.6996 -0.3954  0.6166
  167MOL    C1640188   4.457   2.824   1.880 -0.6201  0.5763 -0.0098
  167MOL    C1740189   4.272   2.736   2.023 -0.0674  0.0977 -0.4181
  167MOL    O1840190   4.278   2.626   1.977 -0.1243 -0.0400  0.0727
  167MOL    O1940191   4.182   2.763   2.124 -0.5312  0.8410 -0.5641
  167MOL    H2040192   4.313   2.981   2.159  0.4175  1.7197  0.0201
  167MOL    H2140193   4.454   3.033   2.066  1.9936 -2.2646 -0.2750
  167MOL    H2240194   4.534   2.754   1.914  0.1556  0.9970 -0.8880
  167MOL    H2340195   4.505   2.920   1.862 -0.9515  0.7867  0.2217
  167MOL    H2440196   4.434   2.796   1.778 -1.0620  1.1681 -0.0754
  167MOL    H2540197   4.127   2.694   2.158 -1.0650  0.5719 -1.9764
  167MOL    C2640198   4.250   2.955   1.901 -0.0222 -0.7043  0.2397
  167MOL    C2740199   4.128   2.913   1.805 -0.0398  0.0877  0.3418
  167MOL    C2840200   4.087   3.037   1.725  0.2660  0.3872  0.3121
  167MOL    C2940201   4.175   2.807   1.706  0.1122 -0.2499  0.2466
  167MOL    O3040202   4.138   2.694   1.716  0.0487 -0.0345 -0.0476
  167MOL    O3140203   4.256   2.860   1.611 -0.0643 -0.4987  0.6068
  167MOL    H3240204   4.195   3.013   1.974 -1.5116 -1.2437 -0.4395
  167MOL    H3340205   4.308   3.027   1.843 -2.4659 -1.2505 -3.0251
  167MOL    H3440206   4.174   3.081   1.678  0.3727  0.1164  0.2539
  167MOL    H3540207   4.034   3.110   1.786 -0.3727  2.0679 -2.1982
  167MOL    H3640208   4.014   3.015   1.647 -0.3393 -3.8164  1.8995
  167MOL    H3740209   4.275   2.799   1.542  0.8250 -0.4334  0.7896
  167MOL    C3840210   4.004   2.868   1.901  0.5127 -0.1911  0.6130
  167MOL    C3940211   3.850   2.867   1.862  0.5408  0.3884  0.2940
  167MOL    C4040212   3.842   2.769   1.736 -0.0192  0.0309  0.2934
  167MOL    C4140213   3.776   2.812   1.991 -0.7952 -0.2475 -0.3723
  167MOL    O4240214   3.815   2.851   2.101 -0.7629  0.0367  0.2471
  167MOL    O4340215   3.669   2.723   1.977 -0.2861 -0.1199 -0.1356
  167MOL    H4440216   4.019   2.762   1.918  0.6967 -0.3189 -0.3577
  167MOL    H4540217   4.016   2.912   2.001 -0.5615  1.4071  0.0680
  167MOL    H4640218   3.890   2.820   1.652  0.5349 -1.0624 -0.0562
  167MOL    H4740219   3.736   2.755   1.717  1.0003 -3.4456 -3.3828
  167MOL    H4840220   3.894   2.674   1.739 -1.4298 -0.7101  3.2129
  167MOL    H4940221   3.629   2.701   2.060 -2.0394  0.2080 -0.8666
  167MOL    C5040222   3.803   3.012   1.825 -0.4296  0.1903  0.0412
  167MOL    C5140223   3.651   3.056   1.814  0.3161 -1.0259 -0.1859
  167MOL    C5240224   3.564   2.946   1.748  1.1563  0.6417 -0.3879
  167MOL    C5340225   3.592   3.095   1.955 -0.7220  0.3121  0.3663
  167MOL    O5440226   3.654   3.109   2.060 -0.0475  0.4532 -0.0261
  167MOL    O5540227   3.458   3.117   1.947 -0.0206  0.3729 -0.1555
  167MOL    H5640228   3.851   3.085   1.890 -0.0936  0.1197 -0.1253
  167MOL    H5740229   3.834   3.022   1.721  1.0846 -0.8333  0.3820
  167MOL    H5840230   3.611   2.900   1.661  5.2458  1.8077  1.0809
  167MOL    H5940231   3.476   2.993   1.703 -0.4583 -1.2234  0.7128
  167MOL    H6040232   3.514   2.877   1.817 -1.0769  2.0151 -0.5964
  167MOL    H6140233   3.434   3.142   2.035 -1.1906  0.5227 -0.5083
  167MOL    C6240234   3.630   3.184   1.716  0.1286  0.1375  0.6797
  167MOL    C6340235   3.696   3.327   1.728  1.3186  0.8075  0.1925
  167MOL    C6440236   3.601   3.431   1.660  0.1891  0.6211 -0.0526
  167MOL    C6540237   3.698   3.376   1.883  0.1634  0.2156 -0.1471
  167MOL    O6640238   3.799   3.370   1.956 -0.4105 -0.0491  0.2653
  167MOL    O6740239   3.580   3.433   1.933 -0.1437  0.5280 -0.1393
  167MOL    H6840240   3.636   3.152   1.611 -1.6244 -1.2463  0.9610
  167MOL    H6940241   3.523   3.205   1.722  0.2544  0.7755  0.6710
  167MOL    H7040242   3.592   3.402   1.555 -1.2073 -2.3556  0.8412
  167MOL    H7140243   3.638   3.533   1.673  1.7629 -0.2221  2.4534
  167MOL    H7240244   3.499   3.434   1.697  0.3972 -0.0182  0.5720
  167MOL    H7340245   3.591   3.455   2.024 -0.3831  1.9456 -0.4283
  167MOL    C7440246   3.847   3.332   1.667 -0.0353  0.4695 -0.2150
  167MOL    C7540247   3.894   3.342   1.518  0.7992  0.0359 -0.0422
  167MOL    C7640248   3.821   3.234   1.433  0.0724  0.0713 -0.0509
  167MOL    C7740249   3.856   3.485   1.471  0.0684  0.4301 -0.3575
  167MOL    O7840250   3.884   3.592   1.530  0.6682 -0.3828  0.3244
  167MOL    O7940251   3.781   3.487   1.355 -0.2662 -0.6012 -0.6610
  167MOL    H8040252   3.900   3.410   1.723  0.0514  1.9942 -2.3451
  167MOL    H8140253   3.895   3.241   1.702 -0.1348 -0.1046 -1.5232
  167MOL    H8240254   3.716   3.259   1.421  0.3298  2.0798  1.6334
  167MOL    H8340255   3.829   3.135   1.478 -3.7003 -0.3287 -0.1165
  167MOL    H8440256   3.851   3.238   1.329 -0.5337 -4.0047 -0.4624
  167MOL    H8540257   3.775   3.573   1.316  1.0181 -0.5111 -0.6925
  167MOL    C8640258   4.049   3.333   1.516  0.1480  0.6233 -0.3175
  167MOL    C8740259   4.139   3.330   1.385 -0.2188 -0.7001 -0.4773
  167MOL    C8840260   4.287   3.332   1.436 -0.4123 -0.7109  0.1149
  167MOL    C8940261   4.121   3.187   1.322  0.2044  0.2302  0.0979
  167MOL    O9040262   4.052   3.170   1.218  0.1953 -0.0015  0.1173
  167MOL    O9140263   4.183   3.087   1.387 -0.1159 -0.7636  0.1480
  167MOL    H9240264   4.095   3.409   1.579  0.9351 -0.2255  0.1478
  167MOL    H9340265   4.065   3.251   1.585 -1.1845  0.5767 -0.0374
  167MOL    H9440266   4.331   3.426   1.470  1.5016 -0.7394 -2.1572
  167MOL    H9540267   4.359   3.304   1.359  0.4288 -0.0544  0.6484
  167MOL    H9640268   4.307   3.262   1.517  0.1214  0.0494  0.6484
  167MOL    H9740269   4.184   3.009   1.334  1.0382 -0.6823  0.0418
  167MOL    C9840270   4.096   3.454   1.289  0.0259  0.5800 -0.1101
  167MOL    C9940271   4.176   3.496   1.156 -0.3831 -0.3177  0.4697
  167MOL   C10040272   4.190   3.377   1.063  0.3994 -0.0955  0.1597
  167MOL   C10140273   4.075   3.594   1.088 -0.1716  0.4927  0.4615
  167MOL   O10240274   4.086   3.716   1.097 -0.3194  0.0682 -0.3605
  167MOL   O10340275   3.969   3.535   1.028  0.0160  0.2173  0.1871
  167MOL   H10440276   3.996   3.426   1.256  1.2841 -2.2457 -1.6566
  167MOL   H10540277   4.098   3.548   1.345  2.3124 -1.0174  2.5844
  167MOL   H10640278   4.268   3.309   1.098 -0.7262 -1.2373  0.5266
  167MOL   H10740279   4.222   3.420   0.968  2.2100  1.1216  1.2934
  167MOL   H10840280   4.091   3.331   1.052  1.1238 -1.5781 -0.3463
  167MOL   H10940281   3.962   3.447   1.061  2.0515 -0.3189 -0.7544
  167MOL   C11040282   4.313   3.573   1.191 -0.4035  0.0401 -0.6887
  167MOL   C11140283   4.420   3.622   1.084  0.5350 -0.4605  0.0477
  167MOL   C11240284   4.501   3.500   1.026  0.9425  0.1330 -0.1037
  167MOL   C11340285   4.367   3.697   0.957 -0.0552 -0.3236 -0.3764
  167MOL   O11440286   4.351   3.818   0.952 -0.0835 -0.2488 -0.3307
  167MOL   O11540287   4.352   3.623   0.844 -0.6169 -0.5315  0.3953
  167MOL   H11640288   4.279   3.660   1.247  0.5951  1.5314 -2.3198
  167MOL   H11740289   4.373   3.511   1.258  0.5835  1.4592 -0.2406
  167MOL   H11840290   4.581   3.538   0.962 -0.8480  0.9307 -1.9301
  167MOL   H11940291   4.453   3.432   0.956 -1.4409  0.2827  1.3157
  167MOL   H12040292   4.550   3.434   1.097  0.9938 -1.6009 -1.7151
  167MOL   H12140293   4.317   3.675   0.773  0.5195  0.5553  0.6173
  167MOL   C12240294   4.534   3.708   1.149  0.7890 -0.0978 -0.9154
  167MOL   C12340295   4.507   3.820   1.255 -0.4464 -1.1603  0.3559
  167MOL   C12440296   4.395   3.920   1.207 -0.1583 -0.4142  0.0044
  167MOL   C12540297   4.466   3.770   1.396  0.3616  0.0451 -0.1706
  167MOL   O12640298   4.374   3.811   1.462  0.1844 -0.0088 -0.1708
  167MOL   O12740299   4.542   3.665   1.430 -0.1263  0.2628 -0.3173
  167MOL   H12840300   4.613   3.647   1.191  2.1587  2.1387 -0.1419
  167MOL   H12940301   4.592   3.745   1.065 -0.7756 -1.0078 -2.4209
  167MOL   H13040302   4.420   3.984   1.123 -1.7167  1.9961  1.3072
  167MOL   H13140303   4.361   3.996   1.278 -0.6552 -0.4395 -0.2019
  167MOL   H13240304   4.300   3.870   1.188 -0.2689  1.0521 -3.7693
  167MOL   H13340305   4.521   3.632   1.516  0.2737  1.3846  0.2215
  167MOL   C13440306   4.638   3.910   1.254  0.6908  0.3203 -0.4780
  167MOL   C13540307   4.790   3.874   1.291  0.4836  0.3419 -0.2320
  167MOL   C13640308   4.848   3.778   1.185 -0.6036 -0.0833  0.0110
  167MOL   C13740309   4.881   4.003   1.274  0.5118 -0.1967  0.0918
  167MOL   O13840310   4.835   4.114   1.254 -0.1286 -0.2656 -0.0550
  167MOL   O13940311   5.019   3.979   1.272 -0.0080 -0.4473 -0.3007
  167MOL   H14040312   4.644   3.949   1.152  1.2593  2.0389  0.2025
  167MOL   H14140313   4.613   3.998   1.313 -0.2147  1.5178 -2.5652
  167MOL   H14240314   4.957   3.770   1.189 -0.3762  2.4059 -0.3468
  167MOL   H14340315   4.812   3.799   1.085 -1.2874 -0.4645  0.1744
  167MOL   H14440316   4.821   3.675   1.206 -0.1547 -0.0392  0.8203
  167MOL   H14540317   5.052   4.060   1.237  0.5876  0.0113  1.2620
  167MOL   C14640318   4.819   3.822   1.443 -0.4129  0.0861  0.6431
  167MOL   C14740319   4.815   3.914   1.572  0.9454  0.4336  0.2777
  167MOL   C14840320   4.809   3.805   1.683  0.6943  0.0715 -0.0780
  167MOL   C14940321   4.944   3.994   1.591  0.3000 -0.4288  0.5927
  167MOL   O15040322   4.954   4.114   1.579  0.6037  0.3910 -0.2317
  167MOL   O15140323   5.050   3.918   1.637  0.0270 -0.1955 -0.0265
  167MOL   H15240324   4.752   3.740   1.466  1.2814 -1.7988 -0.9538
  167MOL   H15340325   4.916   3.774   1.439 -0.3381  0.1677  1.3785
  167MOL   H15440326   4.834   3.838   1.784  0.1549 -0.3257  0.1871
  167MOL   H15540327   4.878   3.721   1.671  0.4909 -0.1989  0.6032
  167MOL   H15640328   4.715   3.750   1.690 -0.1653  1.4143 -0.8624
  167MOL   H15740329   5.126   3.970   1.657 -0.8719  0.8903  0.6079
  167MOL   C15840330   4.684   4.001   1.578 -0.0602  0.8920 -0.2978
  167MOL   C15940331   4.621   4.057   1.709 -0.5327 -0.3436  0.1901
  167MOL   C16040332   4.733   4.095   1.811  0.0709 -0.0159  0.0472
  167MOL   C16140333   4.543   4.179   1.659  0.2484 -0.1474  0.0945
  167MOL   O16240334   4.566   4.294   1.688 -0.3166  0.1069  0.5335
  167MOL   O16340335   4.446   4.142   1.572 -0.1502 -0.3397 -0.7110
  167MOL   H16440336   4.708   4.086   1.515 -0.1927  0.0261 -1.5327
  167MOL   H16540337   4.608   3.955   1.515 -0.2080 -0.3479  0.7605
  167MOL   H16640338   4.805   4.160   1.761 -0.0439  2.0704  2.5152
  167MOL   H16740339   4.799   4.017   1.851  1.6407  1.4492  0.3432
  167MOL   H16840340   4.697   4.151   1.897  1.8444  1.3008 -0.0472
  167MOL   H16940341   4.417   4.225   1.536 -1.7116 -0.8645 -0.6791
  167MOL   C17040342   4.519   3.949   1.779 -0.2077  0.1661 -0.0714
  167MOL   C17140343   4.421   3.966   1.909  0.6547 -0.1019  0.0900
  167MOL   C17240344   4.504   4.025   2.024  0.3984 -0.2605 -0.3493
  167MOL   C17340345   4.305   4.059   1.883 -0.2207  0.3474 -0.0054
  167MOL   O17440346   4.240   4.115   1.969 -0.2000 -0.1736  0.2856
  167MOL   O17540347   4.270   4.066   1.754 -0.4776 -0.2288  0.3414
  167MOL   H17640348   4.451   3.921   1.698  0.1128  1.8551 -0.9476
  167MOL   H17740349   4.585   3.868   1.808  0.3193 -0.6520 -3.4014
  167MOL   H17840350   4.599   3.973   2.035 -0.3872 -1.9799 -1.4861
  167MOL   H17940351   4.458   4.019   2.123 -1.2111 -0.0090 -1.0714
  167MOL   H18040352   4.528   4.131   2.013  2.4336 -0.6091  0.4222
  167MOL   H18140353   4.342   4.046   1.697 -1.5827  1.1131 -1.5839
  167MOL   C18240354   4.366   3.827   1.965 -0.1179 -0.6136 -0.1148
  167MOL   C18340355   4.329   3.693   1.890  0.5524 -0.2211  0.2432
  167MOL   C18440356   4.210   3.735   1.792 -0.3041  0.2470  0.3566
  167MOL   C18540357   4.448   3.629   1.816  0.0662 -0.0239  1.1655
  167MOL   O18640358   4.442   3.599   1.696 -0.2211 -0.3961  0.0521
  167MOL   O18740359   4.562   3.614   1.890  0.5862 -0.2966  0.2657
  167MOL   H18840360   4.442   3.789   2.034  0.9985 -0.3853 -1.1985
  167MOL   H18940361   4.272   3.851   2.013 -1.1626  0.2018 -2.4733
  167MOL   H19040362   4.120   3.763   1.847  0.0927  1.1824  0.5300
  167MOL   H19140363   4.176   3.652   1.730  0.2933 -0.0532  0.4242
  167MOL   H19240364   4.233   3.814   1.721 -0.1551 -0.9871 -0.9863
  167MOL   H19340365   4.546   3.629   1.982  1.4292  0.7471  0.2506
  167MOL   C19440366   4.277   3.604   2.005 -0.0639 -0.4832  0.5988
  167MOL   C19540367   4.232   3.446   1.998 -1.2953 -0.0032 -0.4223
  167MOL   C19640368   4.154   3.415   1.871 -0.2922 -0.2652 -0.5358
  167MOL   C19740369   4.355   3.356   1.995 -0.6954 -0.3040  0.5976
  167MOL   O19840370   4.368   3.261   1.920 -0.1815 -0.4738  0.0377
  167MOL   O19940371   4.454   3.402   2.076  0.1416  0.5881  0.1860
  167MOL   H20040372   4.344   3.623   2.088 -1.1179  1.0110  1.1229
  167MOL   H20140373   4.181   3.649   2.030  1.1107  1.3536  1.9194
  167MOL   H20240374   4.212   3.407   1.780  0.6526 -0.2520  0.0554
  167MOL   H20340375   4.074   3.488   1.858  0.4626  0.2203 -2.5863
  167MOL   H20440376   4.114   3.315   1.889  2.5270 -1.3077  0.2069
  167MOL   H20540377   4.535   3.353   2.077  1.1658  2.2658  1.2543
  167MOL   C20640378   4.139   3.414   2.122  0.1055  0.0499  0.4639
  167MOL   C20740379   4.178   3.371   2.271 -0.4877  0.3367  0.3163
  167MOL   C20840380   4.229   3.225   2.281  0.2610  0.1300  0.1098
  167MOL   C20940381   4.284   3.466   2.330  0.6012  0.3710  0.4265
  167MOL   O21040382   4.398   3.430   2.360 -0.4549 -0.1654 -0.2290
  167MOL   O21140383   4.246   3.597   2.333 -0.2687  0.6553  0.3915
  167MOL   H21240384   4.076   3.502   2.133  0.8563  1.0767 -2.8864
  167MOL   H21340385   4.070   3.334   2.096 -1.1342  1.9359 -2.2237
  167MOL   H21440386   4.275   3.217   2.380  0.3086  1.5169  0.2102
  167MOL   H21540387   4.306   3.206   2.206  0.4335 -1.4901  0.6736
  167MOL   H21640388   4.150   3.151   2.266  0.5742 -0.0048 -0.9154
  167MOL   H21740389   4.156   3.608   2.307 -1.1071  0.8346  3.2690
  167MOL   C21840390   4.039   3.374   2.345 -0.6048  0.2587  0.0515
  167MOL   C21940391   4.016   3.364   2.505  0.4820  0.2564 -0.3111
  167MOL   C22040392   4.115   3.268   2.567  0.0989 -0.4058 -0.2726
  167MOL   C22140393   4.031   3.502   2.583 -0.2477 -0.6153 -0.1642
  167MOL   O22240394   4.003   3.610   2.533  0.3600 -0.5594  0.0007
  167MOL   O22340395   4.049   3.489   2.719 -0.0103  0.3626 -0.2481
  167MOL   H22440396   3.995   3.471   2.321  2.2082  2.4486  3.2413
  167MOL   H22540397   3.961   3.320   2.291  1.4523 -1.5529 -1.1843
  167MOL   H22640398   4.103   3.244   2.673 -1.0324  0.7779 -0.1242
  167MOL   H22740399   4.217   3.308   2.567 -0.5317  1.2316 -0.4983
  167MOL   H22840400   4.106   3.170   2.521 -0.7399  0.1521 -1.3044
  167MOL   H22940401   4.079   3.405   2.748  0.0161  1.1168  1.9881
  167MOL   C23040402   3.868   3.323   2.532  0.2853  0.3468  0.5264
  167MOL   C23140403   3.832   3.170   2.541 -0.0200  0.4487  0.6165
  167MOL   C23240404   3.697   3.157   2.612  0.3303  0.1517 -0.7303
  167MOL   C23340405   3.830   3.095   2.412  0.4856  1.1644  0.0769
  167MOL   O23440406   3.891   2.989   2.394  0.8720 -0.1067  0.2589
  167MOL   O23540407   3.751   3.167   2.323  0.1345  0.7031  0.0876
  167MOL   H23640408   3.833   3.365   2.626 -1.3845  0.9304 -0.3445
  167MOL   H23740409   3.801   3.378   2.466 -0.7010 -0.7738  0.5917
  167MOL   H23840410   3.711   3.181   2.717  0.6307 -0.6009 -0.5944
  167MOL   H23940411   3.675   3.050   2.617  0.0596  0.3171  2.6716
  167MOL   H24040412   3.611   3.215   2.578 -0.2471  0.0084  0.4475
  167MOL   H24140413   3.757   3.129   2.236 -0.9636 -0.1352  0.3694
  167MOL   H24240414   3.903   3.122   2.608  1.3816  0.9292 -0.5094
  168MOL     C140415   7.388   0.263   1.840 -0.4529  0.0880  0.0942
  168MOL     C240416   7.453   0.188   1.719  0.1780 -0.2866  0.7849
  168MOL     C340417   7.457   0.042   1.759  0.3809 -0.4516  0.1164
  168MOL     C440418   7.366   0.200   1.586 -0.0580  0.4879 -0.6510
  168MOL     O540419   7.316   0.107   1.516  0.5077 -0.0779  0.3226
  168MOL     O640420   7.344   0.334   1.555 -0.0826 -0.5571 -0.3462
  168MOL     H740421   7.279   0.262   1.844 -0.6064 -3.9310 -1.9296
  168MOL     H840422   7.398   0.371   1.834  0.3979  0.0215  0.3463
  168MOL     H940423   7.496   7.738   1.686 -1.4125 -1.6106  0.2586
  168MOL    H1040424   7.354   0.016   1.783  0.2107 -0.2965 -0.4440
  168MOL    H1140425   7.519   0.036   1.849 -0.4124  0.9437  0.7834
  168MOL    H1240426   7.378   0.392   1.621 -0.9296  1.0478 -1.2797
  168MOL    H1340427   7.425   0.235   1.939 -1.4997 -0.9182  0.2182
  168MOL    C1440428   7.593   0.249   1.685  0.3125  0.0654 -0.2439
  168MOL    C1540429   7.680   0.207   1.556  0.0654 -0.3922  0.1004
  168MOL    C1640430   7.624   0.292   1.435 -0.2825 -0.5436 -0.4237
  168MOL    C1740431   0.055   0.263   1.578  0.2791 -0.1187  0.3195
  168MOL    O1840432   0.100   0.370   1.532  0.3708 -0.3170  0.2193
  168MOL    O1940433   0.126   0.184   1.669 -0.1607 -0.4252 -0.3447
  168MOL    H2040434   7.598   0.358   1.684 -2.7697  0.2519  0.2526
  168MOL    H2140435   7.645   0.217   1.776  0.0947 -0.2437 -0.2279
  168MOL    H2240436   7.598   0.392   1.467  2.8605  0.2636 -0.2344
  168MOL    H2340437   7.550   0.243   1.371  1.7226 -0.3966 -2.9400
  168MOL    H2440438   7.702   0.324   1.367 -1.6929 -0.3172 -1.9635
  168MOL    H2540439   0.091   0.099   1.689 -2.3048  0.4433 -0.2741
  168MOL    C2640440   7.670   0.059   1.518 -0.3449  0.2039  0.1589
  168MOL    C2740441   0.003   7.752   1.428 -0.6473  0.1719 -0.2315
  168MOL    C2840442   0.074   0.084   1.335 -0.2305  0.0408  0.2434
  168MOL    C2940443   0.119   7.669   1.503  0.3334  0.1070  0.2983
  168MOL    O3040444   0.129   7.680   1.626 -0.0737 -0.2168  0.0174
  168MOL    O3140445   0.210   7.615   1.425 -0.2956  0.6025 -0.1823
  168MOL    H3240446   7.678   0.005   1.613 -2.8834  1.7877  1.3415
  168MOL    H3340447   7.571   0.031   1.483 -0.8068  2.9085 -0.7342
  168MOL    H3440448   0.015   0.159   1.282  1.4651  0.5619 -0.9792
  168MOL    H3540449   0.111   0.023   1.253  1.2004  1.4924 -0.2402
  168MOL    H3640450   0.161   0.124   1.387 -1.9685  2.6638  1.2680
  168MOL    H3740451   0.274   7.567   1.475 -0.2809  1.2831  0.4603
  168MOL    C3840452   7.704   7.650   1.323 -0.3953 -0.0118  0.1368
  168MOL    C3940453   7.586   7.545   1.354 -0.1863 -0.5183  0.1900
  168MOL    C4040454   7.616   7.481   1.494  0.0565 -0.0466  0.2459
  168MOL    C4140455   7.445   7.605   1.369  0.2857  0.5832  0.3171
  168MOL    O4240456   7.358   7.549   1.435 -0.4842  0.3812 -0.0069
  168MOL    O4340457   7.424   7.718   1.294 -0.3250  0.4508 -0.1574
  168MOL    H4440458   7.664   7.713   1.243 -2.1357 -0.3715  0.7030
  168MOL    H4540459   0.013   7.588   1.275 -0.0045 -1.1725  2.2268
  168MOL    H4640460   7.718   7.443   1.503 -0.5437 -1.6680  0.3744
  168MOL    H4740461   7.542   7.402   1.508 -0.9697  0.4334 -2.1196
  168MOL    H4840462   7.607   7.554   1.575 -2.7686  1.5227 -1.3855
  168MOL    H4940463   7.333   7.745   1.298 -0.5571 -0.5652  1.8455
  168MOL    C5040464   7.578   7.426   1.251  0.3218  0.8278  0.7219
  168MOL    C5140465   7.533   7.425   1.100 -0.8222  0.1798  0.3031
  168MOL    C5240466   7.583   7.556   1.029 -0.7424  0.3372 -0.1428
  168MOL    C5340467   7.587   7.294   1.041 -0.2518  0.1417  1.2587
  168MOL    O5440468   7.661   7.288   0.938  0.2769 -0.0690 -0.2810
  168MOL    O5540469   7.555   7.189   1.121  0.1432 -0.4870  0.3429
  168MOL    H5640470   7.674   7.376   1.265  0.7254  1.3104 -0.2925
  168MOL    H5740471   7.516   7.352   1.302 -0.1829 -0.1527 -1.2847
  168MOL    H5840472   7.690   7.571   1.045  0.0413 -3.6775 -1.0635
  168MOL    H5940473   7.542   7.648   1.068  0.6626  0.7020  0.5050
  168MOL    H6040474   7.572   7.541   0.921 -0.9017 -2.1787  0.1974
  168MOL    H6140475   7.580   7.110   1.076  0.9026 -0.1297  0.1241
  168MOL    C6240476   7.376   7.430   1.095  0.3984  0.0722 -0.9166
  168MOL    C6340477   7.285   7.395   0.966 -0.0687  0.1614  0.3823
  168MOL    C6440478   7.150   7.453   1.002  1.1750  0.3427  0.2903
  168MOL    C6540479   7.335   7.475   0.843 -0.2664  0.1090  0.1505
  168MOL    O6640480   7.419   7.423   0.766  0.2581  0.4923  0.3438
  168MOL    O6740481   7.324   7.608   0.851  0.0334 -0.2531  0.4374
  168MOL    H6840482   7.337   7.376   1.181 -1.4925  1.5605 -0.8030
  168MOL    H6940483   7.350   7.529   1.134  1.0230 -0.5600  1.1774
  168MOL    H7040484   7.090   7.381   1.058 -1.2495  1.6139 -0.5664
  168MOL    H7140485   7.088   7.491   0.920  0.3145  0.1861  0.8547
  168MOL    H7240486   7.160   7.541   1.065  0.6003  1.8559 -1.6690
  168MOL    H7340487   7.387   7.649   0.794 -0.5219  1.6678  1.1582
  168MOL    C7440488   7.273   7.236   0.924  0.5705  0.5774  0.3915
  168MOL    C7540489   7.156   7.167   0.838  0.4790 -0.2134  0.3846
  168MOL    C7640490   7.040   7.122   0.930 -0.1477 -0.3586  0.3319
  168MOL    C7740491   7.099   7.257   0.725 -0.0007 -0.0277 -0.3457
  168MOL    O7840492   6.981   7.296   0.707 -0.0927 -0.7092  0.0893
  168MOL    O7940493   7.196   7.291   0.633 -0.1793  0.3948 -0.1067
  168MOL    H8040494   7.373   7.208   0.893  0.9361  1.3475  0.8653
  168MOL    H8140495   7.272   7.188   1.022 -1.5432  2.9577  1.5963
  168MOL    H8240496   6.960   7.070   0.877 -0.4486 -0.7850  1.2027
  168MOL    H8340497   6.987   7.210   0.969  0.7549  1.3888 -2.1983
  168MOL    H8440498   7.066   7.052   1.009 -2.9367  0.6786  2.2657
  168MOL    H8540499   7.156   7.330   0.557 -1.9034 -1.5194 -0.2269
  168MOL    C8640500   7.221   7.044   0.769 -0.1667 -0.4419 -0.3470
  168MOL    C8740501   7.142   6.925   0.698 -0.3416 -0.1715  0.1102
  168MOL    C8840502   7.093   6.817   0.805  0.3671 -0.0874 -0.2607
  168MOL    C8940503   7.015   6.970   0.623  0.7984 -0.1015 -0.6885
  168MOL    O9040504   7.013   7.020   0.509  0.1800  0.8464  0.1816
  168MOL    O9140505   6.899   6.951   0.695 -0.1731  0.0463 -0.4421
  168MOL    H9240506   7.288   7.078   0.691  1.4419 -0.5489  0.9603
  168MOL    H9340507   7.297   7.004   0.836  0.1740 -0.4650 -0.7542
  168MOL    H9440508   7.013   6.757   0.762 -2.5676  2.9907  0.6702
  168MOL    H9540509   7.054   6.852   0.900  0.1270 -0.4047 -0.2423
  168MOL    H9640510   7.174   6.765   0.856 -0.1897  1.0344  1.8217
  168MOL    H9740511   6.827   6.970   0.638 -1.8584  0.5629  1.7775
  168MOL    C9840512   7.244   6.848   0.605 -0.0546 -0.3143 -0.0992
  168MOL    C9940513   7.208   6.755   0.484 -0.0813 -0.9760 -0.2085
  168MOL   C10040514   7.079   6.675   0.495 -0.1667  0.3818 -0.0600
  168MOL   C10140515   7.181   6.851   0.363  0.8194 -0.8362 -0.3479
  168MOL   O10240516   7.066   6.869   0.313 -1.0045 -0.4485 -0.2843
  168MOL   O10340517   7.294   6.903   0.311 -0.0679  0.0601 -0.4347
  168MOL   H10440518   7.322   6.916   0.571 -1.9909  1.3849 -1.2021
  168MOL   H10540519   7.297   6.785   0.677  0.0451  0.4337  0.4853
  168MOL   H10640520   7.059   6.607   0.412  0.4358  0.0656  0.0522
  168MOL   H10740521   6.997   6.747   0.488 -0.1891  0.0964 -4.6948
  168MOL   H10840522   7.075   6.625   0.592  1.3151 -0.5687 -0.4707
  168MOL   H10940523   7.285   6.958   0.234  1.3270 -1.1558 -1.5167
  168MOL   C11040524   7.339   6.667   0.455  0.2990 -0.7813  0.2630
  168MOL   C11140525   7.373   6.537   0.532 -0.6504  0.0581 -0.1793
  168MOL   C11240526   7.339   6.541   0.686  0.3513 -0.7885 -0.2249
  168MOL   C11340527   7.282   6.428   0.467 -0.3021 -0.4232  0.5448
  168MOL   O11440528   7.286   6.400   0.347 -0.7806  0.3000  0.2123
  168MOL   O11540529   7.212   6.363   0.562  0.5307 -0.5118  0.4671
  168MOL   H11640530   7.332   6.642   0.349  1.3807  0.9368 -0.2294
  168MOL   H11740531   7.428   6.729   0.464  0.1634 -0.5277 -0.1481
  168MOL   H11840532   7.355   6.449   0.743 -1.7287 -1.6714 -1.0423
  168MOL   H11940533   7.236   6.571   0.704  0.8045  0.0721  0.9939
  168MOL   H12040534   7.410   6.611   0.730  0.1598  0.2330 -1.5043
  168MOL   H12140535   7.146   6.308   0.523 -0.5297  1.1774 -0.1612
  168MOL   C12240536   7.524   6.491   0.493 -0.5102 -0.5969  0.3973
  168MOL   C12340537   7.590   6.347   0.511  0.5328 -0.1004 -0.0820
  168MOL   C12440538   7.532   6.270   0.636 -0.0749  0.0916 -0.1245
  168MOL   C12540539   7.564   6.264   0.386  0.2745 -0.4544 -0.1912
  168MOL   O12640540   7.530   6.146   0.390 -0.0348  0.0296 -0.2920
  168MOL   O12740541   7.615   6.321   0.273 -0.0219  0.1275 -0.6098
  168MOL   H12840542   7.536   6.517   0.387 -0.2697  0.0892  0.5905
  168MOL   H12940543   7.582   6.565   0.548 -0.2235 -0.8161  0.3948
  168MOL   H13040544   7.555   6.319   0.731 -0.5755 -0.9921  0.5616
  168MOL   H13140545   7.573   6.169   0.636 -0.5219 -0.1004  0.9782
  168MOL   H13240546   7.425   6.253   0.636 -0.1343  0.4247 -1.9428
  168MOL   H13340547   7.592   6.261   0.203  0.9970 -0.4135 -0.4835
  168MOL   C13440548   7.749   6.370   0.523 -0.6873 -0.0299  0.4909
  168MOL   C13540549   0.088   6.277   0.592 -0.3991 -0.0492 -0.0968
  168MOL   C13640550   0.081   6.301   0.742 -0.4792  0.3008  0.6595
  168MOL   C13740551   0.065   6.124   0.564  0.0527 -0.8215 -0.2612
  168MOL   O13840552   0.053   6.040   0.657 -0.0145  0.2714  0.5585
  168MOL   O13940553   0.068   6.094   0.431  0.4065  0.1006 -0.1132
  168MOL   H14040554   0.021   6.378   0.422 -1.1452 -1.9889  0.1412
  168MOL   H14140555   0.002   6.473   0.553 -1.3031  0.6417 -1.3230
  168MOL   H14240556   0.170   6.275   0.800  1.2875  0.3253 -1.9360
  168MOL   H14340557   7.764   6.243   0.781 -0.6352 -0.6320 -1.0010
  168MOL   H14440558   0.074   6.408   0.762  0.7474  0.7670 -1.2386
  168MOL   H14540559   0.066   6.000   0.431  2.1572  0.0331 -1.2846
  168MOL   C14640560   0.239   6.298   0.547  0.2522  1.0462 -0.1515
  168MOL   C14740561   0.296   6.440   0.513 -0.1319  0.2905 -0.1915
  168MOL   C14840562   0.450   6.406   0.496 -0.2870  1.1226  0.5955
  168MOL   C14940563   0.250   6.489   0.375  0.9303  0.2341  0.6856
  168MOL   O15040564   0.219   6.599   0.331  0.0292  0.1244  0.5662
  168MOL   O15140565   0.253   6.386   0.285  0.3108  0.0248 -0.0763
  168MOL   H15240566   0.310   6.257   0.618 -0.1966  2.6320  1.2233
  168MOL   H15340567   0.265   6.234   0.462 -2.0912  1.0739 -0.9317
  168MOL   H15440568   0.457   6.339   0.410 -1.5168 -0.1715  1.4776
  168MOL   H15540569   0.500   6.359   0.580 -0.9758  1.3778  1.1582
  168MOL   H15640570   0.499   6.495   0.457  0.0303 -0.0622 -1.8200
  168MOL   H15740571   0.266   6.421   0.198 -2.2133 -1.1851 -1.0235
  168MOL   C15840572   0.272   6.543   0.627  0.2389  0.1160  0.2465
  168MOL   C15940573   0.329   6.698   0.650  0.2201 -0.4619  0.3462
  168MOL   C16040574   0.346   6.722   0.801  0.2103  0.1389 -0.6251
  168MOL   C16140575   0.469   6.713   0.594 -0.3294  0.2373  0.0201
  168MOL   O16240576   0.502   6.797   0.508 -0.5190  0.3143 -0.2981
  168MOL   O16340577   0.567   6.633   0.657  0.2691 -0.1234 -0.3716
  168MOL   H16440578   0.165   6.559   0.638  0.4771  2.2228 -0.1958
  168MOL   H16540579   0.307   6.496   0.719  1.3253  1.2440  0.4343
  168MOL   H16640580   0.391   6.817   0.829 -1.5124  0.7106  0.3073
  168MOL   H16740581   0.398   6.640   0.851  2.5004  1.1835 -1.2621
  168MOL   H16840582   0.249   6.744   0.845  1.0808  1.3240  0.7512
  168MOL   H16940583   0.644   6.635   0.602  0.6011  0.9770  0.1244
  168MOL   C17040584   0.220   6.798   0.579 -0.5915  0.6666 -0.5124
  168MOL   C17140585   0.182   6.948   0.621  0.1363 -0.4553  0.2054
  168MOL   C17240586   0.156   6.968   0.774  0.2674 -0.3706 -0.3035
  168MOL   C17340587   0.302   7.042   0.597 -1.1240 -0.4293  0.3708
  168MOL   O17440588   0.352   7.116   0.679 -0.2293 -0.1929  0.1541
  168MOL   O17540589   0.334   7.039   0.469  0.0566  0.6634 -0.2164
  168MOL   H17640590   0.248   6.807   0.474  2.4848  3.3922  0.4858
  168MOL   H17740591   0.122   6.751   0.563 -0.3876  0.1885 -0.3698
  168MOL   H17840592   0.117   7.067   0.798  1.5407  0.4424 -1.4771
  168MOL   H17940593   0.250   6.963   0.828 -0.5158  2.0394  1.3597
  168MOL   H18040594   0.090   6.887   0.805 -1.8271  1.6332  0.6429
  168MOL   H18140595   0.411   7.090   0.450  0.0256  0.8536  0.1790
  168MOL   C18240596   0.063   7.009   0.532 -0.6439  0.6619  0.0062
  168MOL   C18340597   7.680   7.018   0.558  0.7819  0.1843  1.0301
  168MOL   C18440598   7.636   6.861   0.569 -0.2329  0.6938 -0.4540
  168MOL   C18540599   7.636   7.095   0.683  1.0766  0.2304 -0.3804
  168MOL   O18640600   7.560   7.046   0.767  0.1514 -0.1298 -0.7874
  168MOL   O18740601   7.695   7.213   0.690  0.0683 -0.1789 -0.3076
  168MOL   H18840602   0.084   7.116   0.528  0.9931  0.3670  0.7523
  168MOL   H18940603   0.083   6.975   0.430  2.6960 -0.4631  0.9842
  168MOL   H19040604   7.529   6.866   0.585 -0.4531  1.1105 -1.9551
  168MOL   H19140605   7.684   6.823   0.659 -2.0365  1.2775  0.7816
  168MOL   H19240606   7.665   6.805   0.480  1.1109 -1.2412  1.1686
  168MOL   H19340607   7.682   7.240   0.780  1.6314  2.7637 -0.8975
  168MOL   C19440608   7.615   7.053   0.421 -1.1567  0.2995 -0.9961
  168MOL   C19540609   7.559   7.189   0.374  0.0323  0.0105  0.5470
  168MOL   C19640610   7.421   7.214   0.439 -0.2978  0.0240 -0.7205
  168MOL   C19740611   7.645   7.306   0.419  0.5513 -0.0250  0.2466
  168MOL   O19840612   7.606   7.395   0.497 -0.0175 -0.3021 -0.1259
  168MOL   O19940613   0.003   7.293   0.374  0.1544  0.2929  0.0169
  168MOL   H20040614   7.678   7.014   0.342 -0.9162 -0.9110 -0.2155
  168MOL   H20140615   7.525   6.994   0.403 -1.6779  0.8603 -0.3066
  168MOL   H20240616   7.426   7.198   0.546 -0.4152  0.2021 -0.6881
  168MOL   H20340617   7.341   7.159   0.389 -0.2504 -1.2211  0.5320
  168MOL   H20440618   7.383   7.315   0.423  2.5629  1.3219  0.2488
  168MOL   H20540619   0.055   7.366   0.404  0.0044 -0.3926  2.0093
  168MOL   C20640620   7.559   7.174   0.220 -0.3750  0.4796  0.1326
  168MOL   C20740621   7.479   7.265   0.119 -0.5354  0.1477 -0.0378
  168MOL   C20840622   7.538   7.214   7.748  0.1393 -0.2728 -0.3926
  168MOL   C20940623   7.322   7.235   0.117 -0.0754 -0.3179  0.1062
  168MOL   O21040624   7.269   7.125   0.138  0.1272 -0.5392  0.1467
  168MOL   O21140625   7.253   7.339   0.072 -0.0767 -0.0467  0.7273
  168MOL   H21240626   7.661   7.173   0.182 -1.2364  0.7609 -2.3027
  168MOL   H21340627   7.525   7.072   0.201 -3.8781  1.6643 -0.3540
  168MOL   H21440628   7.511   7.110   7.730  0.0700 -0.1146 -1.2125
  168MOL   H21540629   7.646   7.213   7.740  0.0994 -0.3441 -0.9116
  168MOL   H21640630   7.492   7.273   7.669 -0.2189  1.3786  1.0020
  168MOL   H21740631   7.174   7.303   0.035  0.6383 -0.9571  0.0493
  168MOL   C21840632   7.513   7.414   0.143  0.2409 -0.3823  1.5111
  168MOL   C21940633   7.528   7.533   0.039  0.8169 -0.0579  0.5455
  168MOL   C22040634   7.556   7.666   0.117  0.3919  0.3621  0.4731
  168MOL   C22140635   7.654   7.517   7.724  0.3602  0.0422  0.7154
  168MOL   O22240636   7.669   7.533   7.603  0.3231  0.0079 -0.6853
  168MOL   O22340637   7.756   7.471   0.028 -0.2519 -0.6077 -0.0536
  168MOL   H22440638   7.442   7.443   0.220 -1.8230  0.5876 -0.7020
  168MOL   H22540639   7.606   7.410   0.200  2.5202 -0.6510 -2.0458
  168MOL   H22640640   7.465   7.706   0.161  0.3058  0.4523  0.2182
  168MOL   H22740641   7.600   7.746   0.057  1.4857 -1.4518 -1.2251
  168MOL   H22840642   7.639   7.651   0.187 -1.1297 -0.6054  2.0988
  168MOL   H22940643   0.069   7.467   7.745 -0.7396 -1.0503 -0.7913
  168MOL   C23040644   7.401   7.556   7.716 -0.0982  0.1874 -0.9677
  168MOL   C23140645   7.396   7.688   7.631 -0.2897 -0.2413 -0.1641
  168MOL   C23240646   7.370   7.646   7.484 -0.7756  0.0925  0.7435
  168MOL   C23340647   7.280   0.007   7.674  0.0494  0.1733  0.2020
  168MOL   O23440648   7.156   7.750   7.652  0.1141  1.3641  0.2155
  168MOL   O23540649   7.326   0.112   7.751 -0.8492  0.1394  0.0538
  168MOL   H23640650   7.379   7.465   7.661  0.4837  0.8772 -2.3646
  168MOL   H23740651   7.316   7.561   0.017  0.4694 -0.1874 -0.2244
  168MOL   H23840652   7.274   7.595   7.475 -0.0606 -1.1165 -0.2034
  168MOL   H23940653   7.438   7.572   7.443 -1.3817 -2.1288  3.5525
  168MOL   H24040654   7.358   7.734   7.421  1.7607  0.2397  0.4209
  168MOL   H24140655   7.256   0.174   7.743 -1.4493 -0.2999  1.7824
  168MOL   H24240656   7.487   7.748   7.625 -0.9527  0.9455  1.2035
  169MOL     C140657   3.485   3.636   1.278  0.0744 -0.4218  0.6001
  169MOL     C240658   3.518   3.726   1.162 -0.7640  0.2250  0.1750
  169MOL     C340659   3.447   3.860   1.196  0.6436  0.3982 -0.6392
  169MOL     C440660   3.672   3.758   1.153 -0.1278 -0.8793 -0.1450
  169MOL     O540661   3.752   3.721   1.239 -0.1096 -0.1863  0.0880
  169MOL     O640662   3.700   3.833   1.042 -0.3809  0.1453 -0.3654
  169MOL     H740663   3.379   3.612   1.279  0.4798 -2.3872 -0.4598
  169MOL     H840664   3.525   3.661   1.377 -0.8207 -0.7392  1.0485
  169MOL     H940665   3.473   3.932   1.118  0.4458 -0.4562 -1.5076
  169MOL    H1040666   3.476   3.912   1.287 -0.0503 -0.3615  0.0266
  169MOL    H1140667   3.339   3.843   1.197  1.1460 -3.0256 -0.9142
  169MOL    H1240668   3.786   3.872   1.045 -1.0354  1.6059 -0.4967
  169MOL    H1340669   3.534   3.540   1.261  0.8415  0.4586 -2.5005
  169MOL    C1440670   3.453   3.680   1.028  0.7843 -0.2655  0.0809
  169MOL    C1540671   3.484   3.540   0.955 -0.9544 -0.0767  0.5071
  169MOL    C1640672   3.636   3.522   0.957  0.0705  0.3284  0.4482
  169MOL    C1740673   3.411   3.426   1.032 -0.3012 -0.1083  0.2261
  169MOL    O1840674   3.450   3.311   1.053 -0.6161 -0.1757  0.1407
  169MOL    O1940675   3.283   3.463   1.055  0.1817  0.1758 -0.2200
  169MOL    H2040676   3.348   3.692   1.057  1.1817 -1.1592  1.9814
  169MOL    H2140677   3.478   3.762   0.961 -1.9237 -1.1891 -2.1518
  169MOL    H2240678   3.681   3.500   1.054  2.7438 -0.8905 -1.0063
  169MOL    H2340679   3.689   3.597   0.900 -1.0723  0.0907 -0.9508
  169MOL    H2440680   3.665   3.428   0.909  0.1415  0.1428  0.8533
  169MOL    H2540681   3.227   3.401   1.100  1.8113  0.9749  3.0863
  169MOL    C2640682   3.443   3.564   0.804 -0.0239  0.5544 -0.5027
  169MOL    C2740683   3.390   3.458   0.709  0.9753  0.2409  0.4436
  169MOL    C2840684   3.478   3.328   0.710  0.4162  0.8588 -0.2025
  169MOL    C2940685   3.245   3.402   0.727 -0.2736  0.2928 -0.3327
  169MOL    O3040686   3.196   3.311   0.664  0.3332  0.1029  0.0403
  169MOL    O3140687   3.169   3.482   0.812 -0.0429  0.4146  0.2414
  169MOL    H3240688   3.362   3.637   0.802  0.5730  1.2267 -0.3973
  169MOL    H3340689   3.530   3.603   0.752 -0.0337 -0.4507 -1.2886
  169MOL    H3440690   3.433   3.261   0.784  0.0947  0.0100 -1.1556
  169MOL    H3540691   3.585   3.335   0.728  0.1036  2.3157  1.2490
  169MOL    H3640692   3.468   3.268   0.620 -0.2521 -1.6412  1.4836
  169MOL    H3740693   3.223   3.528   0.874 -0.2940  0.3501  0.5103
  169MOL    C3840694   3.400   3.510   0.562 -0.2990 -1.0071  0.3230
  169MOL    C3940695   3.314   3.630   0.493 -0.1042 -0.2518 -0.3826
  169MOL    C4040696   3.166   3.629   0.525 -0.5408  0.0927 -0.5066
  169MOL    C4140697   3.373   3.774   0.544 -0.5061 -0.0347 -0.0423
  169MOL    O4240698   3.480   3.786   0.603  0.0040  0.4603 -0.4966
  169MOL    O4340699   3.296   3.876   0.496 -0.1336 -0.7217  0.1766
  169MOL    H4440700   3.506   3.521   0.539 -0.1232  0.8026  1.8471
  169MOL    H4540701   3.368   3.420   0.509  1.3780 -1.9856  0.9488
  169MOL    H4640702   3.156   3.643   0.632 -0.4556  1.0333 -0.6136
  169MOL    H4740703   3.117   3.532   0.518  0.4733 -0.4289 -0.3460
  169MOL    H4840704   3.109   3.714   0.487 -0.5801  1.1294  1.7658
  169MOL    H4940705   3.343   3.958   0.502  0.1886 -0.9712  1.1109
  169MOL    C5040706   3.314   3.624   0.335 -0.0372 -0.1747 -0.9325
  169MOL    C5140707   3.447   3.599   0.254 -0.6764 -0.2713 -0.3288
  169MOL    C5240708   3.560   3.703   0.305 -0.2811  0.5914 -0.1010
  169MOL    C5340709   3.489   3.455   0.266  0.8032 -0.2323  0.3371
  169MOL    O5440710   3.598   3.417   0.317  0.2786 -0.0747 -0.3822
  169MOL    O5540711   3.391   3.366   0.223 -0.4338 -0.5709 -0.2170
  169MOL    H5640712   3.249   3.538   0.323  0.3921 -0.3577 -2.0274
  169MOL    H5740713   3.262   3.709   0.289 -1.5137  0.8665  2.5230
  169MOL    H5840714   3.520   3.804   0.302  0.6803  0.9227 -2.0762
  169MOL    H5940715   3.656   3.700   0.254 -0.3099  0.0854 -0.1259
  169MOL    H6040716   3.588   3.690   0.410  0.5389 -0.2200 -0.4111
  169MOL    H6140717   3.423   3.277   0.220  1.2710 -0.0305  0.9629
  169MOL    C6240718   3.418   3.645   0.109  0.0952  0.2123  0.3250
  169MOL    C6340719   3.524   3.635   7.759 -0.5339 -0.3021 -0.6769
  169MOL    C6440720   3.614   3.765   7.754 -0.4395 -0.1910 -0.3452
  169MOL    C6540721   3.623   3.518   7.760 -0.1007  0.3502 -0.2916
  169MOL    O6640722   3.587   3.406   7.732  0.0073 -0.2085 -0.0364
  169MOL    O6740723   3.742   3.549   0.040 -0.1075 -0.4088  0.3760
  169MOL    H6840724   3.340   3.577   0.074  0.6771 -0.1665 -0.2490
  169MOL    H6940725   3.378   3.746   0.120 -1.5209 -0.2199 -1.3500
  169MOL    H7040726   3.673   3.761   7.662 -1.1266  0.5169 -0.8209
  169MOL    H7140727   3.690   3.782   0.063  1.6305 -0.1241 -2.3514
  169MOL    H7240728   3.547   3.850   7.749  0.1855  0.3621  0.5838
  169MOL    H7340729   3.801   3.475   0.045  2.6753  1.6644 -0.9128
  169MOL    C7440730   3.449   3.624   7.623  0.6595  0.1608 -0.2146
  169MOL    C7540731   3.351   3.733   7.561 -0.9388  0.1237 -0.5325
  169MOL    C7640732   3.284   3.825   7.670  0.1810 -0.3409 -0.4691
  169MOL    C7740733   3.426   3.824   7.465  0.5360  0.3035  0.4840
  169MOL    O7840734   3.548   3.814   7.440 -0.2877  0.3285 -0.3312
  169MOL    O7940735   3.354   3.918   7.404  0.0890  0.5433  0.2482
  169MOL    H8040736   3.516   3.592   7.543 -0.5796 -0.7640 -0.9020
  169MOL    H8140737   3.391   3.534   7.644 -0.0325  0.8933  1.0416
  169MOL    H8240738   3.207   3.767   7.723 -0.6402  1.2933  0.1623
  169MOL    H8340739   3.223   3.900   7.620  1.5696  1.1334  0.0262
  169MOL    H8440740   3.347   3.889   7.731  1.0318 -0.1271 -1.5593
  169MOL    H8540741   3.410   3.957   7.339  2.4012 -2.3599  0.3769
  169MOL    C8640742   3.238   3.660   7.481  0.5584  0.0656 -0.4729
  169MOL    C8740743   3.248   3.547   7.373 -0.3076  0.1496 -0.1823
  169MOL    C8840744   3.107   3.550   7.306 -0.1065 -0.3160 -0.1049
  169MOL    C8940745   3.351   3.579   7.266 -0.2052  0.5069 -0.2785
  169MOL    O9040746   3.345   3.682   7.201 -0.2089  0.2522  0.1930
  169MOL    O9140747   3.435   3.477   7.246 -0.2864 -0.0869  0.1298
  169MOL    H9240748   3.154   3.645   7.549  0.6478  0.0890 -0.3560
  169MOL    H9340749   3.193   3.740   7.421 -0.4490  0.1893  0.4167
  169MOL    H9440750   3.026   3.538   7.378  0.1227 -0.1344  0.1829
  169MOL    H9540751   3.096   3.464   7.239 -1.0934  0.4831 -0.9983
  169MOL    H9640752   3.084   3.644   7.255  0.1536  0.0618  0.4744
  169MOL    H9740753   3.490   3.500   7.172  0.9449  0.7914  1.3033
  169MOL    C9840754   3.258   3.402   7.438 -0.1536  0.4125  0.8917
  169MOL    C9940755   3.208   3.261   7.376  0.2177 -0.6535 -0.3191
  169MOL   C10040756   3.053   3.250   7.368  0.0997 -0.2147  0.2181
  169MOL   C10140757   3.259   3.235   7.224 -0.2634 -0.0758 -0.5811
  169MOL   O10240758   3.206   3.292   7.127  0.1157 -0.2100 -0.5135
  169MOL   O10340759   3.356   3.134   7.206 -0.4810 -0.1398 -0.1724
  169MOL   H10440760   3.364   3.389   7.464 -0.2535 -1.0246  0.6116
  169MOL   H10540761   3.196   3.422   7.525  1.1822  0.4160  1.8603
  169MOL   H10640762   3.025   3.145   7.361 -0.7498 -0.2849  3.6687
  169MOL   H10740763   3.011   3.296   7.278 -0.5914 -1.7529 -0.2777
  169MOL   H10840764   2.986   3.283   7.447  1.9699  0.1959  1.6486
  169MOL   H10940765   3.371   3.122   7.114  0.3371 -1.6591  0.1505
  169MOL   C11040766   3.270   3.140   7.464  0.1156  0.3669  0.5426
  169MOL   C11140767   3.233   3.104   7.618  0.8847  1.0063 -0.5320
  169MOL   C11240768   3.252   3.223   7.712  0.1892 -0.0531 -0.3173
  169MOL   C11340769   3.086   3.045   7.610 -0.1966  0.3833  0.2279
  169MOL   O11440770   3.058   2.934   7.559 -0.2188  0.2711  0.8217
  169MOL   O11540771   2.993   3.129   7.653 -0.3788 -0.0428  0.4295
  169MOL   H11640772   3.257   3.053   7.400 -0.4305  1.0487 -0.2692
  169MOL   H11740773   3.378   3.157   7.463  0.0778  0.6092  0.3685
  169MOL   H11840774   3.251   3.202   0.051 -0.5897 -0.9238 -0.4869
  169MOL   H11940775   3.162   3.282   7.692  1.7632  2.0466 -1.4016
  169MOL   H12040776   3.342   3.281   7.690 -0.5875  0.7192 -1.5772
  169MOL   H12140777   2.910   3.084   7.644 -0.9405  1.2266 -0.8524
  169MOL   C12240778   3.336   2.991   7.651  0.0566 -0.3572 -0.2959
  169MOL   C12340779   3.399   2.978   0.025  0.4339  0.7255 -0.8310
  169MOL   C12440780   3.486   2.847   0.029 -0.1821  0.1289 -0.0050
  169MOL   C12540781   3.500   3.084   0.060 -0.5376  0.4562  0.1825
  169MOL   O12640782   3.517   3.130   0.174 -0.6647 -0.2122 -0.0277
  169MOL   O12740783   3.572   3.119   7.717  0.3670 -0.2646 -0.0930
  169MOL   H12840784   3.297   2.890   7.645 -1.3226  0.0519  1.3158
  169MOL   H12940785   3.417   3.002   7.579  0.4373  1.6055  0.3734
  169MOL   H13040786   3.441   2.757   7.754 -1.5767  0.5503  0.5459
  169MOL   H13140787   3.531   2.828   0.126  0.7954  0.7613 -0.3307
  169MOL   H13240788   3.571   2.863   7.730 -0.5957 -1.7671 -1.0477
  169MOL   H13340789   3.633   3.190   7.729 -0.3415  0.1568  1.0567
  169MOL   C13440790   3.277   2.971   0.138  0.4600 -0.8618  0.4359
  169MOL   C13540791   3.241   2.847   0.232 -0.5937 -0.2526 -0.1486
  169MOL   C13640792   3.238   2.720   0.152 -0.5298  0.3872 -0.2245
  169MOL   C13740793   3.334   2.849   0.356 -0.1111  0.1188  0.4922
  169MOL   O13840794   3.422   2.936   0.377  0.1275  0.0046 -0.4808
  169MOL   O13940795   3.301   2.751   0.449  0.0062  0.1175 -0.2879
  169MOL   H14040796   3.283   3.060   0.201 -0.6398  0.4395 -1.2674
  169MOL   H14140797   3.184   2.978   0.082  0.2848 -0.3098  0.7865
  169MOL   H14240798   3.333   2.669   0.136 -0.7024 -0.8335  2.3752
  169MOL   H14340799   3.185   2.732   0.058 -2.0485 -0.0831  0.5615
  169MOL   H14440800   3.189   2.646   0.216  0.2590  0.8257  0.9206
  169MOL   H14540801   3.357   2.752   0.525 -1.0696  1.4861  0.5289
  169MOL   C14640802   3.096   2.856   0.291  0.8227  0.1707 -0.5766
  169MOL   C14740803   3.032   2.973   0.376  0.7132 -0.8692  0.8925
  169MOL   C14840804   3.112   2.991   0.512  0.1364 -0.0435  0.1955
  169MOL   C14940805   3.030   3.109   0.307  0.1220 -0.8022  0.1250
  169MOL   O15040806   3.010   3.123   0.187  0.0836 -0.1868 -0.3327
  169MOL   O15140807   3.053   3.217   0.388  0.3308  0.5688 -0.4239
  169MOL   H15240808   3.031   2.856   0.203  1.0102  1.6347 -0.7399
  169MOL   H15340809   3.060   2.758   0.323  1.6007 -0.3003 -1.1393
  169MOL   H15440810   3.209   3.035   0.489  0.4395 -0.6007  0.3945
  169MOL   H15540811   3.134   2.894   0.556 -2.2206 -0.5195  0.4257
  169MOL   H15640812   3.058   3.047   0.589 -0.0744  0.9343 -0.6500
  169MOL   H15740813   3.072   3.175   0.471 -1.8455  0.0072 -0.1775
  169MOL   C15840814   2.878   2.938   0.407  0.2432  0.0213  0.2631
  169MOL   C15940815   2.832   2.824   0.516 -0.7001  0.0998  0.2220
  169MOL   C16040816   2.920   2.695   0.521 -0.1351 -0.3805 -0.0858
  169MOL   C16140817   2.819   2.893   0.656  0.1742 -0.8140 -0.7800
  169MOL   O16240818   2.806   3.014   0.683  0.2204  0.0562  0.3662
  169MOL   O16340819   2.836   2.811   0.763 -0.3752  0.2457 -0.3089
  169MOL   H16440820   2.812   3.022   0.428 -1.4409 -1.1722 -0.1586
  169MOL   H16540821   2.846   2.911   0.306 -1.0689 -0.0053  0.6802
  169MOL   H16640822   2.879   2.622   0.591  0.2626 -0.5470 -0.0231
  169MOL   H16740823   3.026   2.711   0.541 -0.5765  0.7132  1.4449
  169MOL   H16840824   2.919   2.624   0.438 -2.3557  1.8102 -1.9956
  169MOL   H16940825   2.824   2.865   0.840  0.2386  1.7547 -1.2579
  169MOL   C17040826   2.689   2.771   0.466  0.5875  0.4672  0.0550
  169MOL   C17140827   2.563   2.706   0.552 -0.0918 -0.4530  0.9170
  169MOL   C17240828   2.617   2.590   0.633 -0.0183  0.1786  0.4519
  169MOL   C17340829   2.504   2.819   0.641 -0.6841  0.0369  0.5839
  169MOL   O17440830   2.518   2.808   0.763 -0.3881 -0.5220 -0.2454
  169MOL   O17540831   2.460   2.930   0.578 -0.6313 -0.3726 -0.1080
  169MOL   H17640832   2.634   2.848   0.411  0.2499  1.5989  1.9231
  169MOL   H17740833   2.707   2.697   0.388 -0.1471 -0.5496  0.8543
  169MOL   H17840834   2.556   2.533   0.703 -1.1634  2.3625  1.2793
  169MOL   H17940835   2.694   2.630   0.699  0.3439  0.9399 -0.4218
  169MOL   H18040836   2.671   2.517   0.572 -1.2657  1.2752 -2.0135
  169MOL   H18140837   2.451   2.995   0.646  2.3742 -2.4532  2.3758
  169MOL   C18240838   2.454   2.653   0.458 -0.5005  0.0024 -0.6612
  169MOL   C18340839   2.337   2.558   0.503 -0.6578  0.1904  0.1009
  169MOL   C18440840   2.277   2.610   0.635  0.4276 -0.7918 -0.1870
  169MOL   C18540841   2.229   2.571   0.389 -0.1405 -0.9393 -0.9309
  169MOL   O18640842   2.254   2.593   0.267 -0.4595  0.1046 -0.8250
  169MOL   O18740843   2.105   2.556   0.438  0.0037 -0.0444 -0.3484
  169MOL   H18840844   2.409   2.742   0.415 -0.5533  0.3550  0.1265
  169MOL   H18940845   2.507   2.605   0.375 -0.6427 -1.8062  0.2645
  169MOL   H19040846   2.189   2.553   0.666 -1.2111  1.6253 -0.2365
  169MOL   H19140847   2.250   2.715   0.645  1.3472 -0.6868  1.2392
  169MOL   H19240848   2.343   2.598   0.721 -0.7148  0.2925  0.8568
  169MOL   H19340849   2.051   2.588   0.367  0.9788  0.0058 -1.0655
  169MOL   C19440850   2.388   2.408   0.497 -0.2154 -0.3744 -0.0435
  169MOL   C19540851   2.304   2.278   0.495  0.8068 -0.5527 -0.1850
  169MOL   C19640852   2.194   2.279   0.607 -0.1958 -0.3752 -0.3283
  169MOL   C19740853   2.234   2.252   0.361  0.0862  0.3735  0.8298
  169MOL   O19840854   2.271   2.305   0.259  0.4360 -0.0777 -0.2968
  169MOL   O19940855   2.131   2.155   0.364 -0.2611 -0.2500  0.0645
  169MOL   H20040856   2.451   2.408   0.408  0.7837 -1.0437  0.6537
  169MOL   H20140857   2.460   2.392   0.577  0.8965  2.4341 -0.4113
  169MOL   H20240858   2.109   2.344   0.586  1.0491  1.7361  0.9243
  169MOL   H20340859   2.231   2.308   0.706  2.2124 -2.8075 -0.4532
  169MOL   H20440860   2.139   2.185   0.609  0.4525 -0.8029 -1.9767
  169MOL   H20540861   2.079   2.159   0.285  1.0986 -1.3231 -0.8986
  169MOL   C20640862   2.399   2.156   0.533 -0.1960  0.0033  0.2799
  169MOL   C20740863   2.517   2.098   0.451 -0.2638 -0.7176 -0.2085
  169MOL   C20840864   2.465   2.044   0.317 -0.1538 -0.0933 -0.0329
  169MOL   C20940865   2.628   2.205   0.418 -0.1625 -0.2861 -0.2912
  169MOL   O21040866   2.669   2.295   0.498 -0.0996  0.3482 -0.1944
  169MOL   O21140867   2.694   2.180   0.304 -0.1427  0.6164 -0.2347
  169MOL   H21240868   2.434   2.172   0.635  1.5353  0.5299 -0.3767
  169MOL   H21340869   2.326   2.075   0.539  0.3901 -0.5237  0.4097
  169MOL   H21440870   2.530   1.973   0.267 -1.1319 -1.6510  0.8453
  169MOL   H21540871   2.459   2.117   0.236  2.1784  0.5086  0.3144
  169MOL   H21640872   2.372   1.987   0.323  0.2554 -0.7573  0.0072
  169MOL   H21740873   2.748   2.257   0.300 -0.2727  1.0090  3.5303
  169MOL   C21840874   2.578   1.971   0.532  0.5990  0.5373  0.3625
  169MOL   C21940875   2.615   1.983   0.688  0.6446  0.3472 -0.9990
  169MOL   C22040876   2.670   2.119   0.733  0.0082  0.6276 -0.5307
  169MOL   C22140877   2.487   1.955   0.781 -0.0975 -0.6671 -0.1162
  169MOL   O22240878   2.450   2.026   0.871  0.0041 -0.0400  0.1225
  169MOL   O22340879   2.421   1.836   0.748  0.1663  0.0781  0.3578
  169MOL   H22440880   2.510   1.886   0.535  1.2777 -0.0146  0.2815
  169MOL   H22540881   2.660   1.932   0.471  0.9106 -0.6081  1.5049
  169MOL   H22640882   2.703   2.119   0.837 -1.4057 -0.4902 -0.0681
  169MOL   H22740883   2.601   2.203   0.729 -1.3430 -0.4379  0.1243
  169MOL   H22840884   2.761   2.150   0.681  0.0445 -1.0250 -1.5056
  169MOL   H22940885   2.361   1.815   0.818  0.0491  0.2169  0.2992
  169MOL   C23040886   2.725   1.883   0.725  0.2067  0.6527  0.6642
  169MOL   C23140887   2.877   1.905   0.718 -0.3331 -0.6731  0.4839
  169MOL   C23240888   2.950   1.779   0.761  0.1572  0.2259  0.0349
  169MOL   C23340889   2.940   1.967   0.599 -0.7738  0.0631 -0.1911
  169MOL   O23440890   3.027   2.050   0.601 -0.1624  0.7710 -0.5134
  169MOL   O23540891   2.903   1.907   0.486 -0.0595  0.0168  0.3025
  169MOL   H23640892   2.702   1.842   0.824  0.2138 -0.0567  0.3725
  169MOL   H23740893   2.706   1.789   0.674 -3.2746  1.0676  1.1195
  169MOL   H23840894   3.054   1.788   0.728 -0.5853 -2.7735 -3.4993
  169MOL   H23940895   2.917   1.691   0.705 -1.2540  1.6055 -1.3598
  169MOL   H24040896   2.940   1.753   0.866 -1.8022 -0.6464 -0.3342
  169MOL   H24140897   2.945   1.948   0.412 -2.3113  1.4178 -0.2493
  169MOL   H24240898   2.887   1.976   0.799  0.1919  0.3005 -0.4218
  170MOL     C140899   3.033   3.299   6.142  0.1788 -0.4686  0.0758
  170MOL     C240900   2.886   3.285   6.098 -0.1217  0.2385  0.4093
  170MOL     C340901   2.890   3.176   5.984 -0.1766  0.5654 -0.4518
  170MOL     C440902   2.809   3.216   6.215 -0.4007  0.1385 -0.5646
  170MOL     O540903   2.730   3.120   6.201 -0.4190  0.6330  0.1245
  170MOL     O640904   2.845   3.266   6.333  0.0735  0.2022  0.0530
  170MOL     H740905   3.050   3.361   6.230  3.3714 -0.5970 -0.3839
  170MOL     H840906   3.094   3.338   6.062 -0.6683 -0.2964 -0.4923
  170MOL     H940907   2.795   3.125   5.972 -0.1456  0.1785  0.8523
  170MOL    H1040908   2.965   3.100   6.002 -0.6912  0.1728  0.0449
  170MOL    H1140909   2.899   3.209   5.880 -1.2560 -1.5315 -1.2264
  170MOL    H1240910   2.791   3.220   6.395 -2.1588  0.9182 -1.2795
  170MOL    H1340911   3.089   3.206   6.157  0.5448 -0.2326  0.1702
  170MOL    C1440912   2.816   3.420   6.076 -0.2987  0.3426 -0.0334
  170MOL    C1540913   2.874   3.535   5.982  0.6671  0.0687  0.1710
  170MOL    C1640914   2.757   3.632   5.995  0.4589 -0.6817  0.3570
  170MOL    C1740915   3.000   3.605   6.043  0.2484 -0.9382 -0.2004
  170MOL    O1840916   3.114   3.584   5.997  0.3219 -0.1065  0.5941
  170MOL    O1940917   2.969   3.689   6.144  0.2513 -0.6625  0.0084
  170MOL    H2040918   2.722   3.385   6.034  0.8496  0.5249 -2.8716
  170MOL    H2140919   2.800   3.462   6.175 -0.2036 -0.4653  0.3255
  170MOL    H2240920   2.714   3.641   6.095 -0.8532 -3.0753  0.0525
  170MOL    H2340921   2.671   3.601   5.935 -0.3746  1.2229  0.5319
  170MOL    H2440922   2.789   3.733   5.969 -2.4071 -0.5100 -2.9673
  170MOL    H2540923   3.037   3.754   6.154  0.1694 -0.2539 -1.8846
  170MOL    C2640924   2.885   3.477   5.837  0.0357 -0.2295 -0.2747
  170MOL    C2740925   2.897   3.560   5.704 -0.7356  0.1099  0.0068
  170MOL    C2840926   2.770   3.644   5.677  0.2876  0.0033 -0.1440
  170MOL    C2940927   3.014   3.660   5.710 -0.2300  0.5013  0.2139
  170MOL    O3040928   3.005   3.781   5.723 -0.2274 -0.1176 -0.0712
  170MOL    O3140929   3.132   3.598   5.716 -0.3488 -0.1064 -0.8820
  170MOL    H3240930   2.969   3.408   5.845 -1.3114 -2.0666 -1.2553
  170MOL    H3340931   2.793   3.420   5.820  0.4122 -0.2044 -2.6271
  170MOL    H3440932   2.776   3.713   5.593 -0.0994 -0.2529 -0.3879
  170MOL    H3540933   2.745   3.715   5.755 -2.2970  0.1794 -1.0617
  170MOL    H3640934   2.679   3.583   5.668 -1.0192  1.6054  1.8698
  170MOL    H3740935   3.198   3.664   5.730  0.2694 -1.4839  3.5216
  170MOL    C3840936   2.924   3.453   5.589  0.3609  0.7134 -0.1697
  170MOL    C3940937   2.971   3.489   5.439 -0.1041  0.0758  0.1589
  170MOL    C4040938   2.909   3.627   5.390  0.5300 -0.3240  0.5227
  170MOL    C4140939   3.129   3.502   5.432  0.3279  0.1428 -0.1947
  170MOL    O4240940   3.189   3.598   5.395  0.2108  0.4705  0.0947
  170MOL    O4340941   3.186   3.387   5.466  0.3102 -0.0240 -0.4795
  170MOL    H4440942   2.983   3.371   5.630 -0.1385  0.3071 -0.2450
  170MOL    H4540943   2.828   3.402   5.576 -0.4122  1.8133  1.0421
  170MOL    H4640944   2.802   3.626   5.412  0.1986 -0.6023 -1.0364
  170MOL    H4740945   2.937   3.658   5.289 -0.4028  0.4439  0.4874
  170MOL    H4840946   2.934   3.703   5.464  0.2149 -1.6689  2.0292
  170MOL    H4940947   3.278   3.388   5.446  0.1690  0.1893 -1.1212
  170MOL    C5040948   2.911   3.366   5.361  0.0397  0.1413 -0.0982
  170MOL    C5140949   2.923   3.322   5.218 -0.0175  0.6670  0.0996
  170MOL    C5240950   2.890   3.439   5.136  0.5489  0.2553  0.1534
  170MOL    C5340951   3.068   3.281   5.183  0.2236  0.1486  0.9517
  170MOL    O5440952   3.135   3.339   5.098 -1.0701  0.4382 -0.3420
  170MOL    O5540953   3.116   3.179   5.258 -0.1372  0.0945  0.2101
  170MOL    H5640954   2.941   3.278   5.418  2.3784  0.6982 -0.4343
  170MOL    H5740955   2.803   3.381   5.373 -0.0513 -0.3614 -0.2501
  170MOL    H5840956   2.879   3.413   5.031 -1.1392  0.5674  0.2383
  170MOL    H5940957   2.972   3.512   5.137  0.6331  0.2079  3.1090
  170MOL    H6040958   2.797   3.491   5.157  0.0896  0.6149 -2.6564
  170MOL    H6140959   3.204   3.177   5.224  0.4153  0.2192  1.5935
  170MOL    C6240960   2.822   3.199   5.192  0.8876  0.2669  0.4998
  170MOL    C6340961   2.782   3.143   5.059 -0.7224  0.8332  0.5597
  170MOL    C6440962   2.721   3.001   5.095 -0.2081  0.0820  0.1943
  170MOL    C6540963   2.660   3.228   5.005  0.9109 -0.0785  0.4571
  170MOL    O6640964   2.661   3.294   4.905 -0.2484 -0.7315  0.2215
  170MOL    O6740965   2.545   3.212   5.082  0.4347 -0.0311  0.7925
  170MOL    H6840966   2.870   3.118   5.247 -0.5024 -1.3041 -0.5390
  170MOL    H6940967   2.728   3.210   5.245  0.8958  3.2278 -0.0006
  170MOL    H7040968   2.669   2.964   5.007  2.7597 -1.3586 -1.0287
  170MOL    H7140969   2.649   2.994   5.177  0.5732  0.4591  0.9294
  170MOL    H7240970   2.798   2.931   5.126  0.3156  1.0463  1.1187
  170MOL    H7340971   2.473   3.266   5.053  1.5324  2.0290  1.7652
  170MOL    C7440972   2.903   3.124   4.956  0.0285 -0.0613 -1.0411
  170MOL    C7540973   2.886   3.029   4.826  0.0065 -0.1866  0.5214
  170MOL    C7640974   3.019   3.049   4.746  0.0750 -0.5970  0.3446
  170MOL    C7740975   2.881   2.885   4.859  0.4286  1.0222 -0.0625
  170MOL    O7840976   2.784   2.814   4.845 -0.2815 -0.0715 -0.1397
  170MOL    O7940977   2.999   2.837   4.903  0.3872  0.2989  0.2915
  170MOL    H8040978   2.943   3.222   4.931  2.3294 -0.7538 -0.1881
  170MOL    H8140979   2.979   3.077   5.018 -1.6778 -0.5307  0.7534
  170MOL    H8240980   3.108   3.007   4.791  1.4709  1.0489 -0.7720
  170MOL    H8340981   3.042   3.153   4.722 -0.6297 -0.8852 -1.7196
  170MOL    H8440982   3.027   3.001   4.648 -0.0876 -0.1054  0.0815
  170MOL    H8540983   2.973   2.751   4.932 -2.4350  1.6585  1.9906
  170MOL    C8640984   2.764   3.087   4.738  0.4459  0.0298  0.2708
  170MOL    C8740985   2.722   3.050   4.584  0.2781  0.2046  0.2079
  170MOL    C8840986   2.724   2.896   4.563 -0.5121  0.0226  0.7821
  170MOL    C8940987   2.576   3.096   4.567 -0.6462 -0.1586  1.0863
  170MOL    O9040988   2.483   3.027   4.530  0.1284 -0.2443  0.6708
  170MOL    O9140989   2.555   3.223   4.602  0.2004  0.1237 -0.1264
  170MOL    H9240990   2.676   3.070   4.801 -0.1860 -2.3755 -1.2127
  170MOL    H9340991   2.773   3.196   4.740  0.0792  0.0480  2.3590
  170MOL    H9440992   2.694   2.860   4.464 -0.2220  2.7338 -0.3519
  170MOL    H9540993   2.660   2.841   4.631 -1.2689 -1.6837 -1.2640
  170MOL    H9640994   2.821   2.854   4.590 -0.0103  0.9342  0.4573
  170MOL    H9740995   2.632   3.262   4.641 -0.0470  1.1836 -0.6740
  170MOL    C9840996   2.813   3.154   4.499 -0.1204  0.4113 -0.5261
  170MOL    C9940997   2.848   3.138   4.350  0.1259  0.3145 -0.1305
  170MOL   C10040998   2.964   3.039   4.357  0.0303  0.1133  0.0267
  170MOL   C10140999   2.732   3.071   4.262  0.0837  0.3177  0.1295
  170MOL   O10241000   2.743   2.974   4.192  0.6850  0.3635  0.2420
  170MOL   O10341001   2.620   3.137   4.270  0.0712 -0.3341  0.3159
  170MOL   H10441002   2.763   3.251   4.510  0.1486  0.3507  1.2485
  170MOL   H10541003   2.901   3.177   4.559 -0.1016 -0.8835 -0.0548
  170MOL   H10641004   3.062   3.083   4.375  0.3071 -0.3951 -0.2346
  170MOL   H10741005   2.990   2.977   4.271  1.3035  3.6292 -2.2502
  170MOL   H10841006   2.950   2.968   4.438  1.7258  0.2081  0.4188
  170MOL   H10941007   2.560   3.080   4.224  1.6186 -1.6610 -0.0897
  170MOL   C11041008   2.906   3.276   4.296  0.1542 -0.6616 -0.0494
  170MOL   C11141009   2.932   3.298   4.142 -0.1991  0.1050 -0.2689
  170MOL   C11241010   3.009   3.179   4.076 -0.4486 -0.1653  0.2368
  170MOL   C11341011   2.800   3.312   4.069  0.0954 -0.2659 -0.8090
  170MOL   O11441012   2.705   3.374   4.121  0.0028  0.5263 -0.4562
  170MOL   O11541013   2.807   3.291   3.938 -0.3598 -0.2938 -0.2667
  170MOL   H11641014   2.836   3.350   4.335  0.3476  0.1443 -1.2075
  170MOL   H11741015   2.997   3.286   4.356 -0.4335  0.1445  0.7419
  170MOL   H11841016   3.107   3.161   4.122 -1.0961  0.0770  1.7543
  170MOL   H11941017   3.049   3.204   3.978 -1.2856  0.4303  0.0424
  170MOL   H12041018   2.957   3.083   4.072 -1.9112  0.5825  0.9080
  170MOL   H12141019   2.715   3.302   3.919 -0.8787  1.6960  2.9810
  170MOL   C12241020   3.027   3.423   4.119 -0.2783  0.0601  0.2525
  170MOL   C12341021   2.988   3.577   4.129 -0.3303  0.9666 -0.0210
  170MOL   C12441022   2.947   3.627   3.985  0.3439 -0.2477 -0.7329
  170MOL   C12541023   2.884   3.608   4.238 -0.3543 -0.6823 -0.5709
  170MOL   O12641024   2.916   3.601   4.355  0.1049 -0.6963 -0.2491
  170MOL   O12741025   2.770   3.665   4.200 -0.1952 -0.0383  0.4723
  170MOL   H12841026   3.117   3.411   4.179  1.4232  3.0328 -1.6129
  170MOL   H12941027   3.055   3.416   4.014  0.7572  0.6996  0.4785
  170MOL   H13041028   3.022   3.593   3.914  2.1949 -1.6229  1.7855
  170MOL   H13141029   2.937   3.735   3.976 -0.4039 -0.5103 -3.4089
  170MOL   H13241030   2.855   3.578   3.954  0.5957  0.3968 -2.5408
  170MOL   H13341031   2.712   3.675   4.275 -0.1165  1.1131  0.3961
  170MOL   C13441032   3.114   3.660   4.174 -0.9544 -0.9799  0.5823
  170MOL   C13541033   3.252   3.673   4.091  0.3404 -0.1700 -0.9062
  170MOL   C13641034   3.313   3.537   4.052  0.3588 -0.6089  0.5097
  170MOL   C13741035   3.240   3.768   3.967 -0.3092  0.8340 -0.8012
  170MOL   O13841036   3.268   3.727   3.853  0.2298  0.2155 -0.4285
  170MOL   O13941037   3.165   3.876   3.997  0.3929 -0.8153 -0.1331
  170MOL   H14041038   3.072   3.759   4.188  1.5743  0.1593  0.5057
  170MOL   H14141039   3.137   3.630   4.276 -0.7390 -1.8174  0.2951
  170MOL   H14241040   3.252   3.481   3.981 -0.0059  0.3123  0.0776
  170MOL   H14341041   3.317   3.471   4.138  0.7401 -1.2149  0.0301
  170MOL   H14441042   3.417   3.533   4.020 -0.0461  0.0080 -0.9461
  170MOL   H14541043   3.137   3.921   3.919  0.1379  1.8829  1.4441
  170MOL   C14641044   3.366   3.732   4.185  0.6046 -0.2499  0.4862
  170MOL   C14741045   3.396   3.883   4.227  0.1587  0.0199 -0.2442
  170MOL   C14841046   3.472   3.946   4.111 -0.1566 -0.8699  0.2992
  170MOL   C14941047   3.260   3.955   4.263 -0.1628 -0.2925  0.6160
  170MOL   O15041048   3.193   3.919   4.365 -0.2343  0.2362 -0.0199
  170MOL   O15141049   3.233   4.066   4.191  0.7970  0.5705  0.0441
  170MOL   H15241050   3.356   3.686   4.283 -1.2804 -0.1397  0.3603
  170MOL   H15341051   3.461   3.703   4.140  0.9333  1.4827  0.0349
  170MOL   H15441052   3.488   4.051   4.133  0.5550 -0.7266 -0.8500
  170MOL   H15541053   3.421   3.955   4.016 -0.2823  2.0124  0.5927
  170MOL   H15641054   3.576   3.912   4.110  0.5668  1.3023 -0.0029
  170MOL   H15741055   3.289   4.078   4.116  0.0559  0.8863 -0.4705
  170MOL   C15841056   3.486   3.878   4.355  0.3746  0.3564 -0.8591
  170MOL   C15941057   3.573   4.001   4.415  0.3004 -0.5440  0.2063
  170MOL   C16041058   3.713   4.007   4.360 -0.8000 -0.4438 -0.1520
  170MOL   C16141059   3.501   4.134   4.383 -0.5768  0.6391  0.0570
  170MOL   O16241060   3.542   4.210   4.301  0.7359  0.0025  0.3024
  170MOL   O16341061   3.390   4.157   4.452 -0.0891 -0.5565 -0.2910
  170MOL   H16441062   3.416   3.840   4.429  1.4168  0.9894  0.4709
  170MOL   H16541063   3.550   3.791   4.350 -0.8875 -0.5041 -2.6100
  170MOL   H16641064   3.773   3.921   4.392  1.0157  1.9607  3.2378
  170MOL   H16741065   3.767   4.096   4.390 -1.0889 -0.2758 -0.1304
  170MOL   H16841066   3.718   3.995   4.252  1.4554 -1.6187  0.0356
  170MOL   H16941067   3.339   4.225   4.410 -0.4054  0.8333  2.2465
  170MOL   C17041068   3.586   3.980   4.574 -0.5334 -0.1280  0.3989
  170MOL   C17141069   3.680   4.067   4.668 -0.2689 -0.2971  0.4821
  170MOL   C17241070   3.651   4.222   4.653  0.5343  0.7534  0.0472
  170MOL   C17341071   3.626   4.034   4.813  0.0140 -0.2074 -0.4543
  170MOL   O17441072   3.593   4.112   4.902  0.0031 -1.0164  0.9137
  170MOL   O17541073   3.613   3.903   4.831 -0.1782  0.1920  0.1197
  170MOL   H17641074   3.484   3.966   4.609 -1.4245  2.6502 -0.9181
  170MOL   H17741075   3.617   3.875   4.580  1.0472  0.3870  1.6375
  170MOL   H17841076   3.653   4.250   4.547  1.2224 -1.3300 -0.4994
  170MOL   H17941077   3.725   4.287   4.701 -0.3175  1.0683  0.9442
  170MOL   H18041078   3.548   4.238   4.682  0.1687 -0.7372 -0.4075
  170MOL   H18141079   3.581   3.901   4.919  1.6703 -0.3724  0.8068
  170MOL   C18241080   3.839   4.041   4.650 -0.7919 -0.3337 -0.4989
  170MOL   C18341081   3.945   4.031   4.767 -0.1043  0.3681  0.2303
  170MOL   C18441082   3.899   4.128   4.873  0.1785  0.4579 -0.6046
  170MOL   C18541083   3.946   3.889   4.831 -0.7370  0.0377 -0.0159
  170MOL   O18641084   3.892   3.796   4.782  0.6684  0.3838  0.2112
  170MOL   O18741085   4.014   3.885   4.948 -0.3946 -0.4116 -0.3923
  170MOL   H18841086   3.849   3.951   4.590  2.6902 -1.0700  0.9973
  170MOL   H18941087   3.863   4.120   4.580  0.9965 -1.1880 -0.8847
  170MOL   H19041088   3.851   4.217   4.832 -2.0436 -1.0356 -1.2613
  170MOL   H19141089   3.980   4.168   4.935 -0.1967 -0.6776  0.6419
  170MOL   H19241090   3.846   4.087   4.959  0.1348  2.2700  0.2779
  170MOL   H19341091   4.002   3.797   4.983 -0.5208 -0.5089 -0.6797
  170MOL   C19441092   4.093   4.076   4.724  0.2988 -0.4469 -0.1074
  170MOL   C19541093   4.157   4.036   4.588 -0.2330  0.0867 -0.5013
  170MOL   C19641094   4.309   4.049   4.620 -0.3507 -0.3717 -0.4699
  170MOL   C19741095   4.127   3.885   4.554  0.0959  0.2410  0.0133
  170MOL   O19841096   4.042   3.853   4.472 -0.1716 -0.0386 -0.4649
  170MOL   O19941097   4.201   3.797   4.632  0.3546  0.3394  0.2683
  170MOL   H20041098   4.101   4.184   4.740 -2.3147  0.0125 -1.5572
  170MOL   H20141099   4.154   4.044   4.808  1.1755  3.3227  0.8266
  170MOL   H20241100   4.379   4.029   4.538  0.6647 -1.8008  0.7198
  170MOL   H20341101   4.341   3.992   4.708 -0.0018  0.1622 -0.2517
  170MOL   H20441102   4.331   4.149   4.656  0.5796 -0.7481  0.0283
  170MOL   H20541103   4.163   3.712   4.615 -1.6455  1.2043  0.1829
  170MOL   C20641104   4.099   4.121   4.477 -0.1302  0.0761 -0.3132
  170MOL   C20741105   4.176   4.160   4.345 -0.1482 -0.5668 -0.0101
  170MOL   C20841106   4.253   4.045   4.282  0.7670 -0.7413 -0.2655
  170MOL   C20941107   4.075   4.188   4.232  0.1179 -0.5915  0.1079
  170MOL   O21041108   4.091   4.165   4.115  0.1808  0.0257  0.0923
  170MOL   O21141109   3.958   4.247   4.274 -0.2641  0.1930  0.1578
  170MOL   H21241110   4.000   4.086   4.446 -1.4276  1.9483  1.5693
  170MOL   H21341111   4.077   4.214   4.528  3.5516  0.4500  0.6874
  170MOL   H21441112   4.332   3.997   4.341  0.5236 -1.2427 -0.3484
  170MOL   H21541113   4.303   4.074   4.190 -1.4315 -0.2446 -1.3180
  170MOL   H21641114   4.186   3.963   4.255 -0.9364  1.1388 -1.9041
  170MOL   H21741115   3.904   4.281   4.204 -0.0979 -1.1200 -0.6333
  170MOL   C21841116   4.282   4.275   4.367  0.3409 -0.8214  0.7919
  170MOL   C21941117   4.295   4.415   4.289  0.3307  0.2335 -0.2260
  170MOL   C22041118   4.325   4.390   4.142  0.1287 -0.2798 -0.2611
  170MOL   C22141119   4.160   4.498   4.306 -0.0313 -0.2610 -0.5578
  170MOL   O22241120   4.082   4.468   4.390  0.7911 -0.1609  0.9120
  170MOL   O22341121   4.143   4.594   4.224 -0.1302  0.1517 -0.0743
  170MOL   H22441122   4.304   4.282   4.473 -0.9258 -0.0426  1.0110
  170MOL   H22541123   4.380   4.247   4.329  1.2404  1.2649  1.4895
  170MOL   H22641124   4.372   4.292   4.128  0.4657 -0.3993  1.6685
  170MOL   H22741125   4.384   4.465   4.090 -0.6335  1.0857  0.7991
  170MOL   H22841126   4.232   4.390   4.084 -1.1424 -1.1268  1.7348
  170MOL   H22941127   4.063   4.638   4.248 -1.5555 -1.8334 -1.0310
  170MOL   C23041128   4.415   4.498   4.350 -0.7921  0.0876  0.3938
  170MOL   C23141129   4.400   4.565   4.492  0.6512 -0.7487  0.1637
  170MOL   C23241130   4.449   4.479   4.611 -0.2826 -0.1004 -0.0467
  170MOL   C23341131   4.466   4.703   4.501  1.1080  0.5115  0.1772
  170MOL   O23441132   4.578   4.715   4.551 -0.0945  0.0025 -0.2775
  170MOL   O23541133   4.387   4.805   4.445 -0.1847  0.3740 -0.0345
  170MOL   H23641134   4.505   4.436   4.363 -0.2155  0.7769 -0.3008
  170MOL   H23741135   4.440   4.569   4.272 -0.1854  1.0497  1.4409
  170MOL   H23841136   4.378   4.411   4.657  0.8285  0.7430  3.0301
  170MOL   H23941137   4.478   4.537   4.698 -0.2548  0.5557 -0.4873
  170MOL   H24041138   4.531   4.417   4.575  0.3005 -0.3487  1.7087
  170MOL   H24141139   4.410   4.892   4.475 -0.5744  0.0808  1.1525
  170MOL   H24241140   4.295   4.586   4.510  1.1111  1.6467  0.2004
  171MOL     C141141   0.344   0.183   3.750  0.5889  0.8452  0.7068
  171MOL     C241142   0.331   0.059   3.839  0.0955  1.0802 -0.7166
  171MOL     C341143   0.214   0.094   3.936 -0.8670  0.4876  0.4041
  171MOL     C441144   0.304   7.706   3.746 -0.2125  0.2387  0.5972
  171MOL     O541145   0.386   7.650   3.676 -0.2718  0.2900  0.2608
  171MOL     O641146   0.180   7.653   3.766 -0.3694 -0.2615 -0.4024
  171MOL     H741147   0.409   0.158   3.666 -0.6572  1.9627 -0.6284
  171MOL     H841148   0.376   0.267   3.812  1.2674  1.3670 -0.3299
  171MOL     H941149   0.208   0.033   4.026  0.2861  1.9106  1.4743
  171MOL    H1041150   0.113   0.098   3.895 -0.3545 -2.1473 -1.2882
  171MOL    H1141151   0.234   0.194   3.974 -1.5950  0.7790  0.0308
  171MOL    H1241152   0.154   7.594   3.696 -0.0595 -1.7269  0.6832
  171MOL    H1341153   0.243   0.203   3.714  1.4298 -0.0373 -2.3005
  171MOL    C1441154   0.468   0.052   3.920 -0.0285 -0.2104 -0.3923
  171MOL    C1541155   0.511   7.723   4.046 -0.4433  0.4687 -0.1323
  171MOL    C1641156   0.660   7.702   4.034 -0.0284 -0.2667 -0.0241
  171MOL    C1741157   0.482   0.027   4.173  0.1412  0.6412  0.4756
  171MOL    O1841158   0.411   0.125   4.178 -0.0658 -0.1282 -0.1279
  171MOL    O1941159   0.545   7.744   4.277 -0.0618  0.2704  0.3591
  171MOL    H2041160   0.547   0.036   3.846 -0.2532  2.1595 -1.1917
  171MOL    H2141161   0.474   0.156   3.951 -1.3270  0.3748 -2.0399
  171MOL    H2241162   0.692   7.654   4.127  1.1663  1.3639  0.4274
  171MOL    H2341163   0.709   0.032   4.038 -2.7066  1.1750 -0.9519
  171MOL    H2441164   0.702   7.651   3.948  0.1519  3.2780 -2.1210
  171MOL    H2541165   0.536   0.039   4.347 -0.6786 -1.4403  1.8203
  171MOL    C2641166   0.441   7.585   4.029  0.1943 -0.3050  0.3910
  171MOL    C2741167   0.433   7.463   4.136  0.4685 -0.8792  0.0691
  171MOL    C2841168   0.577   7.414   4.172 -0.1640  0.1293 -0.4115
  171MOL    C2941169   0.355   7.504   4.265  0.0896  0.2794 -0.3900
  171MOL    O3041170   0.383   7.462   4.372 -0.2546  0.0495  0.0870
  171MOL    O3141171   0.259   7.595   4.253  0.7002 -0.1876 -0.0888
  171MOL    H3241172   0.335   7.603   4.015  0.4122  0.7611  0.0842
  171MOL    H3341173   0.481   7.548   3.935  0.5081 -0.5514  0.6154
  171MOL    H3441174   0.582   7.323   4.233  0.3915 -0.4706 -1.3386
  171MOL    H3541175   0.623   7.480   4.246  1.4047 -0.2620 -1.0118
  171MOL    H3641176   0.652   7.411   4.093 -0.4594 -0.4944 -0.6792
  171MOL    H3741177   0.227   7.609   4.341 -3.8362 -0.3020 -1.6124
  171MOL    C3841178   0.358   7.344   4.055  0.6011 -0.4854  0.3715
  171MOL    C3941179   0.298   7.218   4.114 -0.1273  0.4399  0.4476
  171MOL    C4041180   0.400   7.161   4.221  0.1939 -0.1569  0.0223
  171MOL    C4141181   0.165   7.243   4.196  0.2381 -0.2722 -0.6167
  171MOL    O4241182   0.112   7.345   4.219  0.1069 -0.1831 -0.2219
  171MOL    O4341183   0.123   7.124   4.250 -0.1238  0.7528  0.2652
  171MOL    H4441184   0.289   7.382   3.980 -0.7707 -2.5932  0.5251
  171MOL    H4541185   0.442   7.293   4.008  0.4889 -2.3018  2.1031
  171MOL    H4641186   0.358   7.069   4.263 -0.3337 -0.5946 -1.4567
  171MOL    H4741187   0.416   7.224   4.309  4.9688  0.9627 -1.5054
  171MOL    H4841188   0.492   7.126   4.176  1.0746  0.2182  1.5028
  171MOL    H4941189   0.042   7.137   4.297  0.0704 -1.8016  1.3971
  171MOL    C5041190   0.285   7.105   4.006  0.4643  0.0328  0.3545
  171MOL    C5141191   0.194   7.126   3.878  0.0261  0.7293 -0.0057
  171MOL    C5241192   0.058   7.196   3.914  0.0752  0.1604 -0.6711
  171MOL    C5341193   0.278   7.211   3.771 -0.1308 -0.5119 -1.4111
  171MOL    O5441194   0.401   7.216   3.771  0.2474  0.2140 -0.0038
  171MOL    O5541195   0.196   7.281   3.687 -0.1012 -0.5469  0.2663
  171MOL    H5641196   0.388   7.082   3.981 -0.1014 -1.7122 -0.4298
  171MOL    H5741197   0.242   7.023   4.062  1.0108 -1.1710 -0.9671
  171MOL    H5841198   0.067   7.301   3.942  2.1535 -0.4100  0.9371
  171MOL    H5941199   7.757   7.149   3.985 -0.3790  2.4622  0.4783
  171MOL    H6041200   7.757   7.209   3.829 -1.0386  1.6571  0.4129
  171MOL    H6141201   0.108   7.304   3.714  0.3574 -0.3010  1.6056
  171MOL    C6241202   0.168   6.988   3.794  0.4894  0.3364 -0.5456
  171MOL    C6341203   0.056   6.876   3.820 -0.0129 -0.1685  0.8322
  171MOL    C6441204   0.119   6.736   3.773 -0.5488  0.5335 -0.1212
  171MOL    C6541205   0.017   6.863   3.967 -0.1147 -0.1217  0.1568
  171MOL    O6641206   7.680   6.906   4.020 -0.0753 -0.3084 -0.4486
  171MOL    O6741207   0.117   6.801   4.030 -0.2929 -0.6707 -0.1323
  171MOL    H6841208   0.164   7.014   3.688  0.9577  3.3854  0.1341
  171MOL    H6941209   0.260   6.931   3.809 -1.1684 -1.7392  2.1907
  171MOL    H7041210   0.167   6.751   3.676  0.4897  0.8118  0.4294
  171MOL    H7141211   0.045   6.659   3.754  2.3153 -2.1398 -0.8372
  171MOL    H7241212   0.201   6.703   3.836  0.0434 -1.0028 -1.6591
  171MOL    H7341213   0.100   6.798   4.123  0.7040  0.2732  0.0921
  171MOL    C7441214   7.698   6.907   3.734 -0.4714 -0.1324  0.1485
  171MOL    C7541215   7.608   6.797   3.663 -0.4460 -0.1363 -0.4580
  171MOL    C7641216   7.500   6.878   3.591 -0.0057  0.3043 -0.1346
  171MOL    C7741217   7.680   6.731   3.549 -1.2251  0.1880 -0.1265
  171MOL    O7841218   0.008   6.784   3.489  0.7908  0.4539  0.5425
  171MOL    O7941219   7.620   6.616   3.499 -0.4373  0.0797 -0.4913
  171MOL    H8041220   7.623   6.963   3.789  0.8397  0.9179  0.8987
  171MOL    H8141221   7.735   6.970   3.653 -0.3686 -1.2366 -0.6788
  171MOL    H8241222   7.528   6.925   3.496  0.8588 -0.8074 -0.4308
  171MOL    H8341223   7.464   6.961   3.652 -1.1265 -0.9567  0.9448
  171MOL    H8441224   7.411   6.819   3.567  0.4662 -0.7301  0.6332
  171MOL    H8541225   7.546   6.592   3.553  0.9995 -1.8496  0.6845
  171MOL    C8641226   7.553   6.682   3.768  0.2814  0.1370 -0.1585
  171MOL    C8741227   7.405   6.667   3.815  0.2379  0.0508 -0.0492
  171MOL    C8841228   7.347   6.815   3.850 -0.0717  0.1195 -0.0941
  171MOL    C8941229   7.320   6.604   3.704 -0.4248  0.5616 -0.4769
  171MOL    O9041230   7.366   6.561   3.597  0.2457 -1.0187  0.0009
  171MOL    O9141231   7.194   6.584   3.749  0.3105 -0.1583  0.3035
  171MOL    H9241232   7.578   6.581   3.735 -0.4435 -0.2352  0.4181
  171MOL    H9341233   7.615   6.707   3.854  1.1772  0.4367 -0.8804
  171MOL    H9441234   7.283   6.812   3.938  0.7084 -2.4849  0.4325
  171MOL    H9541235   7.289   6.856   3.767 -1.1600 -0.8568  0.1694
  171MOL    H9641236   7.423   6.890   3.874  0.8190 -0.8008  0.0156
  171MOL    H9741237   7.146   6.546   3.677  0.6914  1.0361 -0.5853
  171MOL    C9841238   7.389   6.578   3.952  0.7364 -0.2320  0.4823
  171MOL    C9941239   7.465   6.443   3.973 -0.1831 -0.1307 -0.2839
  171MOL   C10041240   7.461   6.347   3.853 -0.1699  0.2869  0.3208
  171MOL   C10141241   7.616   6.478   3.994  0.2563 -0.0298 -0.1204
  171MOL   O10241242   7.655   6.520   4.101 -0.2428 -0.3092 -0.4172
  171MOL   O10341243   7.705   6.463   3.885  0.0517 -0.3073  0.1323
  171MOL   H10441244   7.411   6.649   4.032 -0.6072  1.5215 -0.6543
  171MOL   H10541245   7.283   6.564   3.972  0.3470  1.4926 -0.2804
  171MOL   H10641246   7.362   6.319   3.816 -0.1691  0.3547  0.2686
  171MOL   H10741247   7.505   6.250   3.880  0.9965  1.2387  1.9039
  171MOL   H10841248   7.514   6.386   3.766 -2.6472 -0.0547 -1.4131
  171MOL   H10941249   0.025   6.485   3.913  0.1441 -0.6108  0.0860
  171MOL   C11041250   7.401   6.367   4.100 -0.7108 -0.1871  0.0005
  171MOL   C11141251   7.275   6.268   4.097  0.4310 -0.5743 -0.7692
  171MOL   C11241252   7.160   6.347   4.032  0.3341 -0.7162  0.1132
  171MOL   C11341253   7.311   6.137   4.027  0.5924  0.6873  0.0322
  171MOL   O11441254   7.412   6.073   4.051 -0.4553 -0.5371 -0.3817
  171MOL   O11541255   7.213   6.100   3.932 -0.0030  0.1443 -0.7813
  171MOL   H11641256   7.488   6.320   4.144  0.4222  0.3035 -1.6568
  171MOL   H11741257   7.384   6.452   4.166  1.8086  0.0232  0.4115
  171MOL   H11841258   7.174   6.386   3.931 -4.2397  1.3027  0.1068
  171MOL   H11941259   7.110   6.426   4.089 -1.9215 -1.4347 -0.8293
  171MOL   H12041260   7.076   6.279   4.019  0.3875 -1.0054  1.2664
  171MOL   H12141261   7.241   6.015   3.903  2.5834  0.4729  0.5742
  171MOL   C12241262   7.245   6.240   4.245 -0.1964 -0.1485 -0.2060
  171MOL   C12341263   7.151   6.122   4.301 -0.5626 -0.9107 -0.1583
  171MOL   C12441264   7.028   6.094   4.209  0.1578 -0.4122  0.1708
  171MOL   C12541265   7.230   5.979   4.322  0.7299  0.0199 -0.4580
  171MOL   O12641266   7.348   5.955   4.324  0.4827 -0.3086  0.4444
  171MOL   O12741267   7.140   5.875   4.340 -0.3356  0.2031  0.3832
  171MOL   H12841268   7.338   6.232   4.303  0.0121  0.5492 -0.4375
  171MOL   H12941269   7.212   6.336   4.284  1.9132 -0.6031  2.9264
  171MOL   H13041270   6.963   6.023   4.261 -1.2257  0.1821 -0.7193
  171MOL   H13141271   7.060   6.047   4.116  1.4732  0.0395  0.3776
  171MOL   H13241272   6.975   6.185   4.181  0.4307 -0.3701 -0.2140
  171MOL   H13341273   7.189   5.805   4.380 -0.3695  0.7897  1.4921
  171MOL   C13441274   7.092   6.171   4.439  0.2133  0.2411 -0.9987
  171MOL   C13541275   7.174   6.237   4.562  0.6085  0.1300 -0.9912
  171MOL   C13641276   7.083   6.231   4.684  0.1626 -0.3707 -0.2736
  171MOL   C13741277   7.288   6.135   4.604 -0.3393  0.1346 -0.2975
  171MOL   O13841278   7.413   6.157   4.602  0.1459 -0.2314 -0.9762
  171MOL   O13941279   7.233   6.015   4.627 -0.2928 -0.0026  0.6176
  171MOL   H14041280   7.019   6.248   4.412 -1.5289 -1.2088 -0.4797
  171MOL   H14141281   7.024   6.094   4.476  1.6398  0.3203  1.9571
  171MOL   H14241282   7.034   6.133   4.684  0.4773 -0.5371  1.0068
  171MOL   H14341283   7.010   6.311   4.677 -0.2974 -0.7375  0.2501
  171MOL   H14441284   7.135   6.231   4.780 -1.2906  1.5032  0.5259
  171MOL   H14541285   7.306   5.955   4.637  0.0053  0.6414  2.3622
  171MOL   C14641286   7.241   6.376   4.550  0.0771  0.5925  0.1729
  171MOL   C14741287   7.160   6.508   4.558  0.4479  1.1391 -0.1808
  171MOL   C14841288   7.039   6.498   4.461  0.1084 -0.3738  0.4325
  171MOL   C14941289   7.138   6.538   4.712  0.9904 -0.4019  0.2713
  171MOL   O15041290   7.197   6.500   4.815 -0.1455  0.3031 -0.3838
  171MOL   O15141291   7.028   6.622   4.724 -0.1775  0.4368 -0.2849
  171MOL   H15241292   7.315   6.376   4.630  0.0450 -1.2647  0.2213
  171MOL   H15341293   7.300   6.374   4.458 -1.4315 -0.3661 -0.8091
  171MOL   H15441294   6.967   6.425   4.498  0.0503 -0.5276  0.0247
  171MOL   H15541295   7.063   6.469   4.359  0.7665  0.2386  0.4095
  171MOL   H15641296   6.981   6.590   4.460  0.0856 -0.3955 -1.2056
  171MOL   H15741297   6.997   6.643   4.811 -0.8076  1.7671 -0.8259
  171MOL   C15841298   7.251   6.621   4.494 -0.4952  0.5452 -0.7486
  171MOL   C15941299   7.244   6.775   4.504  0.3799  0.1497  0.6129
  171MOL   C16041300   7.098   6.823   4.462  0.0713 -0.2088  0.3685
  171MOL   C16141301   7.267   6.818   4.650 -0.2419  0.1459 -0.2402
  171MOL   O16241302   7.207   6.913   4.701  0.3499  0.7909  0.5761
  171MOL   O16341303   7.363   6.747   4.714  0.2814 -0.1235 -0.6769
  171MOL   H16441304   7.355   6.597   4.517  0.3852  2.3365 -2.6979
  171MOL   H16541305   7.247   6.596   4.388  2.3847 -0.0040 -0.7565
  171MOL   H16641306   7.064   6.783   4.366 -2.8356  1.9600  0.4164
  171MOL   H16741307   7.086   6.931   4.460  0.3266 -0.1489  1.7055
  171MOL   H16841308   7.025   6.783   4.532 -0.7684 -1.3409 -1.1115
  171MOL   H16941309   7.387   6.795   4.792  1.1099  2.0246 -2.2428
  171MOL   C17041310   7.349   6.841   4.399  0.4550 -0.2206  0.3702
  171MOL   C17141311   7.419   6.980   4.408 -0.5657 -0.2021  1.0400
  171MOL   C17241312   7.497   6.985   4.536 -0.5837  0.5493  0.4054
  171MOL   C17341313   7.522   6.995   4.285 -0.1354  0.3953 -0.2286
  171MOL   O17441314   7.637   7.033   4.296  0.8277 -0.0607  0.6043
  171MOL   O17541315   7.466   6.965   4.163  0.2398  0.0828  0.1042
  171MOL   H17641316   7.425   6.764   4.387 -0.6826 -1.1640 -1.0138
  171MOL   H17741317   7.293   6.846   4.305  1.4397 -1.1742 -0.2786
  171MOL   H17841318   7.437   7.017   4.621 -0.6925  1.4380 -0.0018
  171MOL   H17941319   7.568   7.068   4.534  0.1804 -0.1022 -1.9736
  171MOL   H18041320   7.549   6.894   4.564 -0.7406  0.6082  0.8765
  171MOL   H18141321   7.538   6.960   4.102  1.5565  0.4514  1.6030
  171MOL   C18241322   7.309   7.097   4.410 -0.0858  0.4732 -0.0488
  171MOL   C18341323   7.342   7.255   4.397 -0.7480  0.1775 -0.0958
  171MOL   C18441324   7.214   7.334   4.436 -0.2664  0.3590 -1.0467
  171MOL   C18541325   7.449   7.296   4.501 -0.0006 -0.7240  0.2023
  171MOL   O18641326   7.421   7.346   4.610  0.1913  0.4599  0.0910
  171MOL   O18741327   7.572   7.293   4.448  0.3827  0.2369  0.5385
  171MOL   H18841328   7.240   7.082   4.327 -0.9307 -1.8365  1.0224
  171MOL   H18941329   7.242   7.092   4.496 -0.4487  1.5810 -0.2582
  171MOL   H19041330   7.131   7.316   4.369 -1.7739 -4.1479  1.8055
  171MOL   H19141331   7.226   7.441   4.451  1.8050  0.2322 -1.5649
  171MOL   H19241332   7.176   7.297   4.531  1.2401 -0.7611 -0.8583
  171MOL   H19341333   7.626   7.324   4.519  0.9990  0.4992 -0.0281
  171MOL   C19441334   7.375   7.289   4.247 -0.5600 -0.0776 -0.2681
  171MOL   C19541335   7.378   7.439   4.181  0.5238  0.5449 -0.1269
  171MOL   C19641336   7.458   7.420   4.054  0.5564  0.1479 -0.7310
  171MOL   C19741337   7.239   7.487   4.142 -0.5866  0.2075  0.1911
  171MOL   O19841338   7.190   7.459   4.030  0.2861 -0.1381 -0.5595
  171MOL   O19941339   7.175   7.561   4.232 -0.2730  0.4762  0.7762
  171MOL   H20041340   7.472   7.245   4.227  0.1148  0.5546  1.5020
  171MOL   H20141341   7.321   7.224   4.178  2.5800 -1.0966 -1.8812
  171MOL   H20241342   7.459   7.514   3.998 -0.9415  0.0903 -0.8738
  171MOL   H20341343   7.413   7.351   3.983 -1.2136  0.7350 -0.1952
  171MOL   H20441344   7.562   7.391   4.070  0.2846 -1.7386 -2.2040
  171MOL   H20541345   7.094   7.590   4.192 -0.3815 -0.7636  0.0848
  171MOL   C20641346   7.455   7.538   4.269  0.2278 -0.5203 -0.6797
  171MOL   C20741347   7.514   7.678   4.225  0.6128  0.0110  0.4269
  171MOL   C20841348   7.513   7.748   4.358 -0.0246 -0.1460  0.1029
  171MOL   C20941349   7.655   7.656   4.163  0.2756 -0.0031 -0.2110
  171MOL   O21041350   7.688   7.681   4.050 -0.6440 -0.6484 -0.1653
  171MOL   O21141351   7.739   7.598   4.244 -0.2013  0.8670 -0.2678
  171MOL   H21241352   7.392   7.559   4.356  1.9864 -1.3872  0.8543
  171MOL   H21341353   7.537   7.481   4.314  0.0423  0.9794  1.6435
  171MOL   H21441354   7.563   7.688   4.434 -1.6394 -0.1218  1.2044
  171MOL   H21541355   7.415   7.767   4.402  0.5251  1.1612  0.7926
  171MOL   H21641356   7.565   0.076   4.352  1.0316 -0.7440 -0.4760
  171MOL   H21741357   0.054   7.580   4.199 -0.8460 -2.2408 -0.3087
  171MOL   C21841358   7.426   7.762   4.126  0.3189 -0.1329  1.1966
  171MOL   C21941359   7.434   0.155   4.105  0.1505 -0.3959  0.4258
  171MOL   C22041360   7.338   0.184   3.988  0.4082  0.9176 -0.8501
  171MOL   C22141361   7.402   0.228   4.237  0.2606 -0.1490  1.1149
  171MOL   O22241362   7.463   0.323   4.287  0.4928 -0.2091  0.1478
  171MOL   O22341363   7.276   0.197   4.274 -0.0965 -0.2381  0.6654
  171MOL   H22441364   7.450   7.722   4.027  1.8385  1.6463  0.8105
  171MOL   H22541365   7.324   7.734   4.152  1.0302 -2.9583  1.1204
  171MOL   H22641366   7.374   0.152   3.890  1.5926  0.9199 -0.4262
  171MOL   H22741367   7.303   0.287   3.977 -0.8809  0.7433  1.3323
  171MOL   H22841368   7.241   0.135   4.000  0.3433  0.9496 -1.2270
  171MOL   H22941369   7.243   0.239   4.351 -1.3075 -1.4675  0.8481
  171MOL   C23041370   7.578   0.193   4.060  0.2751 -0.0345  0.2969
  171MOL   C23141371   7.607   0.346   4.021 -0.0710  0.5967  0.4551
  171MOL   C23241372   7.721   0.419   4.087  0.6179 -0.1160 -0.1269
  171MOL   C23341373   7.621   0.362   3.865  0.3147 -0.8372 -0.4086
  171MOL   O23441374   7.733   0.347   3.818 -0.2310  0.5882  0.1446
  171MOL   O23541375   7.508   0.399   3.804 -0.3112  0.2238  0.1841
  171MOL   H23641376   7.646   0.165   4.140 -0.7956 -2.1223  0.5007
  171MOL   H23741377   7.605   0.136   3.972 -1.4196  0.9466 -0.8902
  171MOL   H23841378   7.696   0.442   4.191 -0.7781  0.9160 -0.6773
  171MOL   H23941379   7.750   0.506   4.027 -0.2419  0.0386 -0.3240
  171MOL   H24041380   0.043   0.356   4.085  1.7474  1.4459 -0.1606
  171MOL   H24141381   7.534   0.403   3.713 -0.1862 -0.3971  0.1928
  171MOL   H24241382   7.522   0.414   4.032  0.1075  0.9397 -0.2830
  172MOL     C141383   2.080   5.648   5.171 -0.1581 -0.1856  0.5842
  172MOL     C241384   2.066   5.795   5.127  0.0130 -0.4752  0.1206
  172MOL     C341385   2.022   5.793   4.977  0.2261  0.4830 -0.6186
  172MOL     C441386   1.946   5.870   5.197  1.0018 -0.6873  1.1399
  172MOL     O541387   1.938   5.995   5.206 -0.5573  0.1632  0.6222
  172MOL     O641388   1.845   5.792   5.246 -0.1208 -0.4351 -0.5554
  172MOL     H741389   2.000   5.583   5.136 -1.6290  1.3504  1.0077
  172MOL     H841390   2.090   5.648   5.279 -0.4574  1.4305  0.6329
  172MOL     H941391   2.003   5.894   4.940 -1.7064  0.6994  0.8710
  172MOL    H1041392   1.936   5.729   4.958  0.4076  0.4499 -1.3354
  172MOL    H1141393   2.095   5.743   4.915 -0.5002 -0.9718 -0.3386
  172MOL    H1241394   1.877   5.703   5.252  0.4027 -0.0858  2.5949
  172MOL    H1341395   2.172   5.619   5.119 -0.2516 -0.5522  0.6246
  172MOL    C1441396   2.191   5.889   5.129 -0.1970  0.7156 -0.5028
  172MOL    C1541397   2.297   5.888   5.249 -0.0127 -0.3501  0.0176
  172MOL    C1641398   2.359   5.747   5.255  0.1507 -0.4014  0.4004
  172MOL    C1741399   2.406   5.983   5.188 -0.8479 -0.3235 -1.0330
  172MOL    O1841400   2.520   5.946   5.165  0.1680 -0.1699 -0.1657
  172MOL    O1941401   2.362   6.110   5.173  0.1428  0.4350 -0.2281
  172MOL    H2041402   2.247   5.854   5.043  0.8026  1.8116 -0.2999
  172MOL    H2141403   2.167   5.994   5.113 -1.1615  0.7327  0.9328
  172MOL    H2241404   2.376   5.705   5.157  1.2905 -1.0912  0.8871
  172MOL    H2341405   2.295   5.681   5.313  0.5453  0.1538  1.4935
  172MOL    H2441406   2.448   5.738   5.318 -0.0680  0.4566  0.8556
  172MOL    H2541407   2.438   6.159   5.146  2.3482 -3.3787 -1.2521
  172MOL    C2641408   2.243   5.929   5.383  0.1588 -0.7326 -0.1305
  172MOL    C2741409   2.333   5.990   5.499 -0.1996 -0.3664 -0.3147
  172MOL    C2841410   2.475   5.923   5.517 -0.1127  0.5095  0.5795
  172MOL    C2941411   2.352   6.141   5.473 -0.6182 -0.3139 -0.4662
  172MOL    O3041412   2.464   6.189   5.470 -0.4664  0.4750  0.0930
  172MOL    O3141413   2.242   6.200   5.429  0.4774 -0.5740 -0.1021
  172MOL    H3241414   2.160   5.998   5.369  0.8358  0.1137 -0.0108
  172MOL    H3341415   2.205   5.840   5.432 -0.7791  0.0650  0.6063
  172MOL    H3441416   2.536   5.953   5.431 -1.5319  1.7210 -0.0378
  172MOL    H3541417   2.472   5.814   5.520  0.9011  0.4319 -0.6304
  172MOL    H3641418   2.537   5.952   5.602  0.8190 -0.6630  0.3065
  172MOL    H3741419   2.257   6.293   5.416 -0.2132 -0.1981  1.6928
  172MOL    C3841420   2.257   5.981   5.638 -0.6301  0.4198  0.3881
  172MOL    C3941421   2.137   5.891   5.686  0.0203 -1.4956  0.1690
  172MOL    C4041422   2.010   5.943   5.607 -0.0985 -0.4058 -0.3839
  172MOL    C4141423   2.160   5.737   5.671  0.1536  0.3024  0.3669
  172MOL    O4241424   2.276   5.690   5.666  0.2638 -0.2911  0.2382
  172MOL    O4341425   2.049   5.658   5.704 -0.6286  0.7905  0.4796
  172MOL    H4441426   2.337   5.955   5.708  0.6180 -0.7201 -1.4419
  172MOL    H4541427   2.232   6.082   5.671  2.0253  0.3258  2.9643
  172MOL    H4641428   2.037   6.020   5.535  0.0479  1.5757  1.7120
  172MOL    H4741429   1.942   6.004   5.667  0.8575  0.3666 -0.0632
  172MOL    H4841430   1.970   5.865   5.543  0.5612 -1.9012  1.0049
  172MOL    H4941431   2.067   5.566   5.718  0.1595  0.9916  0.8480
  172MOL    C5041432   2.116   5.925   5.841  0.0748 -0.3142  0.2168
  172MOL    C5141433   2.233   5.942   5.949  0.3261  0.1668  1.2057
  172MOL    C5241434   2.171   5.907   6.083  0.5590  0.1431 -0.8063
  172MOL    C5341435   2.347   5.834   5.945  0.3857  1.0900  0.4111
  172MOL    O5441436   2.473   5.861   5.942  0.5108  0.4388  0.0394
  172MOL    O5541437   2.296   5.705   5.942 -0.7753 -0.2535 -0.2047
  172MOL    H5641438   2.050   6.012   5.843 -0.3326 -0.5902 -0.8480
  172MOL    H5741439   2.054   5.844   5.881 -0.7074  0.1574 -0.0240
  172MOL    H5841440   2.133   5.806   6.072  3.0040 -0.7494 -1.3482
  172MOL    H5941441   2.091   5.972   6.120  1.5131  0.0217  1.5016
  172MOL    H6041442   2.253   5.912   6.154 -0.5217  0.1963  0.4473
  172MOL    H6141443   2.368   5.644   5.949 -0.7323 -0.3203 -1.1171
  172MOL    C6241444   2.291   6.093   5.938  0.0913 -0.1038  0.5091
  172MOL    C6341445   2.322   6.191   6.057  0.1263 -0.0516  0.4639
  172MOL    C6441446   2.182   6.239   6.094 -0.2956  0.3402  0.0205
  172MOL    C6541447   2.412   6.145   6.165 -0.2217 -0.6695  0.2823
  172MOL    O6641448   2.393   6.178   6.283  0.4994 -0.0176  1.2343
  172MOL    O6741449   2.513   6.060   6.116  0.1167 -0.4754 -0.1759
  172MOL    H6841450   2.384   6.080   5.882  0.6514  2.0232  0.8862
  172MOL    H6941451   2.222   6.146   5.872  0.1347  1.4410  1.6956
  172MOL    H7041452   2.141   6.186   6.180 -0.2030  0.7054  0.2887
  172MOL    H7141453   2.104   6.228   6.019 -0.4962 -0.1816  0.2992
  172MOL    H7241454   2.173   6.338   6.139 -1.0390 -0.4688  1.7086
  172MOL    H7341455   2.489   6.037   6.027  2.1835 -0.7559 -0.6930
  172MOL    C7441456   2.394   6.303   5.983  0.1312 -0.0666 -0.0982
  172MOL    C7541457   2.440   6.439   6.046 -0.0354  0.0451 -0.7692
  172MOL    C7641458   2.356   6.498   6.153 -0.2274  0.0149 -0.6536
  172MOL    C7741459   2.575   6.431   6.117  0.2822 -0.1868 -0.0250
  172MOL    O7841460   2.639   6.326   6.123  0.1830 -0.6993 -0.1049
  172MOL    O7941461   2.617   6.550   6.162  0.2845  0.2925 -0.1025
  172MOL    H8041462   2.488   6.262   5.944 -1.1131 -2.7233 -0.4217
  172MOL    H8141463   2.327   6.331   5.901  1.3152 -0.4523 -1.2199
  172MOL    H8241464   2.263   6.528   6.106 -0.9199 -0.7051  0.2606
  172MOL    H8341465   2.391   6.593   6.196  1.6022 -2.0457  2.6725
  172MOL    H8441466   2.337   6.433   6.238  0.6675 -0.1254 -0.5480
  172MOL    H8541467   2.711   6.551   6.175  0.0281 -1.7220  2.1179
  172MOL    C8641468   2.447   6.540   5.927  0.1537  0.3307 -0.2605
  172MOL    C8741469   2.533   6.528   5.799  0.6259  0.2152  0.5937
  172MOL    C8841470   2.685   6.509   5.840  0.3071  0.0054  0.1167
  172MOL    C8941471   2.481   6.412   5.708 -0.1905 -0.4553  0.0809
  172MOL    O9041472   2.369   6.406   5.660 -0.5790  0.8531  0.1847
  172MOL    O9141473   2.575   6.312   5.706  0.2336  0.3102  0.3281
  172MOL    H9241474   2.348   6.553   5.884  0.2358 -1.1065 -0.9073
  172MOL    H9341475   2.473   6.635   5.974 -1.7329  0.1118  1.2507
  172MOL    H9441476   2.693   6.416   5.897 -2.9402 -1.3728 -1.5194
  172MOL    H9541477   2.717   6.585   5.911  0.5593 -1.7610  1.9550
  172MOL    H9641478   2.765   6.497   5.767  0.0724  0.8629 -0.2814
  172MOL    H9741479   2.555   6.253   5.635  2.3922 -1.4145  1.1212
  172MOL    C9841480   2.513   6.666   5.724 -0.0233  0.7280 -0.1901
  172MOL    C9941481   2.602   6.704   5.596 -0.2029  0.1869  0.0972
  172MOL   C10041482   2.552   6.837   5.551  0.3616  0.1652 -0.2580
  172MOL   C10141483   2.748   6.733   5.640  0.7205  0.0058 -0.2857
  172MOL   O10241484   2.846   6.664   5.615 -0.7177 -0.6070 -0.7066
  172MOL   O10341485   2.762   6.833   5.726 -0.1750 -0.0305 -0.4175
  172MOL   H10441486   2.406   6.682   5.708 -1.5194 -2.9095  4.9342
  172MOL   H10541487   2.537   6.735   5.805  0.1231 -1.4795  1.6977
  172MOL   H10641488   2.535   6.912   5.628 -1.5718 -0.3269 -0.1909
  172MOL   H10741489   2.457   6.835   5.497  2.0297  2.1937 -3.4446
  172MOL   H10841490   2.613   6.887   5.475  1.5249 -0.9280 -0.0625
  172MOL   H10941491   2.685   6.887   5.713 -0.1073 -0.0914 -1.0911
  172MOL   C11041492   2.589   6.599   5.479 -0.0595  0.2581 -0.5297
  172MOL   C11141493   2.624   6.633   5.321  0.1919  0.3958 -0.7989
  172MOL   C11241494   2.613   6.488   5.261  0.3851  0.5210 -0.0087
  172MOL   C11341495   2.525   6.729   5.252  0.1811  0.1195  0.1508
  172MOL   O11441496   2.561   6.843   5.218  0.3415 -0.1331 -0.3159
  172MOL   O11541497   2.401   6.677   5.218 -0.6435 -0.4096 -0.1474
  172MOL   H11641498   2.642   6.512   5.519 -0.1711  0.4184 -0.0233
  172MOL   H11741499   2.483   6.574   5.475  0.6492 -3.2085  0.2975
  172MOL   H11841500   2.519   6.442   5.293  1.6344 -1.3166  1.0944
  172MOL   H11941501   2.695   6.425   5.295 -0.6739 -0.3598  0.9882
  172MOL   H12041502   2.603   6.484   5.152 -1.8868 -0.4831  0.1904
  172MOL   H12141503   2.348   6.749   5.191  0.2082 -0.0376 -0.8449
  172MOL   C12241504   2.776   6.691   5.309  0.2956  0.7491  0.1506
  172MOL   C12341505   2.888   6.674   5.201 -0.2061  0.3958  0.0906
  172MOL   C12441506   2.956   6.541   5.210 -0.7962 -0.4382  0.0179
  172MOL   C12541507   2.815   6.684   5.065 -0.2380  0.4786  0.4106
  172MOL   O12641508   2.786   6.582   4.999 -0.7181  0.9084  0.6584
  172MOL   O12741509   2.793   6.810   5.021 -0.1682 -0.3634 -0.0544
  172MOL   H12841510   2.774   6.797   5.336  1.1659  1.1301 -1.2470
  172MOL   H12941511   2.824   6.637   5.391 -1.0724  2.5680  2.2270
  172MOL   H13041512   2.877   6.469   5.186 -0.5580 -1.2107  1.4917
  172MOL   H13141513   2.990   6.516   5.310 -0.4304 -0.3112 -0.0741
  172MOL   H13241514   3.035   6.534   5.135  0.2469  0.9616  0.9770
  172MOL   H13341515   2.749   6.805   4.938 -0.5119  0.2443  0.0829
  172MOL   C13441516   2.986   6.800   5.223 -0.1901 -0.7099  0.7350
  172MOL   C13541517   3.131   6.822   5.155 -0.1162 -0.5810 -1.0577
  172MOL   C13641518   3.160   6.966   5.202  0.4955 -0.4413  0.1540
  172MOL   C13741519   3.233   6.721   5.223 -0.1669 -0.2554 -0.1876
  172MOL   O13841520   3.219   6.646   5.316 -0.4218 -0.3681 -0.0645
  172MOL   O13941521   3.354   6.731   5.159  0.2216  0.3800  0.1965
  172MOL   H14041522   2.927   6.889   5.199  0.6974 -0.0299  1.0542
  172MOL   H14141523   2.992   6.805   5.331 -1.0333 -2.4474  0.8834
  172MOL   H14241524   3.082   7.031   5.163  0.2135 -1.5896 -1.2722
  172MOL   H14341525   3.254   7.007   5.165  0.3942  0.0809  0.4759
  172MOL   H14441526   3.181   6.973   5.309  1.4874  2.8527 -0.1922
  172MOL   H14541527   3.351   6.795   5.090 -0.4982 -0.4506 -0.5602
  172MOL   C14641528   3.136   6.799   4.998 -0.4195 -0.3399 -0.7064
  172MOL   C14741529   3.158   6.909   4.885 -0.2467  0.3422 -0.2639
  172MOL   C14841530   3.052   7.023   4.896  0.2356  0.1304 -0.0624
  172MOL   C14941531   3.293   6.972   4.885  0.3413  0.2987  0.3469
  172MOL   O15041532   3.385   6.934   4.953 -0.2478  0.2885  0.0067
  172MOL   O15141533   3.304   7.068   4.792  0.3633  0.2179  0.0349
  172MOL   H15241534   3.204   6.718   4.970 -0.0062  0.3039 -1.5874
  172MOL   H15341535   3.038   6.764   4.966 -2.5396  2.6593  2.2086
  172MOL   H15441536   2.959   6.983   4.937  1.1685 -1.1622  0.8172
  172MOL   H15541537   3.029   7.084   4.808  1.1562  3.6838  2.0354
  172MOL   H15641538   3.074   7.108   4.962 -2.8582  1.2562 -0.3948
  172MOL   H15741539   3.390   7.102   4.774 -0.1959  0.3393 -2.6149
  172MOL   C15841540   3.134   6.845   4.741 -0.0340 -0.1350 -0.0606
  172MOL   C15941541   3.211   6.714   4.690 -0.4543  0.4873  0.0061
  172MOL   C16041542   3.356   6.713   4.725 -0.0334 -0.1795  0.2370
  172MOL   C16141543   3.145   6.594   4.763  0.1126  0.3370  1.2090
  172MOL   O16241544   3.207   6.495   4.810 -0.1019 -0.3692  0.2947
  172MOL   O16341545   3.007   6.593   4.753 -0.3801  0.4693 -0.3912
  172MOL   H16441546   3.027   6.837   4.720  0.2867 -0.8507 -1.5086
  172MOL   H16541547   3.157   6.915   4.661  0.8083  0.0837  0.3706
  172MOL   H16641548   3.399   6.619   4.691 -0.8985 -0.6874  0.5182
  172MOL   H16741549   3.353   6.715   4.834  2.9687 -0.3802  0.3465
  172MOL   H16841550   3.405   6.799   4.680  0.5091 -0.8035 -0.3962
  172MOL   H16941551   2.953   6.518   4.772  0.3675 -0.1115 -0.5223
  172MOL   C17041552   3.170   6.705   4.535 -0.3166  1.2066  0.2304
  172MOL   C17141553   3.254   6.623   4.421  0.6428  0.1991 -0.0779
  172MOL   C17241554   3.392   6.683   4.399  0.7671 -0.2439  0.4520
  172MOL   C17341555   3.286   6.474   4.462  0.2461 -0.2991 -0.6460
  172MOL   O17441556   3.398   6.431   4.468 -0.4143  0.0297  0.1798
  172MOL   O17541557   3.176   6.406   4.498 -0.1395 -0.2887 -0.2120
  172MOL   H17641558   3.063   6.687   4.535  0.3384 -3.1863  0.7561
  172MOL   H17741559   3.175   6.804   4.490  0.9171  0.9304 -0.2544
  172MOL   H17841560   3.370   6.787   4.375  0.6122 -0.5676 -0.8492
  172MOL   H17941561   3.449   6.640   4.317  0.8110 -0.2485  0.4851
  172MOL   H18041562   3.451   6.675   4.491  1.0895 -0.4192  0.2316
  172MOL   H18141563   3.193   6.313   4.495  2.0749  0.0794  0.1264
  172MOL   C18241564   3.171   6.628   4.285  0.4995  0.0580 -0.1612
  172MOL   C18341565   3.014   6.632   4.266 -0.4269  0.0473 -0.4716
  172MOL   C18441566   2.931   6.522   4.345 -1.1478  0.1456 -0.2011
  172MOL   C18541567   2.959   6.774   4.318  0.4348 -0.2924 -0.0682
  172MOL   O18641568   2.873   6.792   4.407  0.2655  0.6499  0.2351
  172MOL   O18741569   3.034   6.868   4.252  0.5518 -0.1442 -0.6448
  172MOL   H18841570   3.212   6.717   4.238 -0.8100 -0.0352 -1.5273
  172MOL   H18941571   3.212   6.550   4.221 -0.6772  1.0175 -2.1087
  172MOL   H19041572   2.823   6.533   4.347 -1.0790  1.2556 -1.6968
  172MOL   H19141573   2.963   6.514   4.448 -0.8780 -3.3911 -0.5041
  172MOL   H19241574   2.954   6.430   4.289 -0.8203  0.7242 -1.0365
  172MOL   H19341575   3.013   6.955   4.282 -0.0252 -0.1137 -1.1298
  172MOL   C19441576   2.989   6.616   4.115  0.2066  0.1212  0.7978
  172MOL   C19541577   2.859   6.649   4.037 -0.2820 -0.3380 -0.1670
  172MOL   C19641578   2.731   6.586   4.111  0.5562 -0.4713  0.0668
  172MOL   C19741579   2.850   6.800   4.029  0.1283  0.2934  0.8491
  172MOL   O19841580   2.945   6.861   3.990  0.3428  0.0566 -0.1291
  172MOL   O19941581   2.727   6.854   4.049  0.1450 -0.0081 -0.2125
  172MOL   H20041582   3.076   6.662   4.070 -0.3762  1.9082  1.4717
  172MOL   H20141583   3.006   6.511   4.091 -0.2342 -0.2148  1.9129
  172MOL   H20241584   2.704   6.633   4.206  3.5242 -0.0401  0.7470
  172MOL   H20341585   2.747   6.480   4.131  3.7245 -0.2938 -1.2069
  172MOL   H20441586   2.640   6.585   4.051 -0.5996 -1.9865  1.8220
  172MOL   H20541587   2.731   6.946   4.031 -2.0233 -0.1285 -1.5437
  172MOL   C20641588   2.885   6.591   3.896  0.5765  0.5038  0.3570
  172MOL   C20741589   2.804   6.617   3.761  0.6892 -0.6359 -0.4459
  172MOL   C20841590   2.656   6.615   3.789 -0.3106  0.0987 -0.1857
  172MOL   C20941591   2.848   6.755   3.700 -0.4199  0.6412  0.6875
  172MOL   O21041592   2.774   6.858   3.688 -0.3279 -0.0094 -0.3711
  172MOL   O21141593   2.974   6.755   3.664 -0.0348  0.3553 -0.1326
  172MOL   H21241594   2.987   6.618   3.870  0.6125  1.1284  1.0981
  172MOL   H21341595   2.881   6.483   3.913  1.3693  0.3427 -0.4661
  172MOL   H21441596   2.639   6.681   3.874  0.9977 -1.5845  1.4271
  172MOL   H21541597   2.632   6.517   3.831 -1.7728  1.3269  1.9623
  172MOL   H21641598   2.591   6.633   3.704 -1.3447  0.1151  0.5954
  172MOL   H21741599   3.008   6.835   3.629  1.1849  0.3860  1.0807
  172MOL   C21841600   2.848   6.495   3.666  0.1749 -0.5227  0.1671
  172MOL   C21941601   2.782   6.461   3.524 -1.0365  0.6545 -0.0884
  172MOL   C22041602   2.647   6.393   3.545 -0.2858 -0.4953 -0.1237
  172MOL   C22141603   2.774   6.587   3.436  0.0759  0.9129  0.9508
  172MOL   O22241604   2.862   6.610   3.351 -0.0739 -0.4307 -0.4304
  172MOL   O22341605   2.669   6.670   3.462 -0.1126 -0.0904  0.0219
  172MOL   H22441606   2.955   6.484   3.656  0.1495 -2.2282  1.4473
  172MOL   H22541607   2.836   6.403   3.724  0.1963  0.6130  1.9941
  172MOL   H22641608   2.574   6.464   3.584 -1.5217 -0.4387 -2.4474
  172MOL   H22741609   2.641   6.311   3.616 -1.8312  0.6275  1.0720
  172MOL   H22841610   2.599   6.363   3.452  0.9290  3.2766 -2.0722
  172MOL   H22941611   2.667   6.746   3.405 -1.2028 -0.8594 -0.9736
  172MOL   C23041612   2.880   6.357   3.466 -0.4236 -0.3561  0.7637
  172MOL   C23141613   2.846   6.304   3.322 -0.6254  0.0389 -0.6245
  172MOL   C23241614   2.969   6.280   3.234  0.2275  0.3326  0.6453
  172MOL   C23341615   2.770   6.176   3.332 -0.2365 -0.0378  0.2970
  172MOL   O23441616   2.747   6.104   3.432 -0.2888 -0.3888 -0.4205
  172MOL   O23541617   2.719   6.142   3.212  0.3690 -0.5246  0.0743
  172MOL   H23641618   2.976   6.408   3.459 -1.3964  1.4828  0.6743
  172MOL   H23741619   2.903   6.277   3.536  0.8128  1.1062  2.0534
  172MOL   H23841620   3.036   6.210   3.283 -0.6030  1.4769  3.5083
  172MOL   H23941621   3.022   6.375   3.218  1.4687 -0.8872 -2.8288
  172MOL   H24041622   2.945   6.244   3.134 -1.4873  0.9395  0.8169
  172MOL   H24141623   2.661   6.067   3.208 -0.0981 -0.1366 -0.5648
  172MOL   H24241624   2.792   6.373   3.257 -2.0827  0.2083  0.7274
  173MOL     C141625   7.306   0.460   0.167 -0.9367 -0.3137 -0.7577
  173MOL     C241626   7.383   0.443   0.301  0.2944 -0.5457 -0.5908
  173MOL     C341627   7.386   0.292   0.334 -0.0561  0.1923 -0.6223
  173MOL     C441628   7.534   0.479   0.296 -0.0363 -0.5033  0.2372
  173MOL     O541629   7.612   0.464   0.390 -0.1474 -0.7609 -0.5981
  173MOL     O641630   7.568   0.538   0.178  0.1898  0.1992  0.4488
  173MOL     H741631   7.277   0.565   0.161 -2.3505 -0.7249 -1.2237
  173MOL     H841632   7.211   0.412   0.189 -1.8240  0.9701 -1.7385
  173MOL     H941633   7.419   0.277   0.436 -0.5610  1.8514 -0.2045
  173MOL    H1041634   7.428   0.219   0.264  1.9352  0.8190 -0.0929
  173MOL    H1141635   7.281   0.262   0.338  0.6193 -2.4671 -1.9724
  173MOL    H1241636   7.661   0.550   0.176  0.1451  0.5792  0.6144
  173MOL    H1341637   7.356   0.410   0.084 -1.1201  0.1605 -1.1592
  173MOL    C1441638   7.316   0.511   0.423 -0.1545  0.4358 -0.2181
  173MOL    C1541639   7.266   0.664   0.425  1.2738 -0.5700 -0.7001
  173MOL    C1641640   7.360   0.766   0.358 -0.3720 -0.0573 -0.9380
  173MOL    C1741641   7.117   0.678   0.350 -0.3047 -0.5200 -0.6291
  173MOL    O1841642   7.035   0.581   0.336 -0.3672  0.4383 -0.4288
  173MOL    O1941643   7.095   0.804   0.316  0.2669 -0.3718  0.1395
  173MOL    H2041644   7.228   0.453   0.449 -0.3600  0.8394 -0.0034
  173MOL    H2141645   7.383   0.504   0.509  0.9435  3.8464 -0.7191
  173MOL    H2241646   7.458   0.769   0.407 -0.2919 -2.1100 -0.9212
  173MOL    H2341647   7.331   0.871   0.359 -1.8221 -0.4457 -1.1607
  173MOL    H2441648   7.377   0.748   0.252  2.8995 -0.4583 -0.4178
  173MOL    H2541649   7.013   0.815   0.271  0.6700 -0.1379 -0.5618
  173MOL    C2641650   7.254   0.717   0.572  0.3169  0.5416  0.3648
  173MOL    C2741651   7.143   0.688   0.675  0.3498 -0.1846 -0.1347
  173MOL    C2841652   7.035   0.801   0.669  0.3292  1.1519  0.2480
  173MOL    C2941653   7.082   0.546   0.661  0.1929 -0.0593 -0.1955
  173MOL    O3041654   6.971   0.523   0.620 -0.2915 -0.6430  0.0065
  173MOL    O3141655   7.181   0.457   0.691  0.6252  0.1310  0.0564
  173MOL    H3241656   7.351   0.696   0.618 -0.9221 -2.4601  1.6769
  173MOL    H3341657   7.245   0.825   0.560 -1.1386  0.3698 -0.0721
  173MOL    H3441658   6.974   0.797   0.579 -1.0769  1.1179  1.1856
  173MOL    H3541659   7.078   0.901   0.676 -2.9344  2.6076  0.5820
  173MOL    H3641660   6.962   0.797   0.751 -0.6668 -4.4163 -0.6841
  173MOL    H3741661   7.152   0.367   0.683 -0.4073  0.3923  0.7938
  173MOL    C3841662   7.214   0.703   0.816 -0.1760  0.1281 -0.4964
  173MOL    C3941663   7.135   0.710   0.957 -0.0941 -0.2929 -0.0976
  173MOL    C4041664   7.245   0.672   1.064  0.4198 -0.1907  0.1091
  173MOL    C4141665   7.097   0.861   0.979 -0.4476  0.8531 -0.1037
  173MOL    O4241666   6.987   0.914   0.974  0.0812  0.3049  0.6482
  173MOL    O4341667   7.209   0.927   1.009 -0.0809 -0.2135  0.4775
  173MOL    H4441668   7.283   0.621   0.836 -0.0066  0.1816 -0.8634
  173MOL    H4541669   7.287   0.784   0.809  0.5102 -0.5346 -1.0890
  173MOL    H4641670   7.252   0.571   1.103  1.5959 -0.1142  0.1060
  173MOL    H4741671   7.233   0.735   1.152 -1.1833 -1.7830  1.0550
  173MOL    H4841672   7.345   0.687   1.024  0.7381  0.3505  1.0973
  173MOL    H4941673   7.186   1.017   1.019 -0.2315 -0.1497 -0.3675
  173MOL    C5041674   7.005   0.615   0.963 -0.2088  0.0840  0.9585
  173MOL    C5141675   6.926   0.609   1.102  0.1380  0.0784  0.0406
  173MOL    C5241676   6.981   0.686   1.230  0.1173  0.2090  0.3693
  173MOL    C5341677   6.792   0.684   1.069 -0.3581  0.3598  0.1668
  173MOL    O5441678   6.741   0.778   1.132  1.0796  0.2897  0.3116
  173MOL    O5541679   6.730   0.640   0.953 -0.1381 -0.2493 -0.2199
  173MOL    H5641680   6.938   0.651   0.885  0.5742  0.5491  0.4887
  173MOL    H5741681   7.030   0.521   0.914  0.7375 -1.0071  3.4497
  173MOL    H5841682   7.076   0.647   1.265  0.4698 -0.4071 -1.2038
  173MOL    H5941683   6.913   0.681   1.314 -1.9190  2.3465 -1.0942
  173MOL    H6041684   6.988   0.793   1.212  0.2881  0.5642  2.5335
  173MOL    H6141685   6.649   0.685   0.933 -0.2593 -0.5768 -0.4614
  173MOL    C6241686   6.886   0.458   1.123  0.9308  0.4571  0.2642
  173MOL    C6341687   6.988   0.343   1.166 -0.6837 -0.6997  0.0352
  173MOL    C6441688   7.089   0.299   1.056  0.2518  0.4002 -0.2323
  173MOL    C6541689   7.057   0.383   1.298 -0.1251  0.4249 -0.4756
  173MOL    O6641690   6.990   0.412   1.398 -0.3201 -0.1950 -0.8006
  173MOL    O6741691   7.195   0.385   1.297 -0.3044 -0.3699 -0.3791
  173MOL    H6841692   6.817   0.469   1.207  2.3209 -0.3018  1.5230
  173MOL    H6941693   6.824   0.420   1.041  2.1888  0.2143 -0.5908
  173MOL    H7041694   7.171   0.240   1.097 -0.7509 -0.1733  0.9941
  173MOL    H7141695   7.155   0.380   1.026 -0.5678  1.4949  0.8392
  173MOL    H7241696   7.053   0.244   0.970  0.0828 -0.7519  0.5593
  173MOL    H7341697   7.233   0.395   1.383 -1.4229 -1.3479  0.2506
  173MOL    C7441698   6.899   0.218   1.205 -0.2648 -0.5689  0.3594
  173MOL    C7541699   6.938   0.066   1.218  0.3041 -0.1581  0.0659
  173MOL    C7641700   6.971   0.009   1.078  0.5809  0.4949  0.1762
  173MOL    C7741701   7.063   0.050   1.306 -0.7700  0.2020 -0.2349
  173MOL    O7841702   7.171   0.003   1.275  0.7769  0.1965  0.1103
  173MOL    O7941703   7.047   0.095   1.432 -0.1264 -0.1894 -0.0765
  173MOL    H8041704   6.851   0.246   1.299 -1.8240  1.2969 -0.9641
  173MOL    H8141705   6.823   0.222   1.127  2.4111 -2.8627 -2.4458
  173MOL    H8241706   6.901   0.033   0.997 -0.9190 -0.4175  1.1851
  173MOL    H8341707   6.975   7.668   1.077  1.5831  0.5318 -0.1534
  173MOL    H8441708   7.063   0.041   1.029 -0.3351  1.2665 -1.1081
  173MOL    H8541709   7.133   0.078   1.466 -0.0944 -0.8247 -0.4835
  173MOL    C8641710   6.809   7.766   1.282  0.1978  0.2176 -0.0136
  173MOL    C8741711   6.791   7.609   1.289  0.2048 -0.4220 -0.3520
  173MOL    C8841712   6.926   7.529   1.322  0.0305 -0.8004 -0.1796
  173MOL    C8941713   6.691   7.583   1.411  0.5146 -0.5575 -0.0116
  173MOL    O9041714   6.719   7.527   1.517  0.0783 -0.2667  0.2328
  173MOL    O9141715   6.570   7.651   1.388  0.2939 -0.2801  0.6854
  173MOL    H9241716   6.804   0.040   1.383 -0.6673  0.7945 -0.2823
  173MOL    H9341717   6.719   0.033   1.230 -0.2863 -0.1519  0.5671
  173MOL    H9441718   6.900   7.427   1.351 -0.6767 -0.7184 -0.5384
  173MOL    H9541719   6.976   7.578   1.406 -1.0054 -1.5368  0.8814
  173MOL    H9641720   6.997   7.534   1.239 -1.2924 -4.1950 -1.6042
  173MOL    H9741721   6.516   7.645   1.465  0.2798 -1.8441  0.5700
  173MOL    C9841722   6.720   7.569   1.157 -0.1709  0.0268  0.4047
  173MOL    C9941723   6.683   7.423   1.102  0.5888  0.0557 -0.1409
  173MOL   C10041724   6.812   7.358   1.047 -0.8884 -0.0790 -0.3202
  173MOL   C10141725   6.631   7.333   1.218  0.0724  0.1833  0.5073
  173MOL   O10241726   6.673   7.224   1.246 -0.4522 -0.5831 -0.4569
  173MOL   O10341727   6.517   7.387   1.270 -0.7382  0.0518 -0.1846
  173MOL   H10441728   6.619   7.608   1.171  0.0891  0.3981  1.2808
  173MOL   H10541729   6.771   7.629   1.082 -1.5770  0.1789 -0.4418
  173MOL   H10641730   6.862   7.435   0.988  0.2821  0.0516  0.8348
  173MOL   H10741731   6.794   7.277   0.976  0.3553 -0.4985 -0.1791
  173MOL   H10841732   6.871   7.341   1.137 -2.2986  1.5388  0.9315
  173MOL   H10941733   6.478   7.327   1.332  2.1898 -0.1367  1.5533
  173MOL   C11041734   6.569   7.461   0.989  0.4977 -0.1000 -0.1585
  173MOL   C11141735   6.536   7.354   0.869  0.8063 -0.0442 -0.2822
  173MOL   C11241736   6.635   7.372   0.753 -0.1401 -0.1461  0.0085
  173MOL   C11341737   6.540   7.214   0.934 -0.2738 -0.8469 -0.4990
  173MOL   O11441738   6.619   7.128   0.890  0.0094 -0.4849 -0.4156
  173MOL   O11541739   6.455   7.195   1.040  0.1053 -0.1514 -0.2100
  173MOL   H11641740   6.475   7.483   1.040  0.2877  0.1387 -0.6359
  173MOL   H11741741   6.593   7.554   0.937 -1.1116  1.0336  1.0727
  173MOL   H11841742   6.740   7.362   0.780 -0.0849 -0.4442 -0.3092
  173MOL   H11941743   6.630   7.470   0.705  1.2236 -0.4748 -0.8282
  173MOL   H12041744   6.628   7.305   0.667 -0.3792  1.1076 -0.9665
  173MOL   H12141745   6.471   7.106   1.067  0.6513 -0.6965 -2.2437
  173MOL   C12241746   6.386   7.392   0.820 -0.1570 -0.2454  0.2591
  173MOL   C12341747   6.293   7.314   0.713  0.3852 -0.3699 -0.4056
  173MOL   C12441748   6.336   7.364   0.576  0.6597 -0.2240 -0.2496
  173MOL   C12541749   6.304   7.159   0.724  0.0268 -0.1213  0.1258
  173MOL   O12641750   6.252   7.083   0.814  0.1044 -0.3739 -0.3536
  173MOL   O12741751   6.378   7.105   0.619  0.5261 -0.7491 -0.0096
  173MOL   H12841752   6.325   7.396   0.910  0.8575  1.6228  0.9114
  173MOL   H12941753   6.381   7.500   0.802 -1.5139 -0.5447 -1.2301
  173MOL   H13041754   6.442   7.352   0.553  1.1809  3.9225 -0.3806
  173MOL   H13141755   6.308   7.468   0.559  0.1802 -0.0323  1.5690
  173MOL   H13241756   6.282   7.313   0.496  1.0965  0.0968 -0.7499
  173MOL   H13341757   6.377   7.012   0.634  1.3504 -0.6177  0.8850
  173MOL   C13441758   6.147   7.351   0.757 -0.2019 -0.3472  0.9899
  173MOL   C13541759   6.019   7.338   0.682 -0.0208  0.3996 -0.2248
  173MOL   C13641760   5.916   7.343   0.790  0.6493 -0.3368 -0.3889
  173MOL   C13741761   6.002   7.459   0.586  0.1828 -0.0636 -1.3423
  173MOL   O13841762   5.987   7.578   0.625  0.3525 -0.1234 -0.3619
  173MOL   O13941763   6.024   7.418   0.465  0.3059  0.0556  0.6056
  173MOL   H14041764   6.142   7.292   0.848  1.7412 -1.3983  0.4361
  173MOL   H14141765   6.156   7.457   0.779  1.3764  0.3872 -2.8663
  173MOL   H14241766   5.927   7.264   0.865  1.0206 -0.1053 -0.1951
  173MOL   H14341767   5.811   7.351   0.762  0.6942  2.6932  0.1255
  173MOL   H14441768   5.922   7.445   0.828 -2.7383  0.6930 -2.3773
  173MOL   H14541769   6.012   7.485   0.399 -0.8561 -0.7651 -0.0177
  173MOL   C14641770   5.997   7.196   0.607  0.2134 -0.6997  0.3628
  173MOL   C14741771   5.863   7.141   0.540 -0.1017  0.4109  0.0701
  173MOL   C14841772   5.752   7.116   0.652  0.0760 -0.3377 -0.7290
  173MOL   C14941773   5.811   7.229   0.426 -0.0147 -0.3795  0.0622
  173MOL   O15041774   5.856   7.228   0.310 -0.4420 -0.0437 -0.3340
  173MOL   O15141775   5.708   7.309   0.474  0.2363 -0.1739 -0.0850
  173MOL   H15241776   6.087   7.192   0.545 -0.4083  0.1629 -0.6077
  173MOL   H15341777   6.025   7.132   0.690  0.6572  1.2135  1.7018
  173MOL   H15441778   5.794   7.075   0.744 -2.0986 -0.5523  0.2027
  173MOL   H15541779   5.667   7.054   0.622 -0.6240 -0.6771  1.8521
  173MOL   H15641780   5.701   7.206   0.685  2.2707  0.9559 -0.8334
  173MOL   H15741781   5.684   7.274   0.558 -0.1220 -1.5596 -0.7403
  173MOL   C15841782   5.894   7.002   0.469 -0.0259  0.2389  0.0649
  173MOL   C15941783   5.909   6.859   0.536 -0.1666 -0.4096 -1.0355
  173MOL   C16041784   5.974   6.774   0.430 -0.2254 -0.1096  0.9606
  173MOL   C16141785   6.008   6.873   0.666 -0.1623  0.3312  0.1733
  173MOL   O16241786   5.963   6.881   0.779  0.1495 -0.1685  0.1238
  173MOL   O16341787   6.143   6.862   0.638  0.2654  0.0893 -0.1188
  173MOL   H16441788   5.811   6.980   0.402  1.0118 -0.4675 -1.0422
  173MOL   H16541789   5.985   7.020   0.410  0.8214 -1.2355  0.8696
  173MOL   H16641790   6.065   6.817   0.388 -1.0068 -1.5566 -2.3473
  173MOL   H16741791   5.893   6.771   0.357  0.9378  2.2033 -0.5069
  173MOL   H16841792   6.002   6.676   0.469 -0.3248 -2.1658 -3.8177
  173MOL   H16941793   6.191   6.893   0.713 -0.9339 -0.0324  0.6985
  173MOL   C17041794   5.775   6.802   0.585 -0.0353  0.7773  0.5962
  173MOL   C17141795   5.748   6.642   0.615 -0.0332  0.1015 -0.0425
  173MOL   C17241796   5.599   6.649   0.657 -0.8040 -0.6562 -0.1813
  173MOL   C17341797   5.762   6.557   0.480  0.4448 -0.0170 -0.0868
  173MOL   O17441798   5.835   6.464   0.463 -0.3401  0.7031  0.5750
  173MOL   O17541799   5.674   6.600   0.385 -0.1022  0.2992  0.9565
  173MOL   H17641800   5.746   6.849   0.679  2.2276 -0.0141  1.7367
  173MOL   H17741801   5.698   6.830   0.514 -1.2441  0.8414  1.9155
  173MOL   H17841802   5.539   6.723   0.603 -1.9763 -1.1986  0.3633
  173MOL   H17941803   5.593   6.662   0.765  3.7768 -0.1508  0.1083
  173MOL   H18041804   5.553   6.552   0.637  1.1303 -2.1589  2.3588
  173MOL   H18141805   5.685   6.557   0.301 -1.1655 -1.1452  1.5361
  173MOL   C18241806   5.834   6.586   0.735 -0.1747 -0.1287 -0.4302
  173MOL   C18341807   5.810   6.459   0.825  0.3396 -1.1917 -0.5776
  173MOL   C18441808   5.695   6.376   0.772 -0.9011 -0.5088 -1.1313
  173MOL   C18541809   5.944   6.386   0.829 -0.1758 -0.1808  0.2990
  173MOL   O18641810   5.962   6.287   0.759 -0.0259 -0.4313  0.0071
  173MOL   O18741811   6.047   6.441   0.899 -0.0850  1.0355 -0.8163
  173MOL   H18841812   5.936   6.577   0.699 -0.6843  1.7087 -2.4682
  173MOL   H18941813   5.843   6.661   0.813  2.0672  0.2538 -1.0283
  173MOL   H19041814   5.600   6.416   0.807  0.2525  1.5501 -0.2925
  173MOL   H19141815   5.704   6.269   0.793 -1.5031 -0.8320 -2.4594
  173MOL   H19241816   5.692   6.372   0.663 -3.3014 -0.1475 -1.0946
  173MOL   H19341817   6.126   6.402   0.864 -1.0954  0.5898 -2.6893
  173MOL   C19441818   5.780   6.506   0.974 -0.6570  0.2765  0.0232
  173MOL   C19541819   5.750   6.413   1.094  0.2593  0.5611 -0.5661
  173MOL   C19641820   5.752   6.512   1.215  0.4553  0.5754 -0.0728
  173MOL   C19741821   5.605   6.357   1.079 -0.6020  0.8292  0.0616
  173MOL   O19841822   5.583   6.236   1.062 -0.0169 -0.3367  0.5650
  173MOL   O19941823   5.508   6.447   1.081 -0.8204  0.0736  0.3075
  173MOL   H20041824   5.874   6.558   0.995 -0.4415 -0.0360 -0.1633
  173MOL   H20141825   5.702   6.582   0.973 -0.4492  0.5160  1.2048
  173MOL   H20241826   5.853   6.547   1.238  0.7592 -0.7476  0.6182
  173MOL   H20341827   5.710   6.466   1.304 -0.7700  0.2971 -0.7825
  173MOL   H20441828   5.687   6.598   1.199  0.6928  0.5759 -1.1277
  173MOL   H20541829   5.425   6.407   1.061  1.0698 -2.4686 -2.9579
  173MOL   C20641830   5.861   6.304   1.129 -0.4968 -0.2572  0.0557
  173MOL   C20741831   5.887   6.228   1.265  0.6443 -0.3533 -0.1621
  173MOL   C20841832   5.759   6.157   1.305 -0.6498 -0.0961 -0.7125
  173MOL   C20941833   6.002   6.121   1.233 -0.1477 -0.0656 -0.5674
  173MOL   O21041834   6.088   6.129   1.147 -0.2311 -0.0514  0.4201
  173MOL   O21141835   5.995   6.013   1.310  0.1155 -0.2727  0.0838
  173MOL   H21241836   5.862   6.230   1.048 -0.6642 -1.7008  1.3636
  173MOL   H21341837   5.951   6.361   1.112  1.9442 -3.2675  2.2946
  173MOL   H21441838   5.722   6.082   1.236 -0.7918 -1.5394  0.9010
  173MOL   H21541839   5.676   6.225   1.324  1.0150  1.5489  0.8129
  173MOL   H21641840   5.774   6.101   1.397  0.5848  0.1020 -0.7809
  173MOL   H21741841   6.067   5.956   1.291  1.3501  0.9775  0.9267
  173MOL   C21841842   5.943   6.331   1.377 -0.5632 -0.3854  0.1811
  173MOL   C21941843   5.992   6.288   1.520  0.7084  0.1669  0.2082
  173MOL   C22041844   5.878   6.221   1.600 -0.4404  0.1813  0.1998
  173MOL   C22141845   6.128   6.211   1.528  0.7356  0.8284 -0.3397
  173MOL   O22241846   6.207   6.214   1.430  0.7607 -0.2518 -0.3263
  173MOL   O22341847   6.154   6.149   1.653 -0.5974  0.7920 -0.1673
  173MOL   H22441848   6.020   6.390   1.328 -1.3210 -0.6132 -1.3142
  173MOL   H22541849   5.863   6.401   1.399  0.6228  1.0378  0.0543
  173MOL   H22641850   5.883   6.113   1.586  0.1839  0.3862 -1.2674
  173MOL   H22741851   5.777   6.252   1.573 -0.0540  0.0330 -1.5026
  173MOL   H22841852   5.898   6.230   1.706  1.5958 -0.2163 -0.1242
  173MOL   H22941853   6.226   6.090   1.638 -0.8997  0.9686 -2.4051
  173MOL   C23041854   6.023   6.428   1.598 -0.1110 -0.1160 -0.1785
  173MOL   C23141855   6.138   6.524   1.547 -0.3672 -0.0335 -0.3086
  173MOL   C23241856   6.072   6.633   1.463 -0.5045 -0.0675  0.0972
  173MOL   C23341857   6.223   6.587   1.656 -0.1484 -0.2789  0.3611
  173MOL   O23441858   6.343   6.596   1.643 -0.8033  0.2720  0.8923
  173MOL   O23541859   6.151   6.645   1.760 -0.5844  0.1295  0.7438
  173MOL   H23641860   5.934   6.489   1.603  0.1321  0.2387 -0.2045
  173MOL   H23741861   6.052   6.403   1.701  2.0993 -2.8484 -1.3855
  173MOL   H23841862   6.144   6.708   1.429  0.1395  0.0068  1.5935
  173MOL   H23941863   6.010   6.703   1.519  0.1952 -1.6772  2.9883
  173MOL   H24041864   6.012   6.593   1.381  1.8738 -0.3399 -1.5784
  173MOL   H24141865   6.205   6.686   1.826  0.3802 -0.9878  0.6678
  173MOL   H24241866   6.190   6.459   1.476 -0.7699  1.1276 -1.6809
  174MOL     C141867   6.876   1.141   1.473 -0.1477  0.2032  0.4063
  174MOL     C241868   6.722   1.148   1.478 -0.7931 -0.3329  0.3497
  174MOL     C341869   6.673   1.009   1.472 -0.6950  0.4011  0.1163
  174MOL     C441870   6.688   1.214   1.613  0.2264 -0.3706 -0.4413
  174MOL     O541871   6.763   1.251   1.697  0.2097 -0.0692 -0.2245
  174MOL     O641872   6.554   1.206   1.639 -0.2142  0.4979  0.0975
  174MOL     H741873   6.933   1.232   1.493  0.9335  0.2151 -2.4296
  174MOL     H841874   6.917   1.115   1.375  0.3941  2.5042 -0.0089
  174MOL     H941875   6.691   0.942   1.556  0.0090  0.0424 -0.3181
  174MOL    H1041876   6.718   0.957   1.387 -1.9937  0.8496 -0.8641
  174MOL    H1141877   6.565   0.997   1.456 -0.7249 -0.3209  0.8237
  174MOL    H1241878   6.532   1.235   1.727 -0.1898  0.1391  0.2225
  174MOL    H1341879   6.923   1.061   1.530 -0.8458 -0.8547 -0.4826
  174MOL    C1441880   6.672   1.241   1.356 -0.0534 -0.2421 -0.2290
  174MOL    C1541881   6.552   1.202   1.262 -0.5605  0.2467  0.5680
  174MOL    C1641882   6.553   1.318   1.156  0.0474 -0.5737  0.0356
  174MOL    C1741883   6.585   1.067   1.185  0.2964 -0.1409 -0.5229
  174MOL    O1841884   6.523   0.962   1.188 -0.0682  0.0199  0.3781
  174MOL    O1941885   6.707   1.076   1.119 -0.2164 -1.0663 -0.2872
  174MOL    H2041886   6.654   1.338   1.403  0.6307  0.6010 -1.6771
  174MOL    H2141887   6.758   1.262   1.294  0.4296  0.1261  0.5557
  174MOL    H2241888   6.485   1.317   1.072 -0.7929 -1.2720  0.7142
  174MOL    H2341889   6.653   1.318   1.112 -0.9011 -2.4596 -2.2266
  174MOL    H2441890   6.548   1.417   1.202 -0.6288  0.1234 -1.5106
  174MOL    H2541891   6.721   0.989   1.083  0.2175 -0.3457 -1.8910
  174MOL    C2641892   6.405   1.223   1.329  0.2847  0.3763  0.3185
  174MOL    C2741893   6.261   1.177   1.271  0.5767  0.6374 -0.5142
  174MOL    C2841894   6.254   1.215   1.120 -0.1495  0.8129 -1.1014
  174MOL    C2941895   6.240   1.024   1.280  0.0059  0.0115 -0.9716
  174MOL    O3041896   6.174   0.961   1.198 -0.4660  0.0918  0.2074
  174MOL    O3141897   6.284   0.971   1.403  0.1362 -0.2360  0.1164
  174MOL    H3241898   6.413   1.181   1.429  1.9808  0.0443  0.0487
  174MOL    H3341899   6.398   1.330   1.348 -3.3383  0.2947 -0.0420
  174MOL    H3441900   6.161   1.189   1.069 -0.0867 -0.2732 -0.6829
  174MOL    H3541901   6.332   1.164   1.064 -0.0643  1.1497 -1.2925
  174MOL    H3641902   6.279   1.321   1.107  0.9580  1.0913  2.7453
  174MOL    H3741903   6.244   0.885   1.406 -0.9330  0.2781  1.8716
  174MOL    C3841904   6.141   1.260   1.325 -0.0895  0.2362  0.3489
  174MOL    C3941905   6.077   1.235   1.466  0.2490  0.2485  0.0815
  174MOL    C4041906   5.999   1.100   1.477 -0.1213 -0.7255 -0.0970
  174MOL    C4141907   6.191   1.244   1.575  0.0326  0.2184  1.0035
  174MOL    O4241908   6.214   1.151   1.646  0.5447 -0.5994 -0.0812
  174MOL    O4341909   6.255   1.365   1.568 -0.4475 -0.0198  0.1812
  174MOL    H4441910   6.167   1.365   1.315 -0.6235  0.4374  1.0388
  174MOL    H4541911   6.052   1.240   1.266 -0.6160 -1.5670  1.7008
  174MOL    H4641912   6.064   1.013   1.482  0.0551 -0.4911  1.8808
  174MOL    H4741913   5.935   1.086   1.390 -1.9253 -1.6669  1.3554
  174MOL    H4841914   5.953   1.093   1.576 -0.4360  1.1817 -0.0805
  174MOL    H4941915   6.217   1.430   1.511  0.3503 -0.0015 -0.3454
  174MOL    C5041916   5.970   1.356   1.476  0.6070  0.6884  0.0642
  174MOL    C5141917   5.851   1.364   1.579  0.0987  0.3796 -0.3918
  174MOL    C5241918   5.745   1.266   1.516 -0.0212 -0.6722  0.2039
  174MOL    C5341919   5.903   1.320   1.715  0.1305  0.1367 -0.1219
  174MOL    O5441920   6.003   1.364   1.776  0.1752  0.0524 -0.2619
  174MOL    O5541921   5.821   1.226   1.769  0.2839  0.8719  0.2996
  174MOL    H5641922   6.029   1.444   1.504 -0.2143  0.9812  0.9023
  174MOL    H5741923   5.924   1.370   1.378  0.6579  0.0167 -0.0559
  174MOL    H5841924   5.773   1.162   1.535  1.9748 -0.1816  0.0264
  174MOL    H5941925   5.744   1.272   1.407 -0.3528  1.7851  0.3135
  174MOL    H6041926   5.646   1.278   1.560 -0.3138 -0.8812 -0.3838
  174MOL    H6141927   5.872   1.185   1.837 -0.1649 -0.2449 -0.0255
  174MOL    C6241928   5.800   1.514   1.567 -0.7904  0.1941  0.5361
  174MOL    C6341929   5.746   1.594   1.694  0.6293  0.2744 -0.6393
  174MOL    C6441930   5.653   1.503   1.784  0.8249  0.0136  0.8980
  174MOL    C6541931   5.865   1.640   1.778 -0.3077  0.0229 -0.0037
  174MOL    O6641932   5.982   1.654   1.733 -0.0496 -0.3852  0.3527
  174MOL    O6741933   5.827   1.684   1.904 -0.2308  0.1149 -0.3154
  174MOL    H6841934   5.862   1.581   1.508 -0.0073  2.0943  3.4721
  174MOL    H6941935   5.714   1.517   1.499  0.7961 -1.7976 -1.6051
  174MOL    H7041936   5.699   1.463   1.875 -1.3862  0.8383  2.4333
  174MOL    H7141937   5.611   1.417   1.733 -1.5011  1.2810  0.6308
  174MOL    H7241938   5.568   1.558   1.824 -0.3934  0.7645 -2.5740
  174MOL    H7341939   5.894   1.722   1.958 -1.5355  1.0127  0.7133
  174MOL    C7441940   5.665   1.720   1.650  0.5573 -0.0536 -0.0281
  174MOL    C7541941   5.707   1.854   1.572 -0.9885 -0.1325 -0.1741
  174MOL    C7641942   5.584   1.941   1.545 -0.0100  0.5145  0.3280
  174MOL    C7741943   5.808   1.942   1.662 -0.1280  0.3948  0.3887
  174MOL    O7841944   5.920   1.966   1.628 -0.3185  0.2907  0.0323
  174MOL    O7941945   5.748   1.980   1.785 -0.4052 -0.6187  0.3184
  174MOL    H8041946   5.588   1.683   1.583 -0.1410  2.0414 -0.4222
  174MOL    H8141947   5.611   1.755   1.738  0.9276 -0.3177  0.3069
  174MOL    H8241948   5.590   2.043   1.507 -3.3433  1.3030  1.7041
  174MOL    H8341949   5.513   1.943   1.628 -1.7508 -0.8302 -1.0870
  174MOL    H8441950   5.522   1.894   1.469 -1.4876  2.9777 -0.0500
  174MOL    H8541951   5.809   2.033   1.835 -0.7332 -0.5714  0.6677
  174MOL    C8641952   5.781   1.822   1.438 -0.1710  0.0580  0.2349
  174MOL    C8741953   5.782   1.917   1.305  0.1943 -0.3642  0.4304
  174MOL    C8841954   5.825   2.062   1.340  0.7543 -0.0020  0.3031
  174MOL    C8941955   5.900   1.868   1.211  0.1889  0.3734 -0.0811
  174MOL    O9041956   5.966   1.767   1.229  0.1419 -0.0102 -0.3248
  174MOL    O9141957   5.925   1.958   1.107  0.2189 -0.0189  0.3291
  174MOL    H9241958   5.883   1.799   1.466 -0.3035 -1.9455 -0.8332
  174MOL    H9341959   5.757   1.722   1.401 -0.9852  0.6126 -0.7563
  174MOL    H9441960   5.921   2.058   1.393  1.5513  0.7388 -1.0440
  174MOL    H9541961   5.752   2.124   1.392 -1.0181  0.3277 -2.5021
  174MOL    H9641962   5.838   2.120   1.249 -1.3682  0.5326  0.3261
  174MOL    H9741963   5.993   1.927   1.050  0.7831  2.5468 -0.4682
  174MOL    C9841964   5.650   1.919   1.220  0.5219  0.6922 -0.4097
  174MOL    C9941965   5.576   1.790   1.164 -0.3239 -0.2425  0.3068
  174MOL   C10041966   5.669   1.674   1.114 -0.0771  1.1725  0.0521
  174MOL   C10141967   5.472   1.724   1.263 -0.0378 -1.0469 -0.3359
  174MOL   O10241968   5.357   1.766   1.293 -0.0179  0.9016  0.1913
  174MOL   O10341969   5.520   1.607   1.319 -0.0113  0.3328 -0.2898
  174MOL   H10441970   5.579   1.976   1.279  0.0602  0.0322 -0.3165
  174MOL   H10541971   5.666   1.989   1.139 -0.9287  1.1982 -0.2755
  174MOL   H10641972   5.607   1.595   1.070 -0.7858  0.6364  1.9715
  174MOL   H10741973   5.715   1.623   1.200 -0.0293  0.7299 -0.2307
  174MOL   H10841974   5.751   1.694   1.045  1.1777 -1.1119  0.7985
  174MOL   H10941975   5.445   1.572   1.364  1.0981 -0.4242  1.0109
  174MOL   C11041976   5.480   1.838   1.041 -0.1859  0.1150  0.4696
  174MOL   C11141977   5.516   1.854   0.896  0.5192 -0.8445  0.4331
  174MOL   C11241978   5.405   1.949   0.838 -0.0085 -0.7624  0.2255
  174MOL   C11341979   5.652   1.929   0.879 -0.8458 -0.4370  0.2215
  174MOL   O11441980   5.758   1.868   0.868  0.0799  0.1096  0.2157
  174MOL   O11541981   5.651   2.067   0.888  0.7656  0.6341 -0.2919
  174MOL   H11641982   5.387   1.781   1.037  0.1405 -0.4440  0.9412
  174MOL   H11741983   5.452   1.941   1.064 -1.2615  0.3389 -1.7323
  174MOL   H11841984   5.308   1.904   0.858 -1.3668  1.7806 -0.4460
  174MOL   H11941985   5.417   1.978   0.734  1.8716  0.5093  0.7553
  174MOL   H12041986   5.401   2.042   0.896 -0.6046 -1.5800  1.5302
  174MOL   H12141987   5.737   2.106   0.875  0.9123  1.0626  1.8644
  174MOL   C12241988   5.540   1.725   0.810  0.2837  0.1120 -0.5852
  174MOL   C12341989   5.425   1.627   0.753 -0.0433  0.0735 -0.3515
  174MOL   C12441990   5.327   1.574   0.862 -0.1291 -0.3648 -0.0144
  174MOL   C12541991   5.335   1.704   0.647  0.0658  0.0284  0.5205
  174MOL   O12641992   5.217   1.705   0.645  0.3017  0.5635 -0.4900
  174MOL   O12741993   5.416   1.776   0.561 -0.3985  0.1249  0.4127
  174MOL   H12841994   5.589   1.749   0.716  2.1482 -0.3640  0.2622
  174MOL   H12941995   5.613   1.667   0.867 -0.5300  0.2729  0.6476
  174MOL   H13041996   5.370   1.523   0.948  0.4582  1.7190  0.9456
  174MOL   H13141997   5.251   1.507   0.822  1.3543 -2.1149  0.0654
  174MOL   H13241998   5.276   1.655   0.913 -1.2049 -0.5515 -0.7740
  174MOL   H13341999   5.370   1.830   0.500 -0.6792  0.9905  1.3777
  174MOL   C13442000   5.482   1.511   0.666 -0.3285 -0.5037  0.3713
  174MOL   C13542001   5.546   1.380   0.722  0.4302 -0.2185  0.3335
  174MOL   C13642002   5.433   1.282   0.765 -0.3388 -0.6350  0.4439
  174MOL   C13742003   5.619   1.317   0.605 -0.1490 -0.0434 -0.0723
  174MOL   O13842004   5.570   1.224   0.542  0.7432  0.1124 -0.6751
  174MOL   O13942005   5.731   1.381   0.566 -0.5720 -1.1339 -0.0590
  174MOL   H14042006   5.412   1.475   0.590 -0.6802 -2.4879  1.5863
  174MOL   H14142007   5.552   1.561   0.599  0.4606 -1.1193  0.7290
  174MOL   H14242008   5.362   1.277   0.682  2.0929  0.0366 -1.7084
  174MOL   H14342009   5.383   1.308   0.858  0.6963  2.4186  0.2099
  174MOL   H14442010   5.467   1.180   0.779 -1.3368 -0.9349  0.7811
  174MOL   H14542011   5.758   1.447   0.628  1.3436 -1.5782 -0.3807
  174MOL   C14642012   5.644   1.398   0.848  0.7559  0.3470 -0.6411
  174MOL   C14742013   5.706   1.276   0.939  0.4449  0.1376  0.8443
  174MOL   C14842014   5.833   1.338   0.994 -0.5120  0.0019  0.1560
  174MOL   C14942015   5.617   1.258   1.058  0.1882  0.0825  0.5825
  174MOL   O15042016   5.513   1.317   1.076 -0.1111 -0.9370  0.3054
  174MOL   O15142017   5.678   1.178   1.152  0.3225  0.0576 -0.1213
  174MOL   H15242018   5.717   1.469   0.809 -1.8403  2.9099 -0.9743
  174MOL   H15342019   5.592   1.466   0.915  2.8983 -0.4015  1.8480
  174MOL   H15442020   5.897   1.269   1.048  1.0937  1.7423  0.5403
  174MOL   H15542021   5.822   1.433   1.047  3.0252 -0.5442  1.9888
  174MOL   H15642022   5.904   1.366   0.916 -1.3783 -2.3570 -1.5387
  174MOL   H15742023   5.764   1.152   1.123 -0.3984 -0.2497 -2.0281
  174MOL   C15842024   5.726   1.138   0.860  0.1867 -0.1027 -0.0117
  174MOL   C15942025   5.859   1.055   0.850  0.3676  0.7932 -0.5066
  174MOL   C16042026   5.959   1.139   0.762 -0.2201 -0.2709  0.3753
  174MOL   C16142027   5.929   1.017   0.980 -0.0779  0.3337  0.4197
  174MOL   O16242028   5.883   1.047   1.093 -0.3174 -0.6277  0.8292
  174MOL   O16342029   6.048   0.949   0.968  0.0646  0.5603 -0.2766
  174MOL   H16442030   5.651   1.075   0.909 -1.3392  2.7553  1.4728
  174MOL   H16542031   5.694   1.148   0.756  1.6229  1.4150 -0.3146
  174MOL   H16642032   6.047   1.085   0.725  0.4836 -0.6052  2.4541
  174MOL   H16742033   6.007   1.222   0.814 -0.0355  1.3129 -2.2124
  174MOL   H16842034   5.914   1.174   0.669 -1.9884 -1.1837  0.8642
  174MOL   H16942035   6.086   0.936   1.054  1.1014 -3.0287 -1.1978
  174MOL   C17042036   5.832   0.917   0.759 -0.2236 -0.1531 -0.5564
  174MOL   C17142037   5.722   0.806   0.783 -0.6369  0.1471  0.4514
  174MOL   C17242038   5.758   0.683   0.690 -0.4690 -0.0956 -0.2623
  174MOL   C17342039   5.725   0.759   0.927  0.4338  0.0266  0.5788
  174MOL   O17442040   5.770   0.656   0.960 -0.1922 -0.3419  0.6229
  174MOL   O17542041   5.680   0.855   1.007  0.2082  0.6169  0.6350
  174MOL   H17642042   5.800   0.955   0.662  2.1310 -0.7483 -1.6008
  174MOL   H17742043   5.928   0.866   0.757  1.1882  2.2558  1.6327
  174MOL   H17842044   5.704   0.590   0.706  0.7328 -0.4114  2.3265
  174MOL   H17942045   5.862   0.652   0.706  0.1250  3.0889  2.9153
  174MOL   H18042046   5.745   0.724   0.590  2.6423  1.1188 -0.2319
  174MOL   H18142047   5.692   0.816   1.092  0.8469 -1.8582 -0.5467
  174MOL   C18242048   5.581   0.869   0.732  0.4243  0.0530  0.1113
  174MOL   C18342049   5.441   0.795   0.750  0.1171  0.5128  0.2783
  174MOL   C18442050   5.461   0.634   0.727  0.2703  0.2715  0.5087
  174MOL   C18542051   5.390   0.815   0.894  0.4020  0.4520 -0.0191
  174MOL   O18642052   5.354   0.726   0.972 -0.1795 -0.3177  0.2620
  174MOL   O18742053   5.383   0.950   0.929  0.0927  0.1081 -0.2460
  174MOL   H18842054   5.578   0.974   0.760 -1.2770 -0.1851  0.8276
  174MOL   H18942055   5.591   0.884   0.625 -2.2123  0.1690 -0.1426
  174MOL   H19042056   5.530   0.593   0.801 -0.4286  1.5256  1.9009
  174MOL   H19142057   5.501   0.620   0.627  2.0864 -0.2495  1.2971
  174MOL   H19242058   5.370   0.577   0.745  0.6244 -0.4883 -0.1037
  174MOL   H19342059   5.350   0.957   1.017  1.5327 -1.5365  0.4643
  174MOL   C19442060   5.353   0.857   0.636 -0.4265 -0.3335 -0.2976
  174MOL   C19542061   5.197   0.849   0.619 -0.5720  0.4809 -0.9034
  174MOL   C19642062   5.144   0.717   0.683  0.2269  0.8150 -0.1353
  174MOL   C19742063   5.127   0.966   0.690  0.8641  0.0294  0.0868
  174MOL   O19842064   5.183   1.071   0.720 -0.1047  0.6791  0.0780
  174MOL   O19942065   4.990   0.943   0.700  0.2202 -0.2773  0.5150
  174MOL   H20042066   5.374   0.963   0.651 -0.2997 -0.2586 -0.9531
  174MOL   H20142067   5.397   0.836   0.538 -0.5446  0.0569 -0.4384
  174MOL   H20242068   5.133   0.719   0.791 -1.4148 -2.3702 -0.2027
  174MOL   H20342069   5.193   0.623   0.660 -0.8422  0.0267  0.7618
  174MOL   H20442070   5.040   0.700   0.654 -0.1386 -0.4817  1.9101
  174MOL   H20542071   4.937   1.010   0.740  0.8524 -1.1323  2.8916
  174MOL   C20642072   5.162   0.853   0.462  0.2217 -0.3547 -0.3730
  174MOL   C20742073   5.166   0.988   0.372  0.4646  0.3507  0.0030
  174MOL   C20842074   5.048   1.085   0.409 -0.3292 -0.0033  0.6292
  174MOL   C20942075   5.304   1.055   0.383 -1.1793  0.9318 -0.0675
  174MOL   O21042076   5.406   0.999   0.338 -0.0214 -0.1923 -0.5784
  174MOL   O21142077   5.318   1.159   0.465  0.2688  0.6038  1.1341
  174MOL   H21242078   5.227   0.780   0.414  1.7745  0.0662  1.0405
  174MOL   H21342079   5.063   0.816   0.435  0.8074 -0.4306 -2.4283
  174MOL   H21442080   5.062   1.162   0.485 -0.2322 -0.1913  0.7982
  174MOL   H21542081   4.954   1.033   0.431 -0.8501  0.7108  0.1354
  174MOL   H21642082   5.025   1.149   0.323  0.9196  0.6904  0.8000
  174MOL   H21742083   5.408   1.183   0.479  0.0888  0.8528  1.9018
  174MOL   C21842084   5.154   0.942   0.222  0.4802  0.4745 -0.1791
  174MOL   C21942085   5.171   1.033   0.094  0.2808  0.1605 -0.9370
  174MOL   C22042086   5.239   0.940   7.760  0.1560 -0.7811  0.0800
  174MOL   C22142087   5.034   1.064   0.033 -0.0493  0.0312  0.1808
  174MOL   O22242088   4.982   1.001   7.704  0.1642  0.0387  0.4138
  174MOL   O22342089   4.963   1.158   0.102  0.6362 -0.3550 -0.2199
  174MOL   H22442090   5.231   0.865   0.221 -0.3410 -0.3499 -1.4670
  174MOL   H22542091   5.063   0.883   0.208  1.5244 -0.5067 -3.2105
  174MOL   H22642092   5.206   0.836   7.762 -1.6802 -0.2126  1.0619
  174MOL   H22742093   5.347   0.940   0.002  0.4946 -0.2280 -3.3297
  174MOL   H22842094   5.225   0.957   7.653  0.5487 -0.4257  0.0853
  174MOL   H22942095   4.876   1.168   0.065  0.9067  3.5760 -0.0817
  174MOL   C23042096   5.249   1.172   0.106  0.0432 -0.7430 -0.3724
  174MOL   C23142097   5.270   1.273   7.756  0.7865 -0.0261  0.3412
  174MOL   C23242098   5.198   1.404   0.008 -0.0087  0.2263 -0.6214
  174MOL   C23342099   5.419   1.291   7.714  0.1348  0.1073  0.0398
  174MOL   O23442100   5.502   1.346   0.015  0.2680 -0.2207 -0.2956
  174MOL   O23542101   5.457   1.230   7.602 -0.0296  0.0516  0.2224
  174MOL   H23642102   5.213   1.224   0.195 -2.0687 -1.1141 -0.9771
  174MOL   H23742103   5.347   1.136   0.135 -0.6392 -2.5703 -0.2625
  174MOL   H23842104   5.094   1.391   0.038  0.4134  0.4644  1.0321
  174MOL   H23942105   5.192   1.457   7.680  1.2523 -0.3523 -1.0417
  174MOL   H24042106   5.229   1.472   0.088 -0.2468 -0.2817 -0.0913
  174MOL   H24142107   5.549   1.210   7.608 -0.1901 -0.1891  1.8814
  174MOL   H24242108   5.226   1.230   7.666  0.9640 -0.0439  0.2634
  175MOL     C142109   5.604   7.526   0.714  0.4765 -0.1552 -0.7330
  175MOL     C242110   5.517   7.661   0.738 -0.4165  0.5008  0.2290
  175MOL     C342111   5.458   7.697   0.601 -0.2636 -0.0434  0.3586
  175MOL     C442112   5.415   7.647   0.847 -0.6473 -0.4756  0.2606
  175MOL     O542113   5.315   7.717   0.869  0.1817 -0.2724  0.5109
  175MOL     O642114   5.430   7.537   0.928 -0.0126  0.5513 -0.0387
  175MOL     H742115   5.688   7.563   0.654  1.2093  0.1154  0.4348
  175MOL     H842116   5.550   7.445   0.665  2.8334 -2.8862  0.9987
  175MOL     H942117   5.529   7.743   0.532 -0.7566  0.9063  0.4773
  175MOL    H1042118   5.378   0.003   0.611 -0.1220  0.2644 -0.7404
  175MOL    H1142119   5.415   7.613   0.547 -0.4281  1.4617 -1.9032
  175MOL    H1242120   5.353   7.524   0.981 -0.3692  1.3482 -0.3614
  175MOL    H1342121   5.653   7.492   0.805 -1.0287  0.6431  0.3808
  175MOL    C1442122   5.617   0.010   0.792  0.2826  0.3586  0.4967
  175MOL    C1542123   5.585   0.158   0.828 -0.3429 -0.0354 -0.0370
  175MOL    C1642124   5.475   0.217   0.742  0.0533 -0.0922 -0.6689
  175MOL    C1742125   5.539   0.179   0.974  0.0020  0.0243 -0.3557
  175MOL    O1842126   5.512   0.090   1.058 -0.5728 -0.5320  0.3104
  175MOL    O1942127   5.526   0.308   1.001 -0.3689 -0.0969  0.8941
  175MOL    H2042128   5.669   7.745   0.883 -1.7659  0.5208  1.7675
  175MOL    H2142129   5.680   0.011   0.703 -1.4171  1.0685 -0.7201
  175MOL    H2242130   5.452   0.321   0.765  3.6656  0.9579 -1.4084
  175MOL    H2342131   5.380   0.164   0.748 -1.6701  2.8870 -0.5701
  175MOL    H2442132   5.504   0.214   0.637 -0.1546 -1.6390 -0.6833
  175MOL    H2542133   5.479   0.310   1.083 -0.9528  0.0952  0.5531
  175MOL    C2642134   5.712   0.241   0.794 -0.7386  0.0314 -0.1175
  175MOL    C2742135   5.857   0.220   0.871 -0.4931  0.4689  0.6721
  175MOL    C2842136   5.836   0.203   1.024 -0.2441  0.2299  0.3003
  175MOL    C2942137   5.924   0.088   0.812  0.0043  0.5239 -0.4385
  175MOL    O3042138   5.958   7.755   0.879 -0.3539 -0.3709  0.3866
  175MOL    O3142139   5.939   0.091   0.678 -0.0418  0.3179 -0.2422
  175MOL    H3242140   5.726   0.227   0.687  1.1509  2.4272 -0.2223
  175MOL    H3342141   5.687   0.347   0.805  0.6296  0.4444 -0.9343
  175MOL    H3442142   5.798   0.294   1.071  2.5500  1.0071  1.1696
  175MOL    H3542143   5.928   0.177   1.076  0.1261  0.6183 -0.1601
  175MOL    H3642144   5.768   0.125   1.058  1.1413  0.2277  3.2435
  175MOL    H3742145   5.974   0.007   0.653  0.0974 -0.0474  1.1439
  175MOL    C3842146   5.940   0.361   0.850 -0.1970 -0.4618 -0.6478
  175MOL    C3942147   6.097   0.374   0.852 -0.3584  0.4972  0.3475
  175MOL    C4042148   6.161   0.308   0.973  0.4435  0.2522 -0.1540
  175MOL    C4142149   6.150   0.312   0.718  0.4245 -0.2132  0.1360
  175MOL    O4242150   6.255   0.248   0.720  0.3090  0.0785  0.0227
  175MOL    O4342151   6.072   0.346   0.605  0.1053  0.6001 -0.2066
  175MOL    H4442152   5.900   0.410   0.762 -1.8326  1.2600  1.0103
  175MOL    H4542153   5.895   0.426   0.925 -0.2463  0.4070 -1.4256
  175MOL    H4642154   6.127   0.204   0.975 -2.9495  1.3025  1.6960
  175MOL    H4742155   6.138   0.354   1.069  1.4095  0.1845  0.1114
  175MOL    H4842156   6.270   0.302   0.973  0.4327  0.0671 -0.5641
  175MOL    H4942157   6.114   0.305   0.530  0.1947 -2.2079  1.2965
  175MOL    C5042158   6.120   0.530   0.849 -0.2140 -0.1570  0.3831
  175MOL    C5142159   6.259   0.603   0.867 -0.2072  0.5066  0.4661
  175MOL    C5242160   6.273   0.640   1.024  0.6578  0.0263 -0.6153
  175MOL    C5342161   6.382   0.517   0.831  0.3674 -0.4980 -0.0783
  175MOL    O5442162   6.467   0.480   0.913  0.2017  0.2812  0.2414
  175MOL    O5542163   6.395   0.497   0.698 -0.3003  0.0053  0.0478
  175MOL    H5642164   6.081   0.563   0.753 -0.0368  1.2964  0.8024
  175MOL    H5742165   6.064   0.575   0.931  1.8097  1.1401  1.0882
  175MOL    H5842166   6.196   0.709   1.059  1.9472  1.2485 -0.1703
  175MOL    H5942167   6.366   0.686   1.057  0.5446 -2.3409  3.2786
  175MOL    H6042168   6.254   0.554   1.088  0.7928  0.3899 -0.0886
  175MOL    H6142169   6.469   0.443   0.674  0.1395  1.5459 -2.2943
  175MOL    C6242170   6.253   0.733   0.780 -0.2752 -0.7724  0.3653
  175MOL    C6342171   6.371   0.834   0.751  0.2477  0.6993  0.1400
  175MOL    C6442172   6.315   0.957   0.689  0.2306 -0.1624  0.1350
  175MOL    C6542173   6.440   0.872   0.883  0.2996 -0.8534 -0.2579
  175MOL    O6642174   6.551   0.828   0.926 -0.3900  0.1443  0.1352
  175MOL    O6742175   6.359   0.944   0.956 -0.0625  0.1960 -0.4673
  175MOL    H6842176   6.205   0.711   0.685  1.7318 -0.9836 -0.6408
  175MOL    H6942177   6.177   0.799   0.821 -1.6206 -1.6747 -0.6472
  175MOL    H7042178   6.392   1.034   0.693 -1.4968  1.5611  0.8918
  175MOL    H7142179   6.234   0.999   0.749  1.7286 -0.1353  2.2153
  175MOL    H7242180   6.283   0.934   0.587 -0.6059 -0.9464  0.5707
  175MOL    H7342181   6.399   0.955   1.041  0.1485 -0.1728 -0.5179
  175MOL    C7442182   6.471   0.767   0.650  0.1094 -0.2379  0.1531
  175MOL    C7542183   6.593   0.842   0.576 -0.3153  0.0234 -0.2663
  175MOL    C7642184   6.667   0.949   0.653 -0.2590 -0.4421 -0.4785
  175MOL    C7742185   6.682   0.725   0.549 -0.0389 -0.2196 -0.9914
  175MOL    O7842186   6.673   0.648   0.455 -0.1016 -0.0313 -0.0438
  175MOL    O7942187   6.761   0.698   0.657 -0.0072  0.0253  0.0007
  175MOL    H8042188   6.514   0.686   0.708  2.7673  0.0328 -1.3534
  175MOL    H8142189   6.419   0.720   0.566  0.0393  0.0706  0.0248
  175MOL    H8242190   6.746   0.995   0.593 -0.2537  1.2606  0.7972
  175MOL    H8342191   6.703   0.916   0.750  0.6516  0.0136 -0.6576
  175MOL    H8442192   6.606   1.038   0.672 -1.7021 -1.3447 -0.8292
  175MOL    H8542193   6.815   0.622   0.641  0.4516  0.9700 -3.3015
  175MOL    C8642194   6.541   0.897   0.430  0.1335  0.8116 -0.3263
  175MOL    C8742195   6.632   0.973   0.328 -0.2123 -0.5524 -0.3089
  175MOL    C8842196   6.628   1.127   0.370  0.0586  0.7445 -0.1223
  175MOL    C8942197   6.790   0.935   0.331 -0.4490  0.5496  0.1859
  175MOL    O9042198   6.884   1.012   0.367 -0.2038  0.3066 -0.7513
  175MOL    O9142199   6.815   0.811   0.266  0.6459 -0.8862  0.5441
  175MOL    H9242200   6.488   0.817   0.379 -0.6507  1.5540 -0.6970
  175MOL    H9342201   6.457   0.963   0.453 -0.8689 -0.0038 -1.5756
  175MOL    H9442202   6.637   1.154   0.475  1.8733  1.9405 -0.5498
  175MOL    H9542203   6.529   1.150   0.332 -0.4181 -0.6586  0.2476
  175MOL    H9642204   6.694   1.194   0.314 -0.0645 -0.7104 -2.0810
  175MOL    H9742205   6.748   0.746   0.280 -0.2627 -0.5855 -2.2559
  175MOL    C9842206   6.577   0.944   0.176  0.0970 -0.1525 -0.8287
  175MOL    C9942207   6.591   1.042   0.052  0.5596 -0.3777  0.7433
  175MOL   C10042208   6.527   0.971   7.703 -0.0147 -0.0439 -0.3315
  175MOL   C10142209   6.511   1.177   0.078 -0.7736 -0.3680 -0.0966
  175MOL   O10242210   6.561   1.286   0.107 -0.5069 -0.1845 -0.3492
  175MOL   O10342211   6.377   1.169   0.052 -0.8246  0.8385  0.6570
  175MOL   H10442212   6.599   0.843   0.142 -1.1045 -0.6377 -0.1963
  175MOL   H10542213   6.469   0.934   0.181  0.3062 -1.8128  0.8327
  175MOL   H10642214   6.510   1.035   7.617  2.1928  0.2371 -0.5742
  175MOL   H10742215   6.434   0.919   7.725  1.2699 -2.2847 -0.0846
  175MOL   H10842216   6.590   0.891   7.665 -0.4205 -1.0312  1.0146
  175MOL   H10942217   6.332   1.249   0.075  1.0287  2.1020  0.0459
  175MOL   C11042218   6.744   1.072   0.022 -0.5860  0.3866 -0.4410
  175MOL   C11142219   6.798   1.125   7.648  0.0688  0.1109 -0.1642
  175MOL   C11242220   6.837   0.995   7.561  0.0679  0.6897  0.0603
  175MOL   C11342221   6.705   1.220   7.571  0.1692 -0.4349  0.2685
  175MOL   O11442222   6.635   1.193   7.473 -0.1411  0.2244 -0.1464
  175MOL   O11542223   6.694   1.341   7.629  0.4078  0.6597  0.2785
  175MOL   H11642224   6.778   1.134   0.104  0.6983 -0.5673 -0.2519
  175MOL   H11742225   6.796   0.978   0.039  0.0028  1.1115  1.9776
  175MOL   H11842226   6.902   0.931   7.620  0.5549 -0.4149 -1.6364
  175MOL   H11942227   6.890   1.028   7.471  0.0157 -0.4859 -0.4071
  175MOL   H12042228   6.749   0.957   7.510  0.0473  0.6408  0.1314
  175MOL   H12142229   6.747   1.348   7.707  1.6557  0.7568 -0.5617
  175MOL   C12242230   6.931   1.207   7.681 -0.6443 -0.0138 -0.4719
  175MOL   C12342231   7.070   1.149   7.714 -0.2135 -0.7603  0.0292
  175MOL   C12442232   7.151   1.273   7.758  0.3499 -0.5266  0.1759
  175MOL   C12542233   7.054   1.059   0.071 -0.8359 -0.2131  0.2030
  175MOL   O12642234   7.051   0.935   0.069 -0.5611  0.6485  0.1407
  175MOL   O12742235   7.036   1.126   0.184  0.0030  0.6091  0.0662
  175MOL   H12842236   6.954   1.259   7.587  1.6353 -2.0872 -1.1118
  175MOL   H12942237   6.902   1.282   7.754  0.5424  0.0937 -0.1103
  175MOL   H13042238   7.228   1.243   0.061 -1.0062 -1.7964  1.1606
  175MOL   H13142239   7.097   1.354   0.039 -0.6634 -0.8673 -0.3661
  175MOL   H13242240   7.188   1.319   7.666 -2.2647  1.4177  0.0526
  175MOL   H13342241   6.988   1.072   0.245 -0.8952  1.2004 -0.1020
  175MOL   C13442242   7.148   1.073   7.597  0.3155  0.0881  0.4362
  175MOL   C13542243   7.308   1.047   7.599 -0.4378 -0.0282 -1.0355
  175MOL   C13642244   7.399   1.174   7.580 -0.4282 -0.5762 -0.5463
  175MOL   C13742245   7.348   0.968   7.729  0.6963 -0.2571  0.1471
  175MOL   O13842246   7.402   1.011   0.061 -1.3794 -0.3842 -0.0346
  175MOL   O13942247   7.305   0.841   7.712 -0.0575  0.0865 -0.3019
  175MOL   H14042248   7.106   0.972   7.593 -2.8415  1.3041  1.3178
  175MOL   H14142249   7.116   1.126   7.507 -2.2165 -0.7383  0.8065
  175MOL   H14242250   7.392   1.242   7.665  0.5299 -0.3246 -0.6638
  175MOL   H14342251   7.355   1.230   7.498  0.5568  0.9802 -0.0315
  175MOL   H14442252   7.503   1.160   7.550 -0.7055  0.5679 -2.0619
  175MOL   H14542253   7.299   0.792   0.026 -0.0660 -0.2828 -0.5210
  175MOL   C14642254   7.338   0.953   7.472  0.4167  0.4556 -0.4060
  175MOL   C14742255   7.358   0.998   7.316  0.2530  0.5207  0.1190
  175MOL   C14842256   7.234   1.081   7.271 -0.4770 -0.7047 -0.2017
  175MOL   C14942257   7.482   1.091   7.299  0.3185  0.1346 -0.8289
  175MOL   O15042258   7.476   1.212   7.276  0.1341 -0.1418 -0.1918
  175MOL   O15142259   7.600   1.028   7.331 -0.2524  0.0565  0.2025
  175MOL   H15242260   7.430   0.905   7.502  0.6143  0.0436 -1.6626
  175MOL   H15342261   7.269   0.869   7.471 -0.3150  1.0226  0.4888
  175MOL   H15442262   7.230   1.174   7.328 -0.8107 -0.7185 -0.2026
  175MOL   H15542263   7.133   1.043   7.287  0.0972 -0.7403  3.8607
  175MOL   H15642264   7.247   1.127   7.174  0.0729  0.5327  0.4538
  175MOL   H15742265   7.669   1.090   7.317  0.2441 -0.5578 -0.0925
  175MOL   C15842266   7.391   0.871   7.229  0.5907  0.2253  0.2707
  175MOL   C15942267   7.348   0.861   7.077 -0.3519  0.7867 -0.3511
  175MOL   C16042268   7.194   0.831   7.062  0.0100  0.0830  0.2156
  175MOL   C16142269   7.373   0.979   6.980  0.2637  0.3176  0.0944
  175MOL   O16242270   7.447   1.071   7.002  0.2834 -0.4094 -0.4102
  175MOL   O16342271   7.308   0.955   6.860 -0.3152 -0.7418 -0.5439
  175MOL   H16442272   7.491   0.830   7.244  0.7065  0.9544  1.5316
  175MOL   H16542273   7.343   0.786   7.277  0.4050  0.0564 -0.2088
  175MOL   H16642274   7.128   0.918   7.070 -3.0643 -2.1670  0.1481
  175MOL   H16742275   7.165   0.753   7.133  2.3844 -2.4131 -1.4469
  175MOL   H16842276   7.166   0.782   6.969  0.9271  0.6430 -0.3693
  175MOL   H16942277   7.320   1.028   6.801 -2.1544 -0.2620 -0.3742
  175MOL   C17042278   7.402   0.727   7.011 -0.0595 -0.1682 -1.1309
  175MOL   C17142279   7.551   0.684   6.985 -0.2199 -0.2743 -0.2711
  175MOL   C17242280   7.620   0.810   6.923  0.2235  0.9379  0.6426
  175MOL   C17342281   7.619   0.648   7.118 -0.5910  0.1919  0.1842
  175MOL   O17442282   7.715   0.708   7.165 -0.4684 -0.2342 -0.2457
  175MOL   O17542283   7.567   0.547   7.184  0.0169  0.0117 -0.6643
  175MOL   H17642284   7.357   0.658   7.082 -0.9491  1.6972  0.1614
  175MOL   H17742285   7.343   0.705   6.922 -0.6200 -0.2017 -0.7501
  175MOL   H17842286   7.624   0.885   7.002 -1.5415  0.6399  1.0268
  175MOL   H17942287   7.562   0.848   6.838  0.4035  1.0870  0.5839
  175MOL   H18042288   7.722   0.781   6.897  1.1123  1.9845  2.7855
  175MOL   H18142289   7.599   0.546   7.273 -0.0716 -0.7731 -0.6376
  175MOL   C18242290   7.552   0.564   6.880  0.8585  0.3555  0.0934
  175MOL   C18342291   7.674   0.529   6.789  0.5743 -0.1431  0.3601
  175MOL   C18442292   7.681   0.622   6.662 -0.0983 -0.3920 -0.3597
  175MOL   C18542293   0.042   0.532   6.866  0.1665 -0.2743 -0.2880
  175MOL   O18642294   0.073   0.455   6.959  0.0486  0.0027  0.0752
  175MOL   O18742295   0.121   0.632   6.821  0.2681  0.8663  0.0628
  175MOL   H18842296   7.520   0.468   6.920  0.0685 -0.0158 -1.4103
  175MOL   H18942297   7.475   0.595   6.809  0.6058  1.3831  0.8017
  175MOL   H19042298   7.766   0.595   6.599 -0.1606  0.4215 -0.7908
  175MOL   H19142299   7.682   0.726   6.692  0.6824 -0.2501 -0.8685
  175MOL   H19242300   7.589   0.627   6.603 -1.4478 -3.1987  1.3855
  175MOL   H19342301   0.071   0.668   6.750 -0.9166  0.1544  0.5150
  175MOL   C19442302   7.668   0.377   6.738 -0.1139  0.2314  0.2121
  175MOL   C19542303   7.568   0.313   6.628 -0.5129 -0.9687  0.1697
  175MOL   C19642304   7.420   0.347   6.661 -0.2394  0.0926 -0.8293
  175MOL   C19742305   7.612   0.373   6.487  0.1516 -0.2388  0.1120
  175MOL   O19842306   7.731   0.399   6.465  0.3307  0.3109  0.1404
  175MOL   O19942307   7.512   0.386   6.392 -0.2158 -0.0177 -0.8153
  175MOL   H20042308   0.003   0.355   6.707 -0.2347  3.2826 -2.6174
  175MOL   H20142309   7.659   0.321   6.831  1.5177  0.6044  0.6062
  175MOL   H20242310   7.346   0.283   6.613 -0.1206 -0.5726 -0.1317
  175MOL   H20342311   7.384   0.447   6.638 -1.6586 -0.2697 -0.1996
  175MOL   H20442312   7.403   0.328   6.767  0.7384 -3.3726 -1.2308
  175MOL   H20542313   7.432   0.341   6.415  0.0856 -0.2560 -0.2234
  175MOL   C20642314   7.596   0.153   6.629  0.4632 -0.2008  0.0917
  175MOL   C20742315   7.491   0.031   6.654 -0.1399 -0.4402  1.2787
  175MOL   C20842316   7.419   0.049   6.781 -0.0017 -0.9275 -0.3799
  175MOL   C20942317   7.394   0.024   6.538  0.4296  0.2963 -0.3011
  175MOL   O21042318   7.418   0.070   6.429  0.6051 -0.1496 -0.7682
  175MOL   O21142319   7.280   7.719   6.568 -0.2512  0.1359 -0.7103
  175MOL   H21242320   7.652   0.126   6.539 -1.4511 -1.3811 -0.7863
  175MOL   H21342321   7.676   0.140   6.702 -0.8643  1.7497  1.9239
  175MOL   H21442322   7.385   7.716   6.808  0.7974 -0.4372  2.5882
  175MOL   H21542323   7.324   0.101   6.775 -0.0259 -0.6926  1.6970
  175MOL   H21642324   7.476   0.092   6.864  1.8272 -0.3861 -1.8816
  175MOL   H21742325   7.233   7.725   6.486 -1.4215 -2.7821 -0.3142
  175MOL   C21842326   7.564   7.654   6.655  0.0366  0.2623  0.6094
  175MOL   C21942327   7.676   7.594   6.750 -0.0259 -0.2118 -0.2722
  175MOL   C22042328   0.041   7.620   6.682 -1.1336  0.5672  0.1058
  175MOL   C22142329   7.666   7.637   6.895  0.0337  0.1895  0.4593
  175MOL   O22242330   7.608   7.578   6.986 -0.9961 -0.5743 -0.0721
  175MOL   O22342331   7.726   7.760   6.911 -0.0415  0.2998 -0.4435
  175MOL   H22442332   7.491   7.573   6.658 -0.7082  0.7989 -1.7251
  175MOL   H22542333   7.597   7.642   6.551  2.9027  1.2368  1.3700
  175MOL   H22642334   0.040   7.580   6.580  1.2217 -2.4243  1.1592
  175MOL   H22742335   0.126   7.569   6.728 -1.1899  0.4805  0.1152
  175MOL   H22842336   0.071   7.723   6.669 -2.7706  0.8896 -1.2044
  175MOL   H22942337   7.727   0.015   7.002  0.3981 -0.0097 -0.3733
  175MOL   C23042338   7.654   7.445   6.754 -0.0740 -0.1395 -0.3282
  175MOL   C23142339   7.669   7.360   6.620 -0.4317  0.1221  0.4665
  175MOL   C23242340   0.021   7.266   6.624  0.0973 -0.4514  0.3485
  175MOL   C23342341   7.543   7.280   6.586  0.0410  0.0050  0.0251
  175MOL   O23442342   7.440   7.276   6.655 -0.0102  1.2293 -0.0838
  175MOL   O23542343   7.557   7.212   6.471  0.5054 -0.2707 -0.0163
  175MOL   H23642344   7.707   7.398   6.837  1.3333 -0.6177 -1.4613
  175MOL   H23742345   7.555   7.425   6.794 -0.3653 -0.0469 -1.0102
  175MOL   H23842346   0.011   7.178   6.560  0.8762 -0.1894 -0.1383
  175MOL   H23942347   0.065   7.229   6.716  2.9773 -1.1790 -1.2611
  175MOL   H24042348   0.106   7.324   6.586  0.0189  0.4001  1.4370
  175MOL   H24142349   7.467   7.192   6.450  0.0812 -0.5924  1.9389
  175MOL   H24242350   7.679   7.414   6.527  1.4588 -1.8213 -0.5062
  176MOL     C142351   2.066   1.820   7.667  0.3854  0.1493  0.0277
  176MOL     C242352   2.118   1.926   0.003 -0.0795 -0.0998  0.3030
  176MOL     C342353   2.271   1.939   7.749  0.6087  0.0921  0.0321
  176MOL     C442354   2.059   2.060   7.736 -0.5169  0.6740  0.0082
  176MOL     O542355   2.001   2.085   7.633 -0.6694 -0.6876 -0.4420
  176MOL     O642356   2.101   2.152   0.063  0.9984  0.5057 -0.1089
  176MOL     H742357   1.958   1.833   7.664  0.4213  0.4962  0.1773
  176MOL     H842358   2.076   1.714   7.691 -1.3030  0.4922  2.4460
  176MOL     H942359   2.296   1.995   7.659 -1.6332  0.1986 -0.5436
  176MOL    H1042360   2.319   1.841   7.745  0.0255 -0.1993  0.0562
  176MOL    H1142361   2.321   2.002   0.056 -1.5350  2.0792 -0.1703
  176MOL    H1242362   2.092   2.239   0.027 -0.7718 -0.7012 -2.7817
  176MOL    H1342363   2.112   1.842   7.571 -0.2432  0.8451 -0.1183
  176MOL    C1442364   2.089   1.885   0.149  0.4331 -0.0681 -0.3721
  176MOL    C1542365   1.947   1.848   0.200  0.7651  0.5616 -0.4958
  176MOL    C1642366   1.837   1.955   0.166  0.8239 -0.0086  0.2484
  176MOL    C1742367   1.904   1.712   0.142 -0.3794  0.6494 -0.8563
  176MOL    O1842368   1.802   1.690   0.072  0.6756  0.2285  0.0239
  176MOL    O1942369   1.965   1.605   0.200  0.2193  0.0189 -0.0624
  176MOL    H2042370   2.137   1.788   0.156 -0.9607 -0.7334  0.0644
  176MOL    H2142371   2.132   1.959   0.216 -1.0850  1.4981 -1.0874
  176MOL    H2242372   1.737   1.936   0.205  0.9198  2.7733  1.9439
  176MOL    H2342373   1.828   1.965   0.058 -1.4105  0.1909  0.4316
  176MOL    H2442374   1.871   2.051   0.205 -0.9397  0.9048 -0.4114
  176MOL    H2542375   1.933   1.521   0.170  0.8745  0.2865 -1.5470
  176MOL    C2642376   1.964   1.838   0.367  0.7316  0.5512 -0.2958
  176MOL    C2742377   1.849   1.835   0.475 -0.4610 -0.1257  0.0319
  176MOL    C2842378   1.732   1.738   0.423  0.5515  0.1183 -0.0138
  176MOL    C2942379   1.921   1.777   0.604  0.6443 -0.3121 -0.0051
  176MOL    O3042380   2.040   1.807   0.640  0.1387  0.4221 -0.2885
  176MOL    O3142381   1.841   1.691   0.670  0.0895 -0.1421 -0.3294
  176MOL    H3242382   2.021   1.747   0.383 -2.3721 -0.9585  2.7516
  176MOL    H3342383   2.025   1.920   0.405  0.4114 -0.9339  3.6856
  176MOL    H3442384   1.765   1.636   0.399 -0.6939 -0.3619  0.2751
  176MOL    H3542385   1.676   1.774   0.338 -0.2313 -2.4837 -0.6492
  176MOL    H3642386   1.655   1.719   0.498  0.8972 -2.0275 -0.1597
  176MOL    H3742387   1.883   1.664   0.751  1.7524 -0.6291 -1.3414
  176MOL    C3842388   1.789   1.985   0.489  0.3050  0.0457 -0.7301
  176MOL    C3942389   1.707   2.034   0.613 -0.2502  0.1408 -0.4592
  176MOL    C4042390   1.605   1.925   0.660 -0.1210 -0.1919  0.7297
  176MOL    C4142391   1.793   2.068   0.743  0.7237 -0.4755  0.0031
  176MOL    O4242392   1.744   2.070   0.856 -0.1463 -0.8432 -0.2510
  176MOL    O4342393   1.924   2.100   0.721  0.1650 -0.5696  0.1270
  176MOL    H4442394   1.875   2.051   0.478 -1.3679  2.5442  0.8555
  176MOL    H4542395   1.734   2.001   0.396  1.8021 -0.3684 -1.6974
  176MOL    H4642396   1.656   1.850   0.719  1.4959  1.9489  2.1194
  176MOL    H4742397   1.554   1.885   0.572  1.5264 -0.6370 -0.0378
  176MOL    H4842398   1.529   1.957   0.732 -1.9999 -0.8010 -0.9154
  176MOL    H4942399   1.974   2.096   0.801 -1.8235 -2.2496  1.3538
  176MOL    C5042400   1.621   2.161   0.577 -0.1648 -0.0776 -0.0323
  176MOL    C5142401   1.682   2.284   0.509  0.6164 -0.4517 -0.0275
  176MOL    C5242402   1.811   2.336   0.571  0.4411 -0.1470  0.2356
  176MOL    C5342403   1.702   2.258   0.357  0.5649 -0.0444 -0.4113
  176MOL    O5442404   1.804   2.276   0.291  0.3330 -0.0276  0.0417
  176MOL    O5542405   1.584   2.210   0.296  0.3094 -0.1521  0.3687
  176MOL    H5642406   1.548   2.117   0.508  1.1184  0.3350 -1.6996
  176MOL    H5742407   1.572   2.191   0.669 -0.4705 -2.7781  0.7200
  176MOL    H5842408   1.892   2.284   0.520 -0.2115  0.0945 -1.0740
  176MOL    H5942409   1.827   2.331   0.679  0.6845 -1.8759  0.1301
  176MOL    H6042410   1.828   2.438   0.535  0.6144 -0.2711 -0.0352
  176MOL    H6142411   1.609   2.191   0.207  2.7998  0.0146  0.9952
  176MOL    C6242412   1.562   2.389   0.524 -0.4061  0.3541  0.6808
  176MOL    C6342413   1.553   2.503   0.639  0.0145  0.0270 -0.8369
  176MOL    C6442414   1.665   2.610   0.618  0.2031 -0.3337 -0.0836
  176MOL    C6542415   1.426   2.577   0.591  0.3167 -0.6515 -0.9771
  176MOL    O6642416   1.322   2.574   0.654  0.8313  0.1714  0.3815
  176MOL    O6742417   1.455   2.659   0.483 -0.1541 -0.0753 -0.3230
  176MOL    H6842418   1.552   2.437   0.427 -3.1405 -0.4763  0.5265
  176MOL    H6942419   1.469   2.333   0.523  0.1807 -0.6554  1.1897
  176MOL    H7042420   1.641   2.709   0.655 -1.6785  0.3442 -3.0296
  176MOL    H7142421   1.686   2.627   0.513 -1.0636 -1.5292 -0.5621
  176MOL    H7242422   1.757   2.586   0.672 -0.7724  2.7937  3.1289
  176MOL    H7342423   1.375   2.708   0.471 -0.1062 -0.2215 -1.2774
  176MOL    C7442424   1.567   2.446   0.788  1.0033  0.1005 -0.0056
  176MOL    C7542425   1.571   2.527   0.927 -0.7905 -0.0680  0.4443
  176MOL    C7642426   1.561   2.428   1.042  0.3389  0.2305 -0.1843
  176MOL    C7742427   1.706   2.598   0.925  0.0850  0.6774 -0.4847
  176MOL    O7842428   1.724   2.718   0.919 -0.5034  0.3234  0.6449
  176MOL    O7942429   1.805   2.506   0.928  0.0875 -1.0276  0.1461
  176MOL    H8042430   1.472   2.392   0.791 -0.1287  1.9637 -1.3846
  176MOL    H8142431   1.649   2.375   0.781  1.8696  1.2217 -1.4082
  176MOL    H8242432   1.485   2.350   1.039  1.9406 -1.3962  0.1474
  176MOL    H8342433   1.563   2.484   1.135 -2.2850 -1.2036  0.7932
  176MOL    H8442434   1.644   2.358   1.040  0.3685  0.0730  3.6668
  176MOL    H8542435   1.885   2.554   0.911 -1.0395  1.9198  2.8771
  176MOL    C8642436   1.456   2.635   0.927 -0.6728  0.2797 -0.1334
  176MOL    C8742437   1.389   2.712   1.047  0.0659 -0.2656 -0.1279
  176MOL    C8842438   1.291   2.612   1.122  0.1045 -0.6892  0.3317
  176MOL    C8942439   1.488   2.762   1.158 -0.0071  0.0451 -0.0684
  176MOL    O9042440   1.467   2.754   1.283  0.4180 -0.5449  0.1637
  176MOL    O9142441   1.595   2.829   1.113 -0.4212  0.7543  0.0391
  176MOL    H9242442   1.478   2.716   0.858 -0.9550 -0.3088 -0.9124
  176MOL    H9342443   1.368   2.586   0.886  0.0698  0.5296 -2.0739
  176MOL    H9442444   1.236   2.670   1.196  1.2840  1.4027 -0.4033
  176MOL    H9542445   1.339   2.525   1.167  1.8826  0.7093  1.1633
  176MOL    H9642446   1.218   2.577   1.048  0.8778 -0.1503 -0.6943
  176MOL    H9742447   1.594   2.833   1.019  0.2899 -0.5719 -0.0429
  176MOL    C9842448   1.303   2.833   0.987  0.1423 -0.0711  0.5276
  176MOL    C9942449   1.352   2.982   0.945  0.2472 -0.4658  0.8810
  176MOL   C10042450   1.389   3.062   1.073 -0.2634  0.1752  0.1633
  176MOL   C10142451   1.470   2.974   0.840 -0.4130  0.0514  0.2643
  176MOL   O10242452   1.581   2.990   0.880  0.0459  0.2356  0.1815
  176MOL   O10342453   1.432   2.955   0.715  0.5338 -0.2002 -0.6700
  176MOL   H10442454   1.245   2.785   0.908 -1.9125 -1.1980  2.6623
  176MOL   H10542455   1.230   2.855   1.064  1.0955  1.6323  0.9853
  176MOL   H10642456   1.480   3.036   1.128  0.8987 -0.6624 -2.1197
  176MOL   H10742457   1.309   3.064   1.147 -1.0203 -1.4599 -0.6081
  176MOL   H10842458   1.409   3.166   1.046 -0.5535  0.0405 -0.5577
  176MOL   H10942459   1.495   2.973   0.646 -0.4686  0.2198 -1.4996
  176MOL   C11042460   1.226   3.050   0.875 -0.0202 -0.3500  0.1930
  176MOL   C11142461   1.207   3.209   0.852 -0.2284 -0.1356  0.6173
  176MOL   C11242462   1.337   3.275   0.800  0.4293 -0.1207 -0.2816
  176MOL   C11342463   1.093   3.222   0.747 -0.2185  0.2079  1.0993
  176MOL   O11442464   1.092   3.297   0.652  0.3232 -0.2004  0.2648
  176MOL   O11542465   0.989   3.141   0.785  0.6750 -0.4584 -0.2814
  176MOL   H11642466   1.215   3.007   0.775 -1.1830 -0.9107  0.5526
  176MOL   H11742467   1.142   3.003   0.926  0.4249 -1.0496  0.3009
  176MOL   H11842468   1.323   3.374   0.756  2.2710  0.2973  0.0456
  176MOL   H11942469   1.382   3.217   0.720 -0.0828  1.6174 -1.8868
  176MOL   H12042470   1.403   3.298   0.883 -0.0611  2.1664 -0.4712
  176MOL   H12142471   0.914   3.172   0.737  0.1994  1.0604  1.3960
  176MOL   C12242472   1.151   3.273   0.985  1.2028  0.1836  0.2915
  176MOL   C12342473   1.083   3.415   1.005  0.6058 -0.6978 -0.0706
  176MOL   C12442474   1.152   3.519   0.913 -0.7982  0.2074 -0.1171
  176MOL   C12542475   0.925   3.416   0.980  1.0396  0.2034 -0.4368
  176MOL   O12642476   0.859   3.313   0.969 -0.0084  0.7331  0.1435
  176MOL   O12742477   0.875   3.542   0.970 -0.2522 -0.4448  0.2707
  176MOL   H12842478   1.078   3.201   1.023  0.3741  0.4042 -0.8713
  176MOL   H12942479   1.229   3.258   1.060  2.5383 -1.3153 -1.3540
  176MOL   H13042480   1.124   3.623   0.929 -0.5304 -0.0700  2.3533
  176MOL   H13142481   1.138   3.498   0.807 -0.9530 -1.4453  0.2221
  176MOL   H13242482   1.259   3.509   0.926 -1.1257 -1.0766  1.8833
  176MOL   H13342483   0.782   3.537   0.958 -0.2002 -1.9661  0.3511
  176MOL   C13442484   1.112   3.479   1.149 -0.1966 -0.0361  0.0902
  176MOL   C13542485   1.053   3.432   1.289  0.2718  0.1225  0.4172
  176MOL   C13642486   1.050   3.282   1.294 -0.5772 -0.5261  0.3681
  176MOL   C13742487   1.157   3.487   1.390 -0.3926  0.4262  0.6177
  176MOL   O13842488   1.158   3.595   1.435 -0.2752  0.4152 -0.1110
  176MOL   O13942489   1.256   3.396   1.422 -0.1876  0.2811 -0.3465
  176MOL   H14042490   1.221   3.476   1.157 -0.2775 -0.5537  1.0367
  176MOL   H14142491   1.102   3.588   1.145  3.5700  0.3565 -0.1374
  176MOL   H14242492   0.972   3.241   1.229 -0.8062  1.1574 -0.4409
  176MOL   H14342493   1.035   3.239   1.393  0.6751  0.6459  1.0775
  176MOL   H14442494   1.141   3.236   1.256 -1.8666 -1.1412 -2.0924
  176MOL   H14542495   1.327   3.418   1.479  0.1291 -0.3552 -0.4930
  176MOL   C14642496   0.915   3.498   1.312  0.4696  0.2449  0.5684
  176MOL   C14742497   0.812   3.451   1.421  0.4126  0.2965 -0.3267
  176MOL   C14842498   0.875   3.448   1.561  0.2360 -0.2409 -0.1978
  176MOL   C14942499   0.719   3.580   1.423  0.0782  0.0938 -0.3229
  176MOL   O15042500   0.672   3.628   1.525 -0.7020 -0.0514  0.7960
  176MOL   O15142501   0.672   3.615   1.302 -0.0634  0.0610  0.2094
  176MOL   H15242502   0.936   3.605   1.321 -0.9305  0.5581  0.2996
  176MOL   H15342503   0.867   3.498   1.214  1.0706  0.5747  0.2656
  176MOL   H15442504   0.806   3.450   1.645  0.5075  0.2163  0.0140
  176MOL   H15542505   0.924   3.544   1.578  1.3138 -0.8895  0.4505
  176MOL   H15642506   0.955   3.376   1.576  2.0815  1.4550 -1.5717
  176MOL   H15742507   0.596   3.662   1.332 -0.9527 -0.9239 -0.4838
  176MOL   C15842508   0.724   3.330   1.364 -0.2855  0.0292 -0.2320
  176MOL   C15942509   0.613   3.255   1.451  0.0164 -0.4753 -0.2940
  176MOL   C16042510   0.699   3.169   1.552 -0.0150 -0.1320 -0.1646
  176MOL   C16142511   0.519   3.357   1.530 -0.7623 -0.1641 -0.5013
  176MOL   O16242512   0.507   3.356   1.650 -0.6122 -0.5981 -0.0188
  176MOL   O16342513   0.446   3.430   1.443  0.0451  0.4813  0.4860
  176MOL   H16442514   0.668   3.372   1.281  1.0815  1.0252 -0.6527
  176MOL   H16542515   0.789   3.248   1.334 -1.6160 -1.6229  1.2716
  176MOL   H16642516   0.780   3.223   1.602  1.9318 -3.2640  0.1882
  176MOL   H16742517   0.741   3.081   1.503  0.7724  0.6080 -0.8516
  176MOL   H16842518   0.649   3.128   1.640  0.3486 -0.1220  0.0495
  176MOL   H16942519   0.386   3.494   1.477  0.3664  0.8457  0.3748
  176MOL   C17042520   0.529   3.162   1.358  0.0161  0.2323  0.1741
  176MOL   C17142521   0.432   3.044   1.406 -0.3224 -0.6126 -0.5797
  176MOL   C17242522   0.339   3.021   1.281 -0.1887 -0.0246  0.2962
  176MOL   C17342523   0.499   2.908   1.421  0.1317  0.4298 -0.1112
  176MOL   O17442524   0.481   2.818   1.341 -0.1451  0.5867 -0.0772
  176MOL   O17542525   0.585   2.901   1.529 -0.4127 -0.1925 -0.0746
  176MOL   H17642526   0.468   3.223   1.291 -0.3137 -0.2625  0.0223
  176MOL   H17742527   0.603   3.118   1.292  0.3357 -1.7640  1.8253
  176MOL   H17842528   0.277   3.111   1.273 -0.0119  0.0225 -0.5748
  176MOL   H17942529   0.266   2.940   1.281  0.1035 -0.3688  4.1878
  176MOL   H18042530   0.400   3.006   1.192 -2.1135  1.0279 -1.2398
  176MOL   H18142531   0.645   2.831   1.551  1.1023  0.2437 -2.5972
  176MOL   C18242532   0.349   3.081   1.536  0.2748  0.2532  0.2715
  176MOL   C18342533   0.265   2.979   1.625 -0.5561  0.1878  1.2584
  176MOL   C18442534   0.192   2.883   1.529  0.6843 -0.7684 -0.4792
  176MOL   C18542535   0.350   2.895   1.718  0.2041  0.4104 -0.3853
  176MOL   O18642536   0.318   2.781   1.755  0.1850 -0.8381  0.5226
  176MOL   O18742537   0.460   2.960   1.772 -0.2114 -0.5815  0.2279
  176MOL   H18842538   0.408   3.130   1.613 -0.8475  0.3806  1.0562
  176MOL   H18942539   0.280   3.158   1.501 -0.2626  0.6311  2.0872
  176MOL   H19042540   0.246   2.807   1.472  0.6116 -0.4296 -1.0081
  176MOL   H19142541   0.134   2.948   1.464  1.0297  0.7096  0.6636
  176MOL   H19242542   0.125   2.821   1.588  0.6587  0.3034  0.6436
  176MOL   H19342543   0.510   2.901   1.826  2.8976 -0.4293 -2.3461
  176MOL   C19442544   0.169   3.061   1.720 -0.1228 -0.1289  0.1481
  176MOL   C19542545   0.022   3.023   1.767 -0.7035  0.4338 -0.3859
  176MOL   C19642546   7.691   3.040   1.644 -0.0477  0.1238 -0.1879
  176MOL   C19742547   0.025   2.884   1.830 -0.0871 -0.2066 -0.0734
  176MOL   O19842548   7.723   2.796   1.785  0.1268 -0.1436 -0.1463
  176MOL   O19942549   0.113   2.872   1.932  0.5672  0.0674  0.1676
  176MOL   H20042550   0.230   3.099   1.801  0.7815  1.5147 -1.2741
  176MOL   H20142551   0.148   3.160   1.679 -2.8286 -0.8639 -0.3779
  176MOL   H20242552   7.735   3.002   1.552 -2.1814  0.4432 -1.3749
  176MOL   H20342553   7.674   3.147   1.628  0.8322  0.1901 -0.7195
  176MOL   H20442554   7.601   2.982   1.663 -0.1219 -0.3868 -1.9415
  176MOL   H20542555   0.109   2.781   1.957 -0.1800  0.0337 -0.0772
  176MOL   C20642556   7.753   3.128   1.876  0.7095 -0.5013 -0.0157
  176MOL   C20742557   7.621   3.129   1.968  0.4280  0.2613  0.3029
  176MOL   C20842558   7.628   3.258   2.054 -0.5341  0.1121  0.5414
  176MOL   C20942559   7.497   3.131   1.880 -0.3695  0.2870 -0.0825
  176MOL   O21042560   7.448   3.234   1.841 -0.8081  0.3990  0.8818
  176MOL   O21142561   7.450   3.004   1.860  0.0381  0.1745  0.0461
  176MOL   H21242562   0.067   3.122   1.948  0.7457  0.9781  0.0705
  176MOL   H21342563   7.762   3.229   1.838 -0.8289 -0.6602 -0.8752
  176MOL   H21442564   7.535   3.272   2.110 -1.2227 -0.4320 -0.4494
  176MOL   H21542565   7.633   3.341   1.983 -1.2294 -1.3829 -1.3036
  176MOL   H21642566   7.711   3.271   2.123  1.3435 -2.7790 -1.0769
  176MOL   H21742567   7.375   2.990   1.804  0.0246 -2.1039  0.5972
  176MOL   C21842568   7.625   3.008   2.073 -0.4399 -0.5254  0.0821
  176MOL   C21942569   7.533   2.987   2.193 -0.0362 -0.0076 -0.2405
  176MOL   C22042570   7.573   2.838   2.245  0.0982  0.2773  0.4985
  176MOL   C22142571   7.581   3.089   2.305  0.2027 -0.7475  0.4229
  176MOL   O22242572   7.688   3.066   2.361  0.4259 -0.0486 -0.3094
  176MOL   O22342573   7.493   3.191   2.333  0.5875 -0.7960 -0.1097
  176MOL   H22442574   7.611   2.915   2.018 -1.6644 -1.5555  2.0635
  176MOL   H22542575   7.727   3.010   2.112 -0.3443 -1.0327 -0.1337
  176MOL   H22642576   7.532   2.819   2.344 -0.8595  1.2073  0.2950
  176MOL   H22742577   7.680   2.837   2.267  0.1535  2.1366  0.4426
  176MOL   H22842578   7.554   2.762   2.170  0.2709  1.9425 -1.2740
  176MOL   H22942579   7.533   3.235   2.407  0.6668  1.2145 -1.3043
  176MOL   C23042580   7.379   2.989   2.154  0.0705 -0.0374  0.2938
  176MOL   C23142581   7.276   2.921   2.247 -0.8629 -0.5726 -0.4229
  176MOL   C23242582   7.251   3.008   2.370  0.5204  0.1223  0.0174
  176MOL   C23342583   7.148   2.891   2.167  0.3945  0.2591  0.4747
  176MOL   O23442584   7.118   2.954   2.066  0.3189  0.0291 -0.2388
  176MOL   O23542585   7.075   2.783   2.213 -0.0022 -0.3889 -0.2158
  176MOL   H23642586   7.340   3.087   2.127  1.7241  0.5692  0.0077
  176MOL   H23742587   7.366   2.927   2.065  0.0607 -0.3531  0.5127
  176MOL   H23842588   7.162   2.984   2.429  0.6220 -2.7920 -0.9724
  176MOL   H23942589   7.250   3.113   2.339 -1.7474  0.2340  0.3790
  176MOL   H24042590   7.339   3.012   2.434  0.9715 -1.6377 -0.4885
  176MOL   H24142591   7.006   2.760   2.153 -1.5938  1.2722  0.9472
  176MOL   H24242592   7.322   2.833   2.291 -0.3754  0.3687  0.9658
  177MOL     C142593   6.346   5.592   1.996  0.2661 -0.9498  0.5998
  177MOL     C242594   6.320   5.543   2.141 -0.1570 -0.4629  0.4801
  177MOL     C342595   6.408   5.623   2.233 -0.6114 -0.1620 -0.1183
  177MOL     C442596   6.169   5.573   2.160 -0.0847 -0.6396 -0.7395
  177MOL     O542597   6.091   5.601   2.070  0.1049  0.2462  0.5613
  177MOL     O642598   6.133   5.577   2.293 -0.2339  0.1134  0.3790
  177MOL     H742599   6.331   5.699   1.985  1.8712 -0.8241 -0.4909
  177MOL     H842600   6.284   5.533   1.928  1.1088 -0.5454 -0.5310
  177MOL     H942601   6.430   5.557   2.317 -2.4068 -1.3869 -0.5690
  177MOL    H1042602   6.371   5.718   2.272  3.1009  1.6701 -0.8835
  177MOL    H1142603   6.507   5.651   2.199  0.2676 -0.9086  1.7341
  177MOL    H1242604   6.047   5.615   2.297  0.0252  0.6473  0.9434
  177MOL    H1342605   6.446   5.559   1.970 -0.3538 -1.1687 -1.6757
  177MOL    C1442606   6.354   5.393   2.170  0.1835  0.4887  0.4116
  177MOL    C1542607   6.313   5.266   2.075 -0.2504 -0.3123 -0.8277
  177MOL    C1642608   6.429   5.259   1.973  0.5014  0.2784  0.5740
  177MOL    C1742609   6.325   5.134   2.157  0.0381 -0.4974  0.0506
  177MOL    O1842610   6.405   5.045   2.126  0.4926 -0.4614  0.0680
  177MOL    O1942611   6.245   5.134   2.274 -0.1640  0.4539 -0.0096
  177MOL    H2042612   6.463   5.394   2.183  0.2711 -0.3182 -0.2162
  177MOL    H2142613   6.327   5.360   2.270  0.1446 -1.6503 -0.2774
  177MOL    H2242614   6.413   5.337   1.898  2.1702  1.4909  1.4598
  177MOL    H2342615   6.429   5.174   1.904  1.1341  0.1470  0.7349
  177MOL    H2442616   6.528   5.272   2.015  1.8517  1.4267 -2.8189
  177MOL    H2542617   6.180   5.201   2.291 -0.3926  0.4721 -0.9002
  177MOL    C2642618   6.162   5.279   2.027 -0.1931 -0.2645  0.2589
  177MOL    C2742619   6.092   5.185   1.923  0.1330 -0.7576  0.1927
  177MOL    C2842620   5.943   5.231   1.938 -0.2440  0.4432  0.2215
  177MOL    C2942621   6.146   5.226   1.786 -0.1425  0.0053  0.0482
  177MOL    O3042622   6.242   5.167   1.737  0.5235 -0.1825 -0.2453
  177MOL    O3142623   6.079   5.326   1.723  0.1649  0.5696  0.3980
  177MOL    H3242624   6.095   5.287   2.113  0.2249  0.7717  0.4987
  177MOL    H3342625   6.163   5.380   1.987 -1.8736  0.6621  2.4037
  177MOL    H3442626   5.876   5.230   1.853 -0.1616  0.7790  0.1508
  177MOL    H3542627   5.937   5.338   1.956  0.2375  0.0527  3.0174
  177MOL    H3642628   5.901   5.192   2.031  2.0859  0.3723  1.2876
  177MOL    H3742629   6.106   5.331   1.633 -0.4716  0.5414  0.2037
  177MOL    C3842630   6.119   5.032   1.950  0.6635 -1.2122 -0.3555
  177MOL    C3942631   6.025   4.912   1.900 -1.0000  0.0429  0.2101
  177MOL    C4042632   6.002   4.935   1.750 -0.9787  0.2356  0.1114
  177MOL    C4142633   6.111   4.780   1.912 -0.1841  0.6257  0.0216
  177MOL    O4242634   6.134   4.697   1.822 -0.1614 -0.4270 -0.0064
  177MOL    O4342635   6.154   4.774   2.041 -0.5033 -0.0288  0.1915
  177MOL    H4442636   6.222   5.016   1.920  1.2546  1.4920  0.0523
  177MOL    H4542637   6.123   5.027   2.059 -0.7893 -0.5140 -0.2578
  177MOL    H4642638   6.096   4.967   1.705 -1.1678 -0.0175 -0.4698
  177MOL    H4742639   5.931   5.015   1.731 -1.4742 -0.0973  0.5443
  177MOL    H4842640   5.982   4.846   1.691  2.6081 -0.9204  0.5185
  177MOL    H4942641   6.194   4.691   2.061 -1.1595 -0.3930  0.0066
  177MOL    C5042642   5.889   4.923   1.977 -0.5523  0.1610 -0.1698
  177MOL    C5142643   5.781   4.806   1.981  0.2541  0.6007  0.2003
  177MOL    C5242644   5.648   4.882   2.034  0.5002  0.9478 -0.2017
  177MOL    C5342645   5.743   4.753   1.843 -0.8564  0.0260  0.1153
  177MOL    O5442646   5.663   4.815   1.767  0.3174  1.1362 -0.3465
  177MOL    O5542647   5.804   4.643   1.808 -0.2456  0.0443 -0.1347
  177MOL    H5642648   5.910   4.969   2.074 -0.1501 -0.8958  0.2591
  177MOL    H5742649   5.835   5.001   1.925 -0.5341 -0.2777 -0.8459
  177MOL    H5842650   5.668   4.925   2.132 -5.2628  0.0516  1.5365
  177MOL    H5942651   5.556   4.824   2.032  2.3775 -2.2346  1.2705
  177MOL    H6042652   5.623   4.967   1.970  1.1328  2.0101  0.9459
  177MOL    H6142653   5.779   4.616   1.721 -0.7026 -1.3908  0.4342
  177MOL    C6242654   5.821   4.673   2.067  0.0039  0.9255  0.2969
  177MOL    C6342655   5.817   4.659   2.215 -0.2033 -0.4771 -0.2548
  177MOL    C6442656   5.903   4.768   2.274 -0.3662  0.0686 -0.0362
  177MOL    C6542657   5.666   4.667   2.263  0.8557 -0.7021  0.0504
  177MOL    O6642658   5.565   4.635   2.196 -0.3738  0.4781 -0.0108
  177MOL    O6742659   5.659   4.683   2.398 -0.0078  0.0907  0.5650
  177MOL    H6842660   5.757   4.591   2.037  0.8738 -0.6879  2.7577
  177MOL    H6942661   5.917   4.648   2.021  0.1459 -1.0295  1.6289
  177MOL    H7042662   6.002   4.784   2.232 -0.1764 -0.0381  0.3753
  177MOL    H7142663   5.914   4.757   2.381 -1.0685  1.9833  0.2652
  177MOL    H7242664   5.852   4.864   2.268 -1.1328 -0.4343 -1.9583
  177MOL    H7342665   5.574   4.693   2.439 -0.9018  0.9474 -1.3636
  177MOL    C7442666   5.867   4.518   2.265  0.4054 -0.3441  0.1021
  177MOL    C7542667   6.006   4.453   2.240  0.5741 -0.0748  0.1193
  177MOL    C7642668   6.042   4.426   2.099 -0.2698  0.2100  0.1535
  177MOL    C7742669   6.126   4.534   2.297 -0.3822 -0.3686  0.4600
  177MOL    O7842670   6.227   4.558   2.232  0.7065 -0.0681  0.0830
  177MOL    O7942671   6.108   4.574   2.425  0.4355 -0.4736  0.2415
  177MOL    H8042672   5.858   4.534   2.372  0.6128  0.4386  0.0026
  177MOL    H8142673   5.787   4.449   2.239  1.5928 -1.6129 -0.3049
  177MOL    H8242674   5.961   4.388   2.036 -0.4776 -0.9725  1.1054
  177MOL    H8342675   6.126   4.358   2.084  0.2313  0.4651  1.6950
  177MOL    H8442676   6.074   4.522   2.059 -1.7523  1.4812  1.9599
  177MOL    H8542677   6.186   4.616   2.460  1.6122 -2.9244  0.6745
  177MOL    C8642678   6.022   4.320   2.323  0.1981  0.5768 -0.3417
  177MOL    C8742679   5.966   4.177   2.275  0.3933  0.1493 -0.3777
  177MOL    C8842680   5.977   4.087   2.410  0.2121 -0.1784 -0.7065
  177MOL    C8942681   5.814   4.192   2.249  0.3973 -0.4818  0.1263
  177MOL    O9042682   5.727   4.213   2.337  0.4766  0.5740 -0.5565
  177MOL    O9142683   5.790   4.202   2.115  0.3096  0.1391  0.1635
  177MOL    H9242684   6.124   4.312   2.360 -0.0760 -0.6497  0.1917
  177MOL    H9342685   5.965   4.341   2.414 -2.2605  1.9364 -2.1502
  177MOL    H9442686   6.072   4.089   2.464 -0.0612 -0.5216 -0.2137
  177MOL    H9542687   5.956   3.983   2.386 -0.3703 -0.1086 -0.4998
  177MOL    H9642688   5.902   4.118   2.484  0.8149 -0.0875 -0.1326
  177MOL    H9742689   5.863   4.173   2.061  0.9989  0.6438  0.8039
  177MOL    C9842690   6.057   4.122   2.156 -0.1963 -0.1043 -0.0506
  177MOL    C9942691   6.074   3.968   2.124 -0.7445  0.4241  0.8567
  177MOL   C10042692   6.166   3.895   2.229 -0.0962 -0.5778  0.7011
  177MOL   C10142693   5.937   3.899   2.116  0.4545 -0.9109  0.2898
  177MOL   O10242694   5.903   3.801   2.182 -0.0734  0.0074  0.0437
  177MOL   O10342695   5.853   3.959   2.022 -0.4039 -0.0115 -0.4664
  177MOL   H10442696   6.029   4.166   2.060  1.5278 -1.9447 -1.4482
  177MOL   H10542697   6.159   4.157   2.172 -0.4358 -0.0779  1.5068
  177MOL   H10642698   6.152   3.924   2.333 -1.4828 -2.0083  0.9282
  177MOL   H10742699   6.272   3.903   2.203 -0.1543 -0.5189  0.4767
  177MOL   H10842700   6.150   3.787   2.230  1.1654 -0.8148 -1.2602
  177MOL   H10942701   5.766   3.921   2.022 -0.7020  0.6498 -0.7210
  177MOL   C11042702   6.157   3.960   1.983 -0.1181  0.3858  0.3586
  177MOL   C11142703   6.189   3.829   1.891 -0.0950  0.2838  0.1846
  177MOL   C11242704   6.055   3.767   1.840  0.2497  0.0415 -0.3504
  177MOL   C11342705   6.263   3.883   1.767  0.2408 -0.5310  0.0743
  177MOL   O11442706   6.218   3.871   1.652 -0.2841 -0.8178  0.1518
  177MOL   O11542707   6.385   3.939   1.803  0.6675 -0.4712  0.4213
  177MOL   H11642708   6.098   4.028   1.921 -2.1147 -0.1721  1.5963
  177MOL   H11742709   6.253   4.007   2.003  0.9983 -2.2856  1.5691
  177MOL   H11842710   6.049   3.723   1.741 -0.0029  0.7656 -0.6636
  177MOL   H11942711   5.985   3.849   1.824  1.0880  0.7314 -0.5568
  177MOL   H12042712   6.008   3.688   1.899 -2.8101  2.5239  0.6784
  177MOL   H12142713   6.425   3.971   1.723 -0.7562 -1.4111 -0.6999
  177MOL   C12242714   6.266   3.724   1.978  0.8785 -0.2943 -1.4035
  177MOL   C12342715   6.364   3.606   1.923 -0.1782 -0.2985  0.3922
  177MOL   C12442716   6.293   3.556   1.795 -0.1832 -0.1294  0.0841
  177MOL   C12542717   6.504   3.649   1.873 -0.0709  0.0403 -0.7983
  177MOL   O12642718   6.562   3.596   1.777 -0.0489 -0.6265  0.2971
  177MOL   O12742719   6.552   3.760   1.924 -0.0080 -0.0226 -0.6270
  177MOL   H12842720   6.332   3.790   2.034 -0.6716  1.7699 -1.9640
  177MOL   H12942721   6.196   3.679   2.049  1.2872 -2.6009 -2.4263
  177MOL   H13042722   6.273   3.636   1.723  1.0533 -0.9711 -1.2176
  177MOL   H13142723   6.200   3.507   1.824  0.2620  0.6463  3.0359
  177MOL   H13242724   6.356   3.488   1.738 -1.5455 -2.7434  1.6017
  177MOL   H13342725   6.617   3.776   1.858 -1.3190  2.7690 -1.2928
  177MOL   C13442726   6.370   3.493   2.026 -0.3011  0.1573 -0.0469
  177MOL   C13542727   6.453   3.489   2.164 -0.1153  0.0939  0.6362
  177MOL   C13642728   6.435   3.630   2.226 -0.1832  0.3278  0.1959
  177MOL   C13742729   6.392   3.373   2.251 -0.5632  0.2656 -0.4669
  177MOL   O13842730   6.392   3.385   2.377 -0.6589  0.0996 -0.1584
  177MOL   O13942731   6.352   3.263   2.175 -0.1696  0.1825  0.3335
  177MOL   H14042732   6.263   3.485   2.048 -0.1584 -0.3221  0.4924
  177MOL   H14142733   6.399   3.404   1.970  1.0107  1.2463 -1.1213
  177MOL   H14242734   6.332   3.665   2.215 -1.3483 -2.7856  0.7254
  177MOL   H14342735   6.496   3.703   2.172 -2.5918  1.4772 -1.0769
  177MOL   H14442736   6.462   3.639   2.331  0.5235  0.7242 -0.0134
  177MOL   H14542737   6.316   3.198   2.232 -0.4960  0.6594  0.6799
  177MOL   C14642738   6.600   3.432   2.138 -0.3080  0.0178 -0.5180
  177MOL   C14742739   6.701   3.425   2.262 -0.4068 -0.0296 -0.5672
  177MOL   C14842740   6.842   3.436   2.195  0.7221 -0.4050  0.2890
  177MOL   C14942741   6.703   3.532   2.374 -0.1960  0.7053  0.1862
  177MOL   O15042742   6.781   3.632   2.380  0.3506 -0.1873 -0.0651
  177MOL   O15142743   6.607   3.512   2.465 -0.3362  0.4917  0.2556
  177MOL   H15242744   6.602   3.346   2.072 -0.5596 -0.7072  0.4122
  177MOL   H15342745   6.635   3.503   2.063  2.4955 -0.6021  0.1522
  177MOL   H15442746   6.852   3.360   2.117 -1.0729  1.7549 -2.1581
  177MOL   H15542747   6.925   3.437   2.266 -0.3046 -3.3835  1.5932
  177MOL   H15642748   6.849   3.526   2.133 -1.3472  0.4251  1.1957
  177MOL   H15742749   6.547   3.442   2.446  1.1709 -0.6416 -0.3968
  177MOL   C15842750   6.686   3.279   2.318  0.2716 -0.0216 -0.0565
  177MOL   C15942751   6.793   3.187   2.391 -0.5461  0.4737  0.0678
  177MOL   C16042752   6.886   3.131   2.284  0.4188 -0.1358 -0.5414
  177MOL   C16142753   6.876   3.269   2.494 -0.1330  0.6796 -0.4992
  177MOL   O16242754   6.825   3.350   2.571 -0.2728  0.1879 -0.4955
  177MOL   O16342755   7.006   3.239   2.505  0.1169  0.3684 -0.1055
  177MOL   H16442756   6.607   3.274   2.393  1.3354 -0.2953  1.0722
  177MOL   H16542757   6.638   3.219   2.240 -3.0258 -0.2893  2.0763
  177MOL   H16642758   6.839   3.090   2.195  0.7426 -1.3998 -0.1476
  177MOL   H16742759   6.951   3.055   2.330  1.7556  0.5382 -1.2996
  177MOL   H16842760   6.960   3.204   2.252  0.8783 -1.1062 -1.7344
  177MOL   H16942761   7.034   3.292   2.578 -1.6180 -1.0431  1.6380
  177MOL   C17042762   6.701   3.075   2.461 -0.7913  0.0638 -0.0506
  177MOL   C17142763   6.741   2.930   2.519  0.4995  0.2590  0.4173
  177MOL   C17242764   6.799   2.841   2.408 -0.1702 -0.5314 -0.7637
  177MOL   C17342765   6.847   2.940   2.633  0.2399  0.2090 -0.4048
  177MOL   O17442766   6.861   3.044   2.703  0.5398  0.4293 -0.0278
  177MOL   O17542767   6.914   2.822   2.657  0.4545 -0.4586  0.4818
  177MOL   H17642768   6.648   3.124   2.543 -0.2024  0.8593 -0.1362
  177MOL   H17742769   6.629   3.054   2.382  0.2714  0.4636 -1.1422
  177MOL   H17842770   6.772   2.736   2.422 -0.4696 -0.4995 -1.1136
  177MOL   H17942771   6.908   2.843   2.401  0.1954 -5.9275  0.6018
  177MOL   H18042772   6.747   2.862   2.315  0.8704  0.5503 -1.1136
  177MOL   H18142773   6.974   2.832   2.730 -1.0482  0.0247  1.6655
  177MOL   C18242774   6.614   2.843   2.561  0.2322  0.1781 -0.0240
  177MOL   C18342775   6.504   2.896   2.656  0.9703  0.2491  0.4219
  177MOL   C18442776   6.563   2.975   2.778 -0.5616  0.3786 -0.5941
  177MOL   C18542777   6.418   3.003   2.582  0.0454  0.3182  0.2845
  177MOL   O18642778   6.410   3.008   2.460 -0.1433 -0.3162  0.6330
  177MOL   O18742779   6.350   3.090   2.667 -0.2361  0.6764 -0.1547
  177MOL   H18842780   6.565   2.796   2.476  0.5856  0.1157 -0.1921
  177MOL   H18942781   6.641   2.757   2.622  0.0235  0.2764  0.2053
  177MOL   H19042782   6.590   3.078   2.757 -0.4408  0.5729  0.5268
  177MOL   H19142783   6.646   2.914   2.813 -0.7034  0.3271 -0.3493
  177MOL   H19242784   6.494   2.969   2.861 -0.4819 -1.4560 -0.6291
  177MOL   H19342785   6.315   3.161   2.616 -0.1008  1.8416  1.3680
  177MOL   C19442786   6.407   2.784   2.725 -0.4349 -0.1386 -0.0118
  177MOL   C19542787   6.336   2.665   2.652 -0.0334  0.5555  0.1763
  177MOL   C19642788   6.258   2.735   2.536 -0.1466  0.2972  0.0977
  177MOL   C19742789   6.434   2.570   2.590  0.1998 -0.8077  0.2223
  177MOL   O19842790   6.454   2.565   2.471 -0.7285  0.2609 -0.6186
  177MOL   O19942791   6.514   2.504   2.675 -0.3160 -0.3712 -0.2713
  177MOL   H20042792   6.473   2.744   2.802  2.8560  2.0487 -1.5722
  177MOL   H20142793   6.329   2.832   2.785 -1.1999  0.1775 -1.2462
  177MOL   H20242794   6.325   2.782   2.464  1.0037 -1.7433 -0.2144
  177MOL   H20342795   6.190   2.810   2.577 -1.8781 -1.9957  1.5736
  177MOL   H20442796   6.207   2.664   2.470  0.8353  0.9956 -1.4460
  177MOL   H20542797   6.483   2.515   2.763  0.0176  0.2849 -0.2385
  177MOL   C20642798   6.219   2.597   2.737 -0.3878  0.0038 -0.0334
  177MOL   C20742799   6.235   2.489   2.851 -0.4001 -0.9175 -0.3520
  177MOL   C20842800   6.282   2.345   2.805 -0.0529  0.5029 -0.1512
  177MOL   C20942801   6.334   2.541   2.954 -0.6767  0.3922  0.4642
  177MOL   O21042802   6.450   2.501   2.956 -0.3735  0.1398  0.3385
  177MOL   O21142803   6.283   2.639   3.032  0.1542 -0.1861 -0.3942
  177MOL   H21242804   6.144   2.665   2.777 -1.6694  0.2319 -2.6942
  177MOL   H21342805   6.168   2.532   2.666  0.7687 -0.3280 -0.5682
  177MOL   H21442806   6.253   2.324   2.703  0.4343 -0.2507 -0.1340
  177MOL   H21542807   6.248   2.270   2.877 -2.1793  1.2828 -0.3071
  177MOL   H21642808   6.389   2.327   2.814  0.0191  0.4165 -1.1571
  177MOL   H21742809   6.343   2.663   3.101  1.6956 -0.8270 -1.4954
  177MOL   C21842810   6.095   2.480   2.927  0.0015  0.0375  0.0504
  177MOL   C21942811   5.956   2.431   2.880  0.1498  0.1559  0.8122
  177MOL   C22042812   5.860   2.422   2.999  0.3806  0.3199  0.3303
  177MOL   C22142813   5.896   2.530   2.778 -0.0930 -0.2052  1.1119
  177MOL   O22242814   5.815   2.616   2.814  0.6004 -0.2337 -0.4304
  177MOL   O22342815   5.929   2.512   2.647 -0.0609 -0.3171 -0.4296
  177MOL   H22442816   6.115   2.408   3.006  2.7227 -0.0332 -0.6505
  177MOL   H22542817   6.073   2.571   2.983  2.2660 -0.9795  2.7262
  177MOL   H22642818   5.879   2.334   3.060  0.1312 -0.6958 -1.0323
  177MOL   H22742819   5.755   2.421   2.967  1.1762 -0.6948 -2.3349
  177MOL   H22842820   5.881   2.501   3.071  2.3589  0.3028 -0.2229
  177MOL   H22942821   5.869   2.550   2.585 -0.0273 -0.7912 -0.7487
  177MOL   C23042822   5.950   2.280   2.828 -0.6075 -0.6195  0.0621
  177MOL   C23142823   5.812   2.228   2.781  0.4167  0.4603  0.3174
  177MOL   C23242824   5.816   2.155   2.648 -0.7489  0.0172  0.3912
  177MOL   C23342825   5.738   2.134   2.880  1.3586  0.6703  0.0391
  177MOL   O23442826   5.796   2.083   2.983 -0.2739 -0.3663  0.2257
  177MOL   O23542827   5.613   2.106   2.844  0.2465  0.6236 -0.4191
  177MOL   H23642828   6.015   2.280   2.740  0.7550  0.4380  1.0421
  177MOL   H23742829   5.995   2.200   2.887 -0.4570 -0.1598  0.5796
  177MOL   H23842830   5.893   2.078   2.652 -0.1806  0.5048 -1.0453
  177MOL   H23942831   5.851   2.230   2.577 -3.3241  0.3731 -0.5310
  177MOL   H24042832   5.721   2.117   2.610 -0.9161  2.6243 -1.8762
  177MOL   H24142833   5.575   2.046   2.906 -0.7751  0.5308 -1.1252
  177MOL   H24242834   5.746   2.307   2.745  0.8067  0.0317 -1.3848
  178MOL     C142835   0.832   5.576   7.734  0.5889 -0.2058 -0.1421
  178MOL     C242836   0.853   5.634   7.590  0.0643  0.3057  0.6125
  178MOL     C342837   0.970   5.734   7.619  0.3667  0.0695  0.0383
  178MOL     C442838   0.912   5.518   7.498  0.0007 -0.5438 -0.0016
  178MOL     O542839   0.840   5.455   7.419  0.0734 -0.6659 -0.4610
  178MOL     O642840   1.042   5.487   7.530 -0.6409  0.1153  0.0508
  178MOL     H742841   0.918   5.514   7.756  0.6044  0.5783  2.0922
  178MOL     H842842   0.742   5.515   7.726 -0.4653  1.5104 -1.9022
  178MOL     H942843   1.055   5.702   7.681  0.5690  0.8630  0.1762
  178MOL    H1042844   0.939   5.831   7.658  0.1348  0.1280 -0.2913
  178MOL    H1142845   1.002   5.764   7.519 -2.0820  0.1905 -0.7270
  178MOL    H1242846   1.052   5.404   7.488  1.1509  1.4430 -2.2741
  178MOL    H1342847   0.811   5.658   0.035  1.7933 -0.3356  0.3940
  178MOL    C1442848   0.724   5.709   7.543 -0.0943 -0.5564 -0.1984
  178MOL    C1542849   0.713   5.800   7.417  0.3070  0.1117  0.7917
  178MOL    C1642850   0.566   5.792   7.381 -0.1460 -0.8373  0.5000
  178MOL    C1742851   0.749   5.949   7.454  0.6549  0.1355  0.2029
  178MOL    O1842852   0.862   5.996   7.457 -0.6470  0.2406  0.0776
  178MOL    O1942853   0.641   6.028   7.488  0.4820  0.1897 -0.1684
  178MOL    H2042854   0.646   5.632   7.536 -2.1113  1.1998  2.0015
  178MOL    H2142855   0.691   5.776   7.622  4.0485  4.4269 -2.4518
  178MOL    H2242856   0.529   5.865   7.309 -0.0868 -0.8828  0.4230
  178MOL    H2342857   0.509   5.806   7.473 -0.5619 -0.4635  0.1875
  178MOL    H2442858   0.537   5.696   7.339 -1.5116  0.0839 -0.6949
  178MOL    H2542859   0.664   6.117   7.510  0.1546  0.3978 -0.6599
  178MOL    C2642860   0.799   5.749   7.290  0.3277  0.1632 -0.0717
  178MOL    C2742861   0.807   5.811   7.145 -0.2938 -0.2627  0.7598
  178MOL    C2842862   0.815   5.965   7.152 -0.0982 -0.3011  0.2229
  178MOL    C2942863   0.941   5.762   7.073 -0.2856 -0.0574 -0.5276
  178MOL    O3042864   1.003   5.820   6.983  0.4870 -0.2414 -0.3918
  178MOL    O3142865   0.987   5.646   7.128 -0.0713  0.0887  0.1196
  178MOL    H3242866   0.897   5.765   7.335  0.0431  1.8720 -0.0333
  178MOL    H3342867   0.790   5.641   7.283  1.0535  0.1963 -2.0916
  178MOL    H3442868   0.719   6.006   7.185 -0.2419 -0.5140  0.0755
  178MOL    H3542869   0.831   6.010   7.054  2.0215  1.1234  1.2039
  178MOL    H3642870   0.901   6.009   7.202 -0.6042  1.8523 -0.7361
  178MOL    H3742871   1.073   5.623   7.096  0.2557  0.0297  1.0272
  178MOL    C3842872   0.678   5.775   7.058  0.6463 -0.0274  0.6318
  178MOL    C3942873   0.654   5.649   6.973  0.3245  0.1506  0.3700
  178MOL    C4042874   0.759   5.647   6.852  0.1843 -0.8269  0.0762
  178MOL    C4142875   0.670   5.525   7.070 -0.2631  0.2506 -0.0274
  178MOL    O4242876   0.599   5.519   7.175  0.1623  0.3055 -0.3894
  178MOL    O4342877   0.747   5.432   7.019 -0.1351  0.2969 -0.6787
  178MOL    H4442878   0.599   5.787   7.132 -0.5404  2.1806 -0.9161
  178MOL    H4542879   0.658   5.856   6.987 -1.4639  0.3056  1.5685
  178MOL    H4642880   0.722   5.617   6.754 -0.4771  0.9136 -0.2261
  178MOL    H4742881   0.845   5.581   6.864  0.3739 -0.4009  1.0842
  178MOL    H4842882   0.807   5.744   6.838  0.5978 -1.4088 -2.9605
  178MOL    H4942883   0.736   5.356   7.073 -1.6809  1.8894  1.3283
  178MOL    C5042884   0.510   5.664   6.914 -0.2392  0.2377  0.1813
  178MOL    C5142885   0.415   5.542   6.872  0.1630  0.3898  0.1645
  178MOL    C5242886   0.313   5.594   6.776  0.2247 -0.1033 -0.1648
  178MOL    C5342887   0.496   5.427   6.800 -0.4554 -0.1365 -0.4208
  178MOL    O5442888   0.512   5.316   6.840 -0.3551  0.1979  1.2276
  178MOL    O5542889   0.547   5.456   6.673 -0.4139  0.1910  0.2673
  178MOL    H5642890   0.444   5.721   6.980 -1.6180  0.0915 -1.0476
  178MOL    H5742891   0.518   5.739   6.836  0.8011 -0.1426 -0.0811
  178MOL    H5842892   0.256   5.668   6.831 -2.1534 -1.7146 -0.3799
  178MOL    H5942893   0.247   5.511   6.751  1.6366 -2.2357  2.8006
  178MOL    H6042894   0.357   5.638   6.687 -0.6749  1.8513  0.3264
  178MOL    H6142895   0.583   5.372   6.648 -0.2882 -0.3899  2.2493
  178MOL    C6242896   0.346   5.485   7.001  0.6173 -0.1998 -0.8256
  178MOL    C6342897   0.209   5.399   7.005  0.4318  0.0537  0.4316
  178MOL    C6442898   0.082   5.489   6.973 -0.4344  0.5175  0.2679
  178MOL    C6542899   0.203   5.282   6.907  0.0628  0.4462 -0.6559
  178MOL    O6642900   0.122   5.282   6.817 -0.5362  0.2704  0.2955
  178MOL    O6742901   0.293   5.182   6.928 -0.1715 -0.1274  0.2078
  178MOL    H6842902   0.421   5.426   7.053  0.2117  0.2834  0.3089
  178MOL    H6942903   0.321   5.563   7.072 -1.4038 -1.0632 -0.5385
  178MOL    H7042904   0.072   5.579   7.034 -1.3904 -0.2168  1.2042
  178MOL    H7142905   7.756   5.435   6.990 -0.1421  0.1847  0.7931
  178MOL    H7242906   0.066   5.532   6.873 -1.0416  4.1400  1.8445
  178MOL    H7342907   0.349   5.197   7.003  0.0676  0.3050 -0.0544
  178MOL    C7442908   0.175   5.359   7.159 -0.1756  0.1943 -0.0825
  178MOL    C7542909   0.245   5.252   7.248 -0.5364  0.0157 -0.6636
  178MOL    C7642910   0.171   5.115   7.227  0.0385 -0.4635  0.8053
  178MOL    C7742911   0.392   5.238   7.225 -0.0500  0.0523 -0.2628
  178MOL    O7842912   0.440   5.167   7.137  0.2875  0.7008  0.0859
  178MOL    O7942913   0.465   5.324   7.295 -0.2626  0.0267 -0.0966
  178MOL    H8042914   0.175   5.459   7.203 -0.5022 -0.0381  0.4491
  178MOL    H8142915   0.072   5.323   7.163 -0.4459  0.5729 -2.8663
  178MOL    H8242916   0.212   5.037   7.292 -1.9544 -1.0624  1.3552
  178MOL    H8342917   0.188   5.084   7.124  0.2167  1.5335  0.2059
  178MOL    H8442918   0.066   5.125   7.253 -0.1772 -0.2497 -0.1549
  178MOL    H8542919   0.556   5.327   7.271 -0.2583 -1.0025 -0.2326
  178MOL    C8642920   0.203   5.291   7.394 -1.1402 -0.4544 -0.4438
  178MOL    C8742921   0.248   5.421   7.491 -0.8325 -0.2149  0.1724
  178MOL    C8842922   0.285   5.543   7.405 -0.0049  0.1049 -0.0154
  178MOL    C8942923   0.127   5.469   7.589 -0.5182 -0.5058  1.1332
  178MOL    O9042924   0.013   5.425   7.578  0.5302  0.3782  0.5605
  178MOL    O9142925   0.154   5.582   7.666 -0.4002 -0.4779  0.7984
  178MOL    H9242926   0.095   5.280   7.403 -1.0162 -0.9227  0.5733
  178MOL    H9342927   0.209   5.205   7.461 -0.0879 -0.5400 -0.6474
  178MOL    H9442928   0.190   5.586   7.373  0.4992  0.2935 -1.3095
  178MOL    H9542929   0.353   5.519   7.324 -1.8615 -1.5234 -1.1248
  178MOL    H9642930   0.331   5.623   7.463 -0.0366  0.3603 -0.3377
  178MOL    H9742931   0.245   5.604   7.656 -0.4179 -2.1145 -4.4165
  178MOL    C9842932   0.378   5.404   7.577 -0.2721  0.2493 -0.0819
  178MOL    C9942933   0.387   5.289   7.677 -0.4048 -0.3461  0.3898
  178MOL   C10042934   0.256   5.255   7.749 -0.6864 -0.1040  0.4893
  178MOL   C10142935   0.435   5.165   7.594 -0.3759  0.6729 -0.1363
  178MOL   O10242936   0.530   5.153   7.516 -0.2685  0.5296 -0.3056
  178MOL   O10342937   0.353   5.061   7.614 -0.1454 -0.2900 -0.4600
  178MOL   H10442938   0.469   5.390   7.518  0.6148 -1.6273  1.6746
  178MOL   H10542939   0.403   5.500   7.621  1.0642  0.4758 -1.2793
  178MOL   H10642940   0.214   5.339   0.037  0.4659  0.3544  0.6783
  178MOL   H10742941   0.268   5.173   0.053 -0.1762 -0.0176  0.5000
  178MOL   H10842942   0.170   5.227   7.687  0.2375 -1.8281 -0.0496
  178MOL   H10942943   0.399   4.994   7.566  2.0933  2.2606 -1.9761
  178MOL   C11042944   0.498   5.322   0.019 -0.2358 -0.0972  0.6995
  178MOL   C11142945   0.578   5.215   0.109  0.2161  0.0329  0.0429
  178MOL   C11242946   0.485   5.107   0.163  0.4003 -0.6224 -0.0065
  178MOL   C11342947   0.682   5.147   0.021  0.3406 -0.4384 -0.0969
  178MOL   O11442948   0.693   5.023   7.767  0.1314  0.0815 -0.1864
  178MOL   O11542949   0.778   5.238   7.746 -0.9138 -0.1093 -0.4534
  178MOL   H11642950   0.579   5.369   7.729  1.6203 -1.1073  2.4303
  178MOL   H11742951   0.473   5.400   0.091  1.6389  1.5297 -0.3297
  178MOL   H11842952   0.526   5.038   0.237  3.2136  2.3119  1.2741
  178MOL   H11942953   0.451   5.042   0.082  1.7436  0.4220 -1.4356
  178MOL   H12042954   0.393   5.141   0.209  1.2965 -0.8382  1.9685
  178MOL   H12142955   0.851   5.185   7.717 -0.9769  0.0288 -0.8746
  178MOL   C12242956   0.643   5.301   0.228  1.0343  0.6415 -0.0537
  178MOL   C12342957   0.734   5.235   0.348 -0.0286  0.3470 -0.3111
  178MOL   C12442958   0.806   5.354   0.419 -0.3788 -0.4618  0.0558
  178MOL   C12542959   0.638   5.161   0.440  1.2461  0.2134 -0.1867
  178MOL   O12642960   0.617   5.039   0.447 -0.6703 -0.0013  0.2523
  178MOL   O12742961   0.577   5.252   0.524  0.1086 -0.1453  0.1872
  178MOL   H12842962   0.705   5.380   0.187  1.6902  0.5937  0.8262
  178MOL   H12942963   0.572   5.369   0.277 -0.1510  1.4687 -2.8369
  178MOL   H13042964   0.734   5.435   0.423 -1.0301 -0.8896 -2.0987
  178MOL   H13142965   0.899   5.389   0.373 -2.9927  4.0991 -2.0951
  178MOL   H13242966   0.817   5.330   0.525 -1.4860 -0.7500  0.1119
  178MOL   H13342967   0.506   5.215   0.576  0.5684  0.7106  1.4424
  178MOL   C13442968   0.848   5.142   0.290 -0.0759  0.0066 -0.1530
  178MOL   C13542969   0.963   5.074   0.375 -0.3219  0.2290 -0.0748
  178MOL   C13642970   1.068   5.171   0.423  0.3864 -0.0022 -0.4838
  178MOL   C13742971   0.904   4.994   0.490 -0.5748  0.3510  0.3822
  178MOL   O13842972   0.922   5.032   0.605 -0.4055 -0.3469 -0.1070
  178MOL   O13942973   0.821   4.893   0.461  0.8162  0.3040  0.0285
  178MOL   H14042974   0.805   5.056   0.238  0.8166  0.0251 -0.9459
  178MOL   H14142975   0.899   5.192   0.207  1.0961 -1.6505 -0.4550
  178MOL   H14242976   1.035   5.234   0.506  1.4688  0.2405 -0.2350
  178MOL   H14342977   1.100   5.242   0.347 -2.8571  0.5737 -1.4104
  178MOL   H14442978   1.153   5.112   0.456 -0.8491 -1.4275  0.2564
  178MOL   H14542979   0.790   4.866   0.547 -1.3782 -0.6805 -1.0239
  178MOL   C14642980   1.040   4.968   0.289  0.5896  0.2374 -0.2217
  178MOL   C14742981   1.117   4.997   0.149 -0.5019  0.5135  0.0985
  178MOL   C14842982   1.225   4.894   0.139 -0.5155 -0.0829 -0.1153
  178MOL   C14942983   1.014   4.970   0.036 -1.0107  0.1875  0.3840
  178MOL   O15042984   0.960   5.064   7.741  0.5125  0.5009  0.9977
  178MOL   O15142985   0.990   4.838   0.011  0.3664  0.1634 -0.3159
  178MOL   H15242986   1.125   4.931   0.346 -1.5727 -1.9664  1.6853
  178MOL   H15342987   0.982   4.877   0.275  1.0201 -0.0361 -0.2383
  178MOL   H15442988   1.309   4.926   0.200 -0.1757 -1.8732  0.3973
  178MOL   H15542989   1.271   4.889   0.041 -0.9518  1.7061 -0.4274
  178MOL   H15642990   1.191   4.795   0.172 -1.6048  0.8003  1.4665
  178MOL   H15742991   0.930   4.821   7.707  0.8804  1.5367 -1.1039
  178MOL   C15842992   1.177   5.140   0.139  0.4342 -0.6144 -0.2583
  178MOL   C15942993   1.279   5.192   0.023 -0.1272 -0.0559 -0.6143
  178MOL   C16042994   1.418   5.144   0.051  0.3360 -0.0511  0.2032
  178MOL   C16142995   1.243   5.136   7.651 -0.3684 -0.0191 -0.4671
  178MOL   O16242996   1.286   5.031   7.592 -0.1686 -0.5983 -0.0087
  178MOL   O16342997   1.143   5.215   7.601 -0.2922  0.2338 -0.5881
  178MOL   H16442998   1.090   5.199   0.113  0.9329 -0.0210 -0.6133
  178MOL   H16542999   1.230   5.163   0.231 -1.4208 -0.3948  0.7559
  178MOL   H16643000   1.454   5.165   0.151  1.3571  1.0929 -0.3872
  178MOL   H16743001   1.485   5.179   7.739 -2.8162  0.7651 -2.2206
  178MOL   H16843002   1.428   5.037   0.033 -2.5454 -0.1992 -0.8344
  178MOL   H16943003   1.093   5.181   7.527 -0.0428  0.7774 -1.0063
  178MOL   C17043004   1.273   5.353   0.014  0.4282 -0.0975  0.4910
  178MOL   C17143005   1.358   5.451   0.092 -0.3803  0.2055  0.2467
  178MOL   C17243006   1.306   5.593   0.051 -0.4561 -0.2087 -0.1211
  178MOL   C17343007   1.342   5.429   0.245  0.4940  0.5962 -0.0970
  178MOL   O17443008   1.428   5.386   0.318 -0.2323 -0.3306  0.1392
  178MOL   O17543009   1.222   5.466   0.293  0.6059 -0.3867  0.2219
  178MOL   H17643010   1.285   5.376   7.675 -0.1220 -1.8199  0.0318
  178MOL   H17743011   1.170   5.382   0.033 -0.2851 -0.8713 -2.0894
  178MOL   H17843012   1.311   5.621   7.713 -0.2991 -1.0619 -0.3466
  178MOL   H17943013   1.357   5.664   0.115  0.1510 -1.6451  1.0288
  178MOL   H18043014   1.201   5.597   0.081  0.3227  1.6378  2.5323
  178MOL   H18143015   1.232   5.458   0.387 -2.8873  0.6150  0.7294
  178MOL   C18243016   1.505   5.443   0.063  0.1436 -0.3338  0.5989
  178MOL   C18343017   1.587   5.473   7.688  0.0136  0.0152 -0.9829
  178MOL   C18443018   1.514   5.422   7.559  0.0825  0.0159 -0.3374
  178MOL   C18543019   1.605   5.626   7.673  0.1263 -0.1590 -0.1668
  178MOL   O18643020   1.572   5.698   7.582  0.3836  0.6311 -0.1549
  178MOL   O18743021   1.666   5.670   0.022 -0.4332  0.6558  0.7185
  178MOL   H18843022   1.543   5.515   0.135  0.5189 -0.9383  1.0065
  178MOL   H18943023   1.550   5.356   0.110  0.4261  0.2856  1.4692
  178MOL   H19043024   1.418   5.473   7.552  0.0078 -0.1503 -0.5519
  178MOL   H19143025   1.500   5.313   7.555  1.8371 -0.2332  0.1260
  178MOL   H19243026   1.559   5.451   7.464  2.1265  0.8011  0.8443
  178MOL   H19343027   1.705   5.756   0.017  0.1859  0.5029  2.6062
  178MOL   C19443028   1.737   5.410   7.709 -0.2637 -0.5109  0.0544
  178MOL   C19543029   1.830   5.395   7.581 -0.1784 -0.4995 -0.6221
  178MOL   C19643030   1.966   5.348   7.643 -0.4159  0.0653 -0.0320
  178MOL   C19743031   1.778   5.283   7.487  0.3200  0.6754  0.0778
  178MOL   O19843032   1.759   5.293   7.366 -0.1052  0.1467  0.0235
  178MOL   O19943033   1.744   5.176   7.560  0.4217 -0.0759  0.4221
  178MOL   H20043034   1.792   5.453   0.026  0.0697  0.8867 -0.8586
  178MOL   H20143035   1.708   5.311   7.744  0.4455 -0.1796  1.6488
  178MOL   H20243036   1.954   5.262   7.708  0.6101  1.0133  1.4494
  178MOL   H20343037   2.020   5.427   7.696  0.6668  1.5457 -3.1647
  178MOL   H20443038   2.042   5.305   7.577 -0.9124 -1.2052  0.2041
  178MOL   H20543039   1.709   5.111   7.501 -2.7021  2.4538 -0.6487
  178MOL   C20643040   1.861   5.530   7.511 -0.0593  0.0538 -0.0459
  178MOL   C20743041   1.976   5.568   7.416  0.3011  0.1717 -0.8501
  178MOL   C20843042   2.021   5.444   7.329  0.3267 -0.4825  0.1102
  178MOL   C20943043   1.930   5.677   7.312  0.8811  0.3126 -0.2877
  178MOL   O21043044   1.821   5.736   7.317 -0.6425 -0.1738 -0.3852
  178MOL   O21143045   2.019   5.680   7.204 -0.0688  0.7926  0.0224
  178MOL   H21243046   1.767   5.553   7.460  0.4178 -1.6776 -1.7534
  178MOL   H21343047   1.856   5.615   7.580  2.2835 -0.0125  0.2338
  178MOL   H21443048   2.004   5.351   7.382  0.0292 -0.2903  0.3545
  178MOL   H21543049   2.126   5.438   7.301  0.0936 -0.5394 -0.7500
  178MOL   H21643050   1.969   5.432   7.234 -0.7761  0.0062  0.6414
  178MOL   H21743051   1.997   5.760   7.158  0.6651  1.8792  1.5127
  178MOL   C21843052   2.104   5.634   7.482 -0.5518  0.2577  0.1582
  178MOL   C21943053   2.090   5.750   7.587 -0.8477 -0.4418  0.5396
  178MOL   C22043054   1.978   5.851   7.558  0.6724 -0.4644 -0.0195
  178MOL   C22143055   2.059   5.694   7.729  0.4327 -0.0971 -0.2085
  178MOL   O22243056   1.963   5.723   0.031  0.4995  0.0094 -0.0134
  178MOL   O22343057   2.148   5.601   7.765  0.3471  0.2369 -0.1213
  178MOL   H22443058   2.154   5.547   7.525 -1.4380  0.5681  1.8966
  178MOL   H22543059   2.172   5.667   7.404 -0.4763 -0.4227 -0.0648
  178MOL   H22643060   1.878   5.810   7.571  0.4823  0.2943  1.0278
  178MOL   H22743061   2.001   5.894   7.461 -1.3852 -1.0671 -0.7950
  178MOL   H22843062   1.975   5.924   7.639  0.2275  1.4885 -1.7687
  178MOL   H22943063   2.135   5.567   0.085  0.4730 -1.7237 -0.8363
  178MOL   C23043064   2.225   5.822   7.591  0.2267 -0.6735  0.2825
  178MOL   C23143065   2.258   5.934   7.692 -0.4743  0.1896  0.3884
  178MOL   C23243066   2.393   5.917   7.762 -0.3360  0.3197 -0.0464
  178MOL   C23343067   2.250   6.077   7.635 -0.2218 -0.3568  0.6207
  178MOL   O23443068   2.349   6.135   7.597 -0.1795 -0.7212 -0.6891
  178MOL   O23543069   2.132   6.126   7.610  0.3419  0.5799  0.2287
  178MOL   H23643070   2.304   5.747   7.603  0.0925 -0.6375  1.4498
  178MOL   H23743071   2.240   5.857   7.489 -0.4283  1.6924  0.9745
  178MOL   H23843072   2.384   5.837   0.068  1.2314  1.3321  1.2652
  178MOL   H23943073   2.408   6.005   0.058 -1.8315 -1.3661  2.7244
  178MOL   H24043074   2.477   5.892   7.697  0.3273 -0.9443  1.2866
  178MOL   H24143075   2.137   6.200   7.552 -0.3933  0.8321  0.4762
  178MOL   H24243076   2.198   5.925   0.015  2.6123 -0.6233  2.4619
  179MOL     C143077   6.310   5.752   5.538  0.9304 -0.3818 -0.1174
  179MOL     C243078   6.372   5.882   5.587  0.1800 -0.3868 -0.5761
  179MOL     C343079   6.251   5.981   5.569  0.1864 -0.5448 -0.3804
  179MOL     C443080   6.406   5.869   5.744  0.0162 -0.3455 -0.0337
  179MOL     O543081   6.348   5.943   5.828  0.2767 -0.1014 -0.6455
  179MOL     O643082   6.496   5.768   5.772 -0.0822  0.2607  0.8821
  179MOL     H743083   6.220   5.734   5.596 -0.4246  1.1681 -1.7196
  179MOL     H843084   6.381   5.670   5.554  0.7856 -0.5268 -0.2150
  179MOL     H943085   6.233   6.001   5.463  0.7382 -0.4919 -0.4649
  179MOL    H1043086   6.272   6.079   5.611  0.2597  0.0773 -1.8178
  179MOL    H1143087   6.162   5.946   5.621  0.4884 -0.9606 -0.1492
  179MOL    H1243088   6.495   5.743   5.863 -1.6023 -0.0441  0.7806
  179MOL    H1343089   6.275   5.746   5.435  1.7835 -1.1347 -0.3755
  179MOL    C1443090   6.504   5.907   5.502  1.0734  0.0205  0.0416
  179MOL    C1543091   6.609   6.022   5.521 -0.0426  0.7506 -0.1403
  179MOL    C1643092   6.522   6.154   5.522 -0.0372 -0.6530  0.0455
  179MOL    C1743093   6.684   6.018   5.657  0.1351 -0.0922  0.0757
  179MOL    O1843094   6.674   6.095   5.751  0.3030 -0.1340 -0.3169
  179MOL    O1943095   6.759   5.905   5.661 -0.7031  0.2655 -0.1769
  179MOL    H2043096   6.560   5.814   5.506  0.9046 -0.0116  2.0366
  179MOL    H2143097   6.461   5.900   5.402 -1.4073 -0.5834  1.1080
  179MOL    H2243098   6.444   6.161   5.446  0.8699  2.8154 -0.6347
  179MOL    H2343099   6.568   6.252   5.508 -4.1266  1.2388 -0.6431
  179MOL    H2443100   6.467   6.159   5.616  0.9453  0.9077  0.5479
  179MOL    H2543101   6.795   5.907   5.748 -1.4568 -1.1281  0.1667
  179MOL    C2643102   6.728   6.016   5.409  0.2042  1.1514 -0.3680
  179MOL    C2743103   6.865   6.098   5.404 -0.2548  0.4041  0.0022
  179MOL    C2843104   6.826   6.249   5.430  0.2924  0.5210 -0.1026
  179MOL    C2943105   6.969   6.042   5.505  0.2612  0.1469 -0.9208
  179MOL    O3043106   6.999   5.927   5.526  0.0506 -0.3432 -0.3294
  179MOL    O3143107   7.047   6.143   5.557 -0.4141 -0.9180 -0.0149
  179MOL    H3243108   6.758   5.911   5.416  0.1996  1.2639  1.9973
  179MOL    H3343109   6.683   6.019   5.310 -0.9742  0.5191  0.1370
  179MOL    H3443110   6.793   6.266   5.532  0.6639  1.2791 -0.1045
  179MOL    H3543111   6.745   6.286   5.368  2.4816  3.2159 -1.4824
  179MOL    H3643112   6.912   6.313   5.410 -0.5087  2.3412  2.1327
  179MOL    H3743113   7.110   6.101   5.613 -0.2438 -0.2631  0.2833
  179MOL    C3843114   6.925   6.088   5.259 -0.2470 -0.1230 -0.2232
  179MOL    C3943115   6.968   5.956   5.176 -0.7689 -0.6262 -0.1259
  179MOL    C4043116   7.001   6.017   5.041 -0.6047 -0.5152 -0.8636
  179MOL    C4143117   7.101   5.900   5.229 -0.2550  0.0355  0.1875
  179MOL    O4243118   7.104   5.786   5.278 -1.5148 -0.2707  0.0579
  179MOL    O4343119   7.199   5.992   5.233 -0.6955  0.3892  0.2636
  179MOL    H4443120   6.863   6.144   5.189  1.3743  1.2487 -0.5777
  179MOL    H4543121   7.011   6.154   5.268 -1.9996  1.9916  1.7272
  179MOL    H4643122   7.058   6.109   5.054 -1.4314 -0.1222  0.0260
  179MOL    H4743123   6.907   6.040   4.991  0.1488  1.5570 -1.3957
  179MOL    H4843124   7.065   5.953   4.980  2.0915 -0.4342  1.7322
  179MOL    H4943125   7.273   5.960   5.283 -0.5375  3.6703  2.3018
  179MOL    C5043126   6.851   5.851   5.147  0.9569  0.0689 -0.1175
  179MOL    C5143127   6.847   5.738   5.036 -0.2447  0.7051  0.2264
  179MOL    C5243128   6.713   5.662   5.063 -0.6311 -0.4457 -0.2264
  179MOL    C5343129   6.836   5.804   4.899  0.2498  0.7968  0.0418
  179MOL    O5443130   6.933   5.824   4.820  0.2906  0.1749  0.0124
  179MOL    O5543131   6.711   5.857   4.877 -0.0208  0.0229  0.1672
  179MOL    H5643132   6.830   5.801   5.242 -0.9129  0.9863 -0.0424
  179MOL    H5743133   6.758   5.907   5.138 -0.2264 -1.3117  2.6971
  179MOL    H5843134   6.728   5.570   5.120 -1.2010 -0.8719 -0.7553
  179MOL    H5943135   6.656   5.632   4.975  1.1251 -0.2375 -1.4607
  179MOL    H6043136   6.642   5.722   5.120 -1.3698 -0.8672 -0.6880
  179MOL    H6143137   6.719   5.882   4.786 -0.0626 -2.2454 -0.4957
  179MOL    C6243138   6.968   5.634   5.026 -0.3418  0.0842  0.0027
  179MOL    C6343139   6.989   5.508   4.928 -0.0118 -0.2189  0.0047
  179MOL    C6443140   7.077   5.406   5.005  0.5435 -0.4126  0.1932
  179MOL    C6543141   6.854   5.432   4.889  0.0629 -0.7230 -0.5336
  179MOL    O6643142   6.822   5.320   4.908 -0.1801  0.1793 -0.6299
  179MOL    O6743143   6.774   5.510   4.807  0.1952 -0.0959 -0.7423
  179MOL    H6843144   7.058   5.696   5.030 -0.7616  0.7044 -0.2064
  179MOL    H6943145   6.980   5.601   5.129 -2.2816 -0.5900  0.0244
  179MOL    H7043146   7.166   5.459   5.041 -0.9104  1.7548  0.7460
  179MOL    H7143147   7.108   5.322   4.944  0.6276  0.5574 -1.1249
  179MOL    H7243148   7.025   5.367   5.092 -1.5672  2.6206  0.4071
  179MOL    H7343149   6.693   5.462   4.802  0.3907 -0.4392 -0.5896
  179MOL    C7443150   7.058   5.536   4.791 -0.1509  0.8252  0.6722
  179MOL    C7543151   7.210   5.569   4.765  0.6604  0.0924  0.0703
  179MOL    C7643152   7.293   5.440   4.775 -0.5439 -0.4155  0.1094
  179MOL    C7743153   7.219   5.624   4.616  0.9076  0.3216 -0.4692
  179MOL    O7843154   7.284   5.560   4.531  0.1153 -0.3384  0.0167
  179MOL    O7943155   7.137   5.732   4.589 -0.2617  0.2186  0.4776
  179MOL    H8043156   7.047   5.442   4.737 -2.2975  0.2918  2.0277
  179MOL    H8143157   7.006   5.614   4.735  1.4332  0.9604 -0.6832
  179MOL    H8243158   7.390   5.468   4.734 -0.7181 -0.0288 -0.0452
  179MOL    H8343159   7.268   5.357   4.710  0.9702 -0.3061 -0.6354
  179MOL    H8443160   7.315   5.413   4.878  2.2112  0.7264 -0.1350
  179MOL    H8543161   7.118   5.770   4.674  2.6116 -0.3793  1.4197
  179MOL    C8643162   7.271   5.680   4.861 -0.1105  0.4075 -0.1618
  179MOL    C8743163   7.421   5.727   4.874  0.4333  0.0219 -0.7296
  179MOL    C8843164   7.500   5.638   4.969  0.2927  0.1600  0.0821
  179MOL    C8943165   7.482   5.729   4.743  0.1334 -0.9945 -0.0548
  179MOL    O9043166   7.567   5.650   4.711  0.0485 -0.2899 -0.4361
  179MOL    O9143167   7.436   5.836   4.663 -0.0365  0.3233  0.4249
  179MOL    H9243168   7.204   5.765   4.853  0.0461  0.4437 -1.1924
  179MOL    H9343169   7.246   5.647   4.962 -1.1849  1.0768 -0.2077
  179MOL    H9443170   7.606   5.659   4.962  0.1359  1.0088  0.1225
  179MOL    H9543171   7.491   5.535   4.935 -1.5945  0.1740  0.4694
  179MOL    H9643172   7.458   5.651   5.069 -1.0519 -1.8665 -0.1918
  179MOL    H9743173   7.476   5.836   4.577  0.6292  1.1157  0.7293
  179MOL    C9843174   7.420   5.873   4.935 -0.2836  0.0051 -0.4577
  179MOL    C9943175   7.548   5.955   4.977 -0.3802  0.8352  0.1296
  179MOL   C10043176   7.665   5.944   4.866  0.3687 -0.2463 -0.1228
  179MOL   C10143177   7.498   6.102   4.987 -0.4330 -0.0014  0.5162
  179MOL   O10243178   7.526   6.191   4.906  0.1737  0.1396  0.0100
  179MOL   O10343179   7.409   6.120   5.083 -0.4952 -0.1379 -0.3879
  179MOL   H10443180   7.354   5.932   4.870  2.8631  2.7521 -1.2986
  179MOL   H10543181   7.359   5.854   5.023 -4.3246  3.3486 -2.3602
  179MOL   H10643182   7.629   5.976   4.769 -1.0611 -1.4973 -0.0128
  179MOL   H10743183   7.717   5.850   4.850  0.5590 -0.1145 -0.2807
  179MOL   H10843184   7.740   6.019   4.892  0.0456 -0.8090  2.6117
  179MOL   H10943185   7.396   6.214   5.082  1.0988  0.1109 -1.9380
  179MOL   C11043186   7.607   5.912   5.118  0.5358 -0.0536  0.7740
  179MOL   C11143187   7.740   5.972   5.184 -0.0399  0.0763 -0.4414
  179MOL   C11243188   0.095   5.894   5.130 -0.2115 -0.0220 -0.5920
  179MOL   C11343189   7.767   6.122   5.157  0.2584 -0.0061  0.6273
  179MOL   O11443190   7.687   6.211   5.186 -0.0957 -0.6579  0.5067
  179MOL   O11543191   0.113   6.154   5.091 -0.2833  0.2447  0.1774
  179MOL   H11643192   7.523   5.930   5.185 -0.2230  1.8613 -0.6564
  179MOL   H11743193   7.622   5.804   5.115 -1.6170 -0.3209 -1.3714
  179MOL   H11843194   0.117   5.905   5.024 -1.3661 -2.8253 -1.1563
  179MOL   H11943195   0.071   5.788   5.133 -1.1404  0.1645 -1.1758
  179MOL   H12043196   0.182   5.921   5.189 -1.2137 -0.8835  1.3136
  179MOL   H12143197   0.108   6.243   5.060  1.0301  0.7802  1.4175
  179MOL   C12243198   7.714   5.958   5.349 -0.9385  0.4980 -0.0513
  179MOL   C12343199   7.737   5.820   5.431  0.0503  0.1430 -0.2252
  179MOL   C12443200   7.679   5.696   5.368  0.6583  0.5888 -0.8561
  179MOL   C12543201   0.125   5.805   5.427  0.4044 -0.1685  0.3157
  179MOL   O12643202   0.181   5.709   5.379  0.0201  0.9049 -0.2528
  179MOL   O12743203   0.184   5.902   5.503  0.3932  0.1907  0.1372
  179MOL   H12843204   0.011   6.032   5.396  0.8585 -0.8378 -0.3651
  179MOL   H12943205   7.613   6.000   5.355 -1.2478 -0.4300  1.5051
  179MOL   H13043206   7.723   5.680   5.270  0.6210  1.6080 -1.0429
  179MOL   H13143207   7.577   5.721   5.339  0.4731 -0.9118 -1.5592
  179MOL   H13243208   7.662   5.604   5.425 -0.6497  0.2349 -1.7869
  179MOL   H13343209   0.276   5.886   5.489 -0.0674 -2.4733 -0.1142
  179MOL   C13443210   7.689   5.817   5.581  0.1427 -0.5810  1.0478
  179MOL   C13543211   7.548   5.890   5.624  0.4376 -0.2662 -0.4708
  179MOL   C13643212   7.569   6.040   5.647  0.5973 -0.4531  0.2301
  179MOL   C13743213   7.433   5.858   5.525 -0.1479 -0.0580  0.4742
  179MOL   O13843214   7.379   5.937   5.443 -0.0273  0.2692 -0.3071
  179MOL   O13943215   7.400   5.723   5.531  0.3523  0.2264  0.1486
  179MOL   H14043216   7.685   5.712   5.607  0.3468 -0.6671  0.7314
  179MOL   H14143217   7.765   5.860   5.647  1.5164  0.3544 -1.0785
  179MOL   H14243218   7.643   6.079   5.576  0.9846  0.8479  1.3269
  179MOL   H14343219   7.608   6.067   5.745  0.5697 -0.5768  0.2746
  179MOL   H14443220   7.480   6.103   5.641  0.5711 -0.5385 -0.3436
  179MOL   H14543221   7.320   5.705   5.483 -0.5924  0.8236  1.4533
  179MOL   C14643222   7.509   5.832   5.759 -0.1676 -0.5030  0.0689
  179MOL   C14743223   7.383   5.868   5.847  0.6991  0.0751 -0.3335
  179MOL   C14843224   7.433   5.852   5.996 -0.1930  0.2653 -0.2241
  179MOL   C14943225   7.325   6.014   5.828  0.2977  1.1451 -0.5238
  179MOL   O15043226   7.245   6.045   5.738 -0.5450 -0.5632 -0.0351
  179MOL   O15143227   7.379   6.105   5.913  0.5257 -0.1174 -0.3874
  179MOL   H15243228   7.507   5.723   5.762 -0.5628 -0.5042 -0.1471
  179MOL   H15343229   7.598   5.844   5.820  0.3561  0.3543 -0.8431
  179MOL   H15443230   7.514   5.918   6.025 -1.8109  1.5533  1.4366
  179MOL   H15543231   7.461   5.749   6.017 -2.7743 -0.1654  1.3023
  179MOL   H15643232   7.354   5.887   6.061  1.1797  1.4846  0.8200
  179MOL   H15743233   7.445   6.072   5.971  1.5544 -0.4197 -1.6960
  179MOL   C15843234   7.267   5.765   5.811 -0.7053  0.2327  0.3374
  179MOL   C15943235   7.144   5.725   5.903 -0.4481  0.0727 -0.5812
  179MOL   C16043236   7.191   5.647   6.030 -0.5204  0.0826 -0.1474
  179MOL   C16143237   7.071   5.856   5.935  0.3979 -0.7031 -0.1332
  179MOL   O16243238   6.985   5.907   5.863 -0.1645 -0.1255  0.6867
  179MOL   O16343239   7.119   5.917   6.044 -0.0231 -0.3469  0.2973
  179MOL   H16443240   7.230   5.805   5.716  2.2589 -0.1566 -1.0529
  179MOL   H16543241   7.297   5.667   5.773 -1.7102  0.5345 -1.2899
  179MOL   H16643242   7.251   5.559   6.006  0.8814 -0.3378  4.4983
  179MOL   H16743243   7.103   5.605   6.080 -0.6072 -1.7205 -1.7287
  179MOL   H16843244   7.242   5.715   6.097 -1.0431  1.5813 -1.2419
  179MOL   H16943245   7.079   6.000   6.064  0.1115  0.1920 -1.5470
  179MOL   C17043246   7.057   5.640   5.805  0.6765 -0.3593 -0.4552
  179MOL   C17143247   6.936   5.546   5.847 -0.0269  0.7700 -0.2143
  179MOL   C17243248   6.984   5.403   5.886 -0.1150 -0.3991  0.1725
  179MOL   C17343249   6.853   5.601   5.961  0.2481 -0.3213 -0.2564
  179MOL   O17443250   6.837   5.550   6.070  0.1727  0.0394 -0.2168
  179MOL   O17543251   6.783   5.714   5.918  0.5143 -0.1927  0.2973
  179MOL   H17643252   7.030   5.708   5.723 -0.3250  0.3187  0.4197
  179MOL   H17743253   7.121   5.568   5.755  0.5089 -0.0957 -1.0553
  179MOL   H17843254   7.023   5.415   5.987  1.9339  2.3440 -0.8921
  179MOL   H17943255   7.074   5.366   5.837  0.0992  0.3192  0.0137
  179MOL   H18043256   6.913   5.321   5.895 -0.2149 -0.2572  0.6923
  179MOL   H18143257   6.735   5.754   5.988  0.8983  1.1615 -0.1897
  179MOL   C18243258   6.840   5.542   5.719  0.0343 -0.5494 -0.0768
  179MOL   C18343259   6.875   5.478   5.577 -0.0366  0.7429  0.0267
  179MOL   C18443260   6.741   5.497   5.494  0.5754 -0.0612 -0.5410
  179MOL   C18543261   6.989   5.555   5.508  0.1437  0.2513 -0.4976
  179MOL   O18643262   7.110   5.535   5.519 -0.2061  0.1049  0.1747
  179MOL   O18743263   6.931   5.668   5.449  0.2014  0.0306  0.4136
  179MOL   H18843264   6.747   5.505   5.761 -0.2065  1.0468  0.8340
  179MOL   H18943265   6.834   5.648   5.696 -0.1021 -0.5390  0.0116
  179MOL   H19043266   6.698   5.595   5.513  3.2826  0.8939  1.0254
  179MOL   H19143267   6.663   5.430   5.530 -0.1142  1.0920  0.1322
  179MOL   H19243268   6.767   5.470   5.391 -0.5530  1.5700 -1.2826
  179MOL   H19343269   6.993   5.738   5.434  0.0032 -0.1603 -1.3969
  179MOL   C19443270   6.914   5.319   5.584 -0.5745  0.4279 -0.5550
  179MOL   C19543271   6.939   5.218   5.466  0.2911  0.0814  0.0352
  179MOL   C19643272   7.048   5.269   5.364  0.9234  0.0821  0.0893
  179MOL   C19743273   6.996   5.091   5.533  0.6399  0.1734  0.0118
  179MOL   O19843274   6.929   5.025   5.608 -0.5039 -0.1510 -0.1442
  179MOL   O19943275   7.123   5.054   5.503 -0.0182 -0.0654  0.1999
  179MOL   H20043276   7.011   5.322   5.634 -0.5761 -1.3145 -0.4383
  179MOL   H20143277   6.836   5.274   5.645 -0.2750  0.2200 -0.3197
  179MOL   H20243278   7.007   5.355   5.312 -0.2810 -0.5523 -0.0356
  179MOL   H20343279   7.061   5.197   5.283  0.7905  1.3066 -1.0253
  179MOL   H20443280   7.143   5.292   5.411  1.6542  0.7706 -1.6815
  179MOL   H20543281   7.153   4.978   5.551  2.4830 -0.5499 -1.9999
  179MOL   C20643282   6.803   5.191   5.378  0.5372  0.6047  0.5792
  179MOL   C20743283   6.774   5.079   5.270  0.1165 -0.0450 -0.3079
  179MOL   C20843284   6.900   5.042   5.189 -0.3046 -1.0542  0.2717
  179MOL   C20943285   6.722   4.945   5.327 -0.0242  0.1947  0.7893
  179MOL   O21043286   6.735   4.834   5.266 -0.2614  0.7233 -0.1823
  179MOL   O21143287   6.656   4.959   5.442  0.1136 -0.3318 -0.0028
  179MOL   H21243288   6.722   5.200   5.450  0.7821 -0.7648  1.0319
  179MOL   H21343289   6.797   5.281   5.316 -2.7714 -0.2740 -0.5021
  179MOL   H21443290   6.983   5.005   5.250 -0.5954 -0.7240  0.8720
  179MOL   H21543291   6.932   5.124   5.126 -0.4902 -1.3694 -0.2357
  179MOL   H21643292   6.878   4.967   5.113  1.6013 -1.5908  0.2145
  179MOL   H21743293   6.608   4.882   5.468  1.3867 -0.8867  0.7492
  179MOL   C21843294   6.675   5.129   5.156  0.1431 -0.1869 -0.1536
  179MOL   C21943295   6.531   5.172   5.166  0.1164 -0.0425  0.4985
  179MOL   C22043296   6.514   5.255   5.032  0.8161  0.0900 -0.2544
  179MOL   C22143297   6.443   5.045   5.158 -0.6129  0.6615  1.0043
  179MOL   O22243298   6.428   4.981   5.057  0.0735  0.4952  0.2483
  179MOL   O22343299   6.381   5.001   5.270 -0.4513  0.2967  0.4538
  179MOL   H22443300   6.735   5.215   5.126  0.8633 -0.2448  1.1020
  179MOL   H22543301   6.685   5.059   5.073 -2.2717  1.9712 -2.3716
  179MOL   H22643302   6.529   5.363   5.040  1.0860 -0.1331  3.2637
  179MOL   H22743303   6.408   5.250   5.009 -0.4535  0.4791  4.8571
  179MOL   H22843304   6.579   5.213   4.956  0.4844 -3.1532  1.1583
  179MOL   H22943305   6.360   4.911   5.252  0.0578  0.4464 -0.9239
  179MOL   C23043306   6.492   5.256   5.288 -0.8049 -0.3415 -0.1203
  179MOL   C23143307   6.346   5.300   5.312  0.3256 -0.1127  0.2740
  179MOL   C23243308   6.319   5.310   5.464  0.6135  0.9803 -0.1105
  179MOL   C23343309   6.319   5.437   5.250 -0.4128  0.0585 -0.1974
  179MOL   O23443310   6.243   5.444   5.149 -0.5788  0.4984 -0.0542
  179MOL   O23543311   6.382   5.544   5.309  0.7411 -0.0548 -0.1740
  179MOL   H23643312   6.522   5.192   5.371  1.4835 -1.4163 -1.7389
  179MOL   H23743313   6.566   5.335   5.300  0.7188 -1.8841  0.8853
  179MOL   H23843314   6.284   5.211   5.490  0.9440  0.5549 -1.2704
  179MOL   H23943315   6.237   5.375   5.495 -0.6595 -1.5265  1.8969
  179MOL   H24043316   6.407   5.338   5.522 -1.3130  2.4741  2.1920
  179MOL   H24143317   6.350   5.618   5.259  1.0964 -0.6602 -1.3058
  179MOL   H24243318   6.277   5.233   5.261  0.6348  0.1568 -0.4974
  180MOL     C143319   0.399   1.345   5.655 -0.3903  0.5419  0.0098
  180MOL     C243320   0.414   1.193   5.623 -0.8603  0.3469  0.5497
  180MOL     C343321   0.290   1.112   5.683 -0.0804  0.5152  0.6144
  180MOL     C443322   0.413   1.184   5.465 -0.5453  0.4302  0.3512
  180MOL     O543323   0.318   1.147   5.392 -0.0891  0.1038 -0.4538
  180MOL     O643324   0.527   1.236   5.420 -0.0139  0.3543 -0.0131
  180MOL     H743325   0.306   1.390   5.619 -1.4940  0.2008  2.3782
  180MOL     H843326   0.475   1.406   5.607  2.3072 -2.1177  0.7454
  180MOL     H943327   0.205   1.176   5.656 -0.8785  0.6843  3.3605
  180MOL    H1043328   0.287   1.113   5.792 -0.3976  1.7560  0.6099
  180MOL    H1143329   0.276   1.014   5.639  1.1210 -0.0499  1.4893
  180MOL    H1243330   0.524   1.225   5.326 -1.7113 -2.3979  0.2944
  180MOL    H1343331   0.407   1.365   5.761 -0.0109  0.6268 -0.0359
  180MOL    C1443332   0.548   1.150   5.696 -0.2985  0.0965 -0.9802
  180MOL    C1543333   0.648   1.033   5.639 -0.6758  0.0984  0.1339
  180MOL    C1643334   0.562   0.921   5.570 -0.4589 -0.0847 -0.0122
  180MOL    C1743335   0.748   1.082   5.528  0.5484 -0.0627 -0.7916
  180MOL    O1843336   0.770   1.023   5.421  1.1011  0.1077  0.1229
  180MOL    O1943337   0.813   1.194   5.559  0.1589  0.4626  0.2226
  180MOL    H2043338   0.615   1.236   5.687  1.9402 -1.4295  0.6400
  180MOL    H2143339   0.522   1.144   5.801 -0.0379 -0.4292 -0.9474
  180MOL    H2243340   0.624   0.831   5.569 -1.5262 -0.8390 -1.0344
  180MOL    H2343341   0.544   0.934   5.463 -3.0475 -3.3323 -0.0523
  180MOL    H2443342   0.472   0.891   5.622 -0.1925 -2.2000 -0.6959
  180MOL    H2543343   0.882   1.218   5.499 -0.9978  0.4295 -1.1636
  180MOL    C2643344   0.735   0.965   5.765  0.2915  0.2090 -0.1942
  180MOL    C2743345   0.850   1.027   5.844  0.6307 -0.2820  0.2220
  180MOL    C2843346   0.981   1.031   5.755 -0.0954 -0.4223  0.0347
  180MOL    C2943347   0.807   1.171   5.893 -0.4398 -0.3076  0.0898
  180MOL    O3043348   0.720   1.178   5.984  0.1022 -0.1580  0.0485
  180MOL    O3143349   0.875   1.278   5.843  0.0947  0.7946  0.1788
  180MOL    H3243350   0.657   0.938   5.837 -2.4575  1.7241 -2.5006
  180MOL    H3343351   0.781   0.875   5.724 -1.4934 -0.8996  0.1805
  180MOL    H3443352   0.972   1.126   5.702 -2.2810 -0.2765  0.6259
  180MOL    H3543353   0.994   0.948   5.686  3.3743  1.5487 -1.8554
  180MOL    H3643354   1.075   1.025   5.810  0.1082  2.2951  0.0586
  180MOL    H3743355   0.840   1.350   5.894 -2.1218  0.3644 -0.7009
  180MOL    C3843356   0.878   0.944   5.977  0.2757  0.0280 -0.0543
  180MOL    C3943357   0.893   0.788   5.986  0.6560  0.0019  0.2390
  180MOL    C4043358   0.741   0.743   6.000 -0.3628  0.7417  0.0045
  180MOL    C4143359   0.956   0.717   5.865  0.1080 -0.8320 -0.0678
  180MOL    O4243360   0.892   0.644   5.791 -0.5016  0.6739  0.0716
  180MOL    O4343361   1.084   0.766   5.848 -0.3993 -0.1192  0.0897
  180MOL    H4443362   0.971   0.983   6.020 -0.7642  2.1100  0.3722
  180MOL    H4543363   0.809   0.974   6.056  0.1379  0.5975 -0.3838
  180MOL    H4643364   0.683   0.759   5.909 -0.7001  1.4968  0.3484
  180MOL    H4743365   0.685   0.780   6.086  0.4075 -1.3576  1.4403
  180MOL    H4843366   0.741   0.636   6.023 -2.2794  0.5065 -0.9743
  180MOL    H4943367   1.099   0.739   5.758  0.7099  0.2538  0.1555
  180MOL    C5043368   0.979   0.750   6.111 -0.0859 -0.2110  0.1624
  180MOL    C5143369   1.027   0.607   6.157 -0.4211 -0.0238 -0.0355
  180MOL    C5243370   0.903   0.512   6.146 -0.1162  0.6812 -0.2353
  180MOL    C5343371   1.141   0.543   6.068 -0.1000  1.2778  0.0226
  180MOL    O5443372   1.228   0.608   6.015  0.2434  0.6697 -0.2206
  180MOL    O5543373   1.134   0.404   6.068 -0.2627 -0.0154 -0.2978
  180MOL    H5643374   1.065   0.818   6.108  1.5350 -2.2541 -1.4279
  180MOL    H5743375   0.915   0.791   6.189 -1.0358 -0.0282 -0.7002
  180MOL    H5843376   0.815   0.556   6.193  0.3401  0.4488  0.8663
  180MOL    H5943377   0.905   0.423   6.209 -2.7469  0.3767 -0.5283
  180MOL    H6043378   0.875   0.483   6.045  0.3135 -0.7095  0.0350
  180MOL    H6143379   1.202   0.370   6.012 -0.4063  1.5578 -1.4852
  180MOL    C6243380   1.068   0.598   6.308  0.0449 -0.1105 -0.1285
  180MOL    C6343381   1.174   0.689   6.381  0.4076 -0.6198  0.0600
  180MOL    C6443382   1.219   0.617   6.506 -0.0983 -0.5258 -0.3452
  180MOL    C6543383   1.303   0.713   6.292 -0.3724 -0.4161 -0.1491
  180MOL    O6643384   1.324   0.815   6.225  0.0469 -0.2369 -0.0945
  180MOL    O6743385   1.379   0.606   6.288  0.1633  0.9620 -0.3560
  180MOL    H6843386   0.974   0.609   6.362 -0.7066  0.6445 -1.5766
  180MOL    H6943387   1.100   0.495   6.330  0.4357  0.0611  0.1171
  180MOL    H7043388   1.137   0.570   6.561 -1.7956  1.2945 -1.2383
  180MOL    H7143389   1.283   0.675   6.572 -2.1698  0.3691  0.9542
  180MOL    H7243390   1.276   0.528   6.482 -1.5603 -1.4070 -0.6569
  180MOL    H7343391   1.444   0.611   6.219  0.9944 -2.9796  0.0624
  180MOL    C7443392   1.113   0.836   6.418 -0.1188 -0.2351  0.2241
  180MOL    C7543393   1.037   0.866   6.553 -0.2352 -0.1828  0.2948
  180MOL    C7643394   0.917   0.768   6.579  0.2393 -0.0649  0.0753
  180MOL    C7743395   1.136   0.864   6.671  0.3810 -0.6082 -0.0439
  180MOL    O7843396   1.251   0.910   6.671 -0.6156  0.1178  0.1148
  180MOL    O7943397   1.069   0.835   6.795 -0.0319 -0.2355  0.4134
  180MOL    H8043398   1.180   0.922   6.415  1.0242 -1.0710  1.1033
  180MOL    H8143399   1.042   0.851   6.337  0.0188  1.1911  0.3567
  180MOL    H8243400   0.849   0.804   6.656  0.1134  0.4420 -0.2759
  180MOL    H8343401   0.947   0.676   6.630 -0.3248 -0.9750 -1.1931
  180MOL    H8443402   0.853   0.741   6.495  0.5021 -3.4274  0.8507
  180MOL    H8543403   1.123   0.874   6.862 -0.1662  0.5183  0.0942
  180MOL    C8643404   0.983   1.014   6.540 -0.3682  0.4748 -0.3657
  180MOL    C8743405   0.889   1.070   6.430  0.1426 -0.3727  0.4443
  180MOL    C8843406   0.955   1.090   6.290  0.2162  0.2321 -0.7457
  180MOL    C8943407   0.764   0.976   6.407 -0.1573 -0.9467  0.5150
  180MOL    O9043408   0.730   0.919   6.305  0.0210  0.3716  0.1484
  180MOL    O9143409   0.687   0.957   6.519  0.0465  0.1265 -0.4515
  180MOL    H9243410   0.935   1.037   6.635  0.5440  3.0260 -0.4817
  180MOL    H9343411   1.065   1.085   6.551 -0.3861  0.7847 -2.1063
  180MOL    H9443412   0.957   1.000   6.228  2.5723 -1.2815  1.4166
  180MOL    H9543413   1.059   1.114   6.312  0.3583 -1.4254  0.4497
  180MOL    H9643414   0.917   1.168   6.224 -1.4107 -1.5141 -1.9106
  180MOL    H9743415   0.620   0.894   6.500 -0.8864  0.7176  0.7966
  180MOL    C9843416   0.857   1.224   6.454  0.4951 -0.2517 -0.3747
  180MOL    C9943417   0.756   1.280   6.559  0.2452 -0.6179  0.7405
  180MOL   C10043418   0.771   1.211   6.701 -0.0010  0.3156  0.1798
  180MOL   C10143419   0.791   1.427   6.590 -0.2707  0.3143 -0.3355
  180MOL   O10243420   0.888   1.479   6.533  0.6855 -0.0214  0.0251
  180MOL   O10343421   0.706   1.477   6.671  0.6401 -0.7045 -0.3594
  180MOL   H10443422   0.956   1.265   6.476  0.6701 -2.0916  2.6399
  180MOL   H10543423   0.832   1.271   6.359 -0.5350 -0.5774 -0.2733
  180MOL   H10643424   0.707   1.255   6.777  0.6486  0.1381  0.8367
  180MOL   H10743425   0.870   1.218   6.746 -0.3657  2.8651  0.7001
  180MOL   H10843426   0.739   1.107   6.704  1.0357  0.0234  1.5392
  180MOL   H10943427   0.746   1.551   6.714  1.4006 -1.1665 -0.2696
  180MOL   C11043428   0.601   1.263   6.513 -0.9697  0.1607 -0.0567
  180MOL   C11143429   0.526   1.320   6.391 -0.8352 -0.6251  0.3940
  180MOL   C11243430   0.519   1.473   6.397  0.2155 -0.5617  0.0837
  180MOL   C11343431   0.603   1.294   6.257  0.1786 -0.2846 -0.4730
  180MOL   O11443432   0.637   1.382   6.180  0.3875  0.3495  0.3541
  180MOL   O11543433   0.630   1.167   6.243  0.7779  0.0542 -0.2747
  180MOL   H11643434   0.579   1.156   6.516  0.1966 -0.1622 -2.1068
  180MOL   H11743435   0.533   1.290   6.594 -2.5073 -3.5726  0.0084
  180MOL   H11843436   0.612   1.529   6.410 -0.8413  1.1871  0.3320
  180MOL   H11943437   0.473   1.504   6.491 -1.4320 -0.0999 -0.8451
  180MOL   H12043438   0.472   1.520   6.310 -1.1402  0.6035  1.4014
  180MOL   H12143439   0.673   1.139   6.163 -0.4473 -0.8148 -0.6458
  180MOL   C12243440   0.380   1.256   6.384 -0.1585 -0.1784  0.4977
  180MOL   C12343441   0.297   1.245   6.253 -0.2618 -0.0005 -0.3280
  180MOL   C12443442   0.288   1.373   6.167  0.3069 -0.1361  0.1914
  180MOL   C12543443   0.341   1.127   6.168  0.3786  0.3183 -0.4175
  180MOL   O12643444   0.402   1.027   6.202  0.0339  0.2822  0.6806
  180MOL   O12743445   0.285   1.134   6.051  0.9881 -0.1235  0.7808
  180MOL   H12843446   0.376   1.157   6.429  0.1704  0.2759  1.5610
  180MOL   H12943447   0.324   1.311   6.460  0.0445  0.1987  0.3758
  180MOL   H13043448   0.244   1.462   6.212  2.2459  0.0292  1.8257
  180MOL   H13143449   0.219   1.365   6.083  0.7415  0.8834 -0.2721
  180MOL   H13243450   0.391   1.397   6.137  0.3553  0.3854  0.7629
  180MOL   H13343451   0.316   1.073   5.987 -2.3626  0.5189 -1.5820
  180MOL   C13443452   0.149   1.218   6.292 -0.3643  0.3019  1.1741
  180MOL   C13543453   0.092   1.093   6.378 -0.5605  0.9110  0.2720
  180MOL   C13643454   0.146   0.956   6.328 -0.0175  0.4137  0.2553
  180MOL   C13743455   0.128   1.095   6.529  0.1420 -0.1762 -0.5542
  180MOL   O13843456   0.158   0.998   6.598  0.1075 -0.0661  0.0972
  180MOL   O13943457   0.119   1.219   6.577 -0.1229  0.3654 -0.8246
  180MOL   H14043458   0.117   1.305   6.349  2.0030  3.4166 -2.0440
  180MOL   H14143459   0.082   1.225   6.206  0.3813  0.4314  0.5999
  180MOL   H14243460   0.150   0.954   6.219 -0.5278  3.5276  0.1396
  180MOL   H14343461   0.094   0.861   6.343  0.7005  0.2542  1.8122
  180MOL   H14443462   0.253   0.946   6.350  0.0370  1.6991  0.5924
  180MOL   H14543463   0.144   1.225   6.668 -0.4217  1.3906 -0.7943
  180MOL   C14643464   7.706   1.105   6.342  0.0515  0.4360 -0.8894
  180MOL   C14743465   7.589   1.046   6.423  0.1923 -0.2108 -0.2484
  180MOL   C14843466   7.619   0.898   6.460 -0.3222  0.0069 -0.8485
  180MOL   C14943467   7.571   1.109   6.563 -0.0508  0.4736 -0.8453
  180MOL   O15043468   7.535   1.043   6.663 -0.2131  0.1673  0.3546
  180MOL   O15143469   7.604   1.239   6.572 -0.3741 -0.4114  0.3786
  180MOL   H15243470   7.673   1.209   6.334 -3.6740 -0.6786 -0.7663
  180MOL   H15343471   7.701   1.050   6.248  0.1606 -0.6000 -0.2964
  180MOL   H15443472   7.539   0.845   6.513  0.4704 -1.6423 -1.2660
  180MOL   H15543473   7.706   0.869   6.519 -1.5271 -0.9812  0.4990
  180MOL   H15643474   7.634   0.847   6.365  0.9903  2.0634 -1.7690
  180MOL   H15743475   7.599   1.266   6.662  1.5675  0.6465  0.2034
  180MOL   C15843476   7.464   1.049   6.333  0.1527 -0.0420  0.1764
  180MOL   C15943477   7.355   1.155   6.342  1.1482 -0.1663 -0.9047
  180MOL   C16043478   7.277   1.122   6.216 -0.0491  0.3492  0.2348
  180MOL   C16143479   7.266   1.124   6.465  0.4475  0.1532  0.1221
  180MOL   O16243480   7.265   1.203   6.560 -0.2577  0.0016  0.4820
  180MOL   O16343481   7.200   1.010   6.461  0.1763  0.5219  0.5230
  180MOL   H16443482   7.502   1.050   6.231  0.1979 -2.7012  0.1362
  180MOL   H16543483   7.412   0.953   6.339  0.9704 -0.5607 -0.8537
  180MOL   H16643484   7.231   1.024   6.205 -0.6247  0.6882 -0.4395
  180MOL   H16743485   7.336   1.133   6.125  1.5993 -1.4418  1.0703
  180MOL   H16843486   7.178   1.169   6.213 -0.7593 -1.1282 -0.2113
  180MOL   H16943487   7.147   0.991   6.538 -0.2503 -1.1469 -0.1529
  180MOL   C17043488   7.407   1.313   6.337  0.2890  0.4719 -0.1394
  180MOL   C17143489   7.323   1.436   6.285  0.1023  0.4977 -0.9302
  180MOL   C17243490   7.322   1.434   6.130  0.4444  0.0381 -0.0860
  180MOL   C17343491   7.178   1.429   6.334  0.6997  0.3680  0.0498
  180MOL   O17443492   7.077   1.398   6.272 -0.6165 -0.0579 -0.2616
  180MOL   O17543493   7.173   1.461   6.465  0.2514  0.0125  0.7121
  180MOL   H17643494   7.430   1.348   6.437 -1.7576 -1.0455  0.8850
  180MOL   H17743495   7.498   1.324   6.276  0.4881  0.0950  0.0888
  180MOL   H17843496   7.419   1.462   6.089 -0.3870 -0.0376 -2.1686
  180MOL   H17943497   7.246   1.500   6.088 -0.0746 -0.9253 -0.6953
  180MOL   H18043498   7.307   1.334   6.088  0.7496  0.2270 -0.6430
  180MOL   H18143499   7.082   1.442   6.484 -0.2151 -1.9856 -3.0251
  180MOL   C18243500   7.404   1.571   6.336 -0.2829  0.3440  0.4867
  180MOL   C18343501   7.358   1.724   6.327 -0.3802 -0.2837  0.0060
  180MOL   C18443502   7.497   1.797   6.331  0.4084  0.3334 -0.0853
  180MOL   C18543503   7.289   1.754   6.192  0.6575 -0.7285 -0.4481
  180MOL   O18643504   7.360   1.788   6.098  0.0768  0.2464 -0.3519
  180MOL   O18743505   7.153   1.747   6.189 -0.2640  0.3428 -0.5442
  180MOL   H18843506   7.429   1.556   6.441 -1.5252 -1.4199  0.5603
  180MOL   H18943507   7.498   1.564   6.280  1.6054  4.0523  2.9758
  180MOL   H19043508   7.555   1.792   6.424 -1.3873  2.7485  1.2161
  180MOL   H19143509   7.478   1.902   6.309  0.0010  0.2658 -0.0502
  180MOL   H19243510   7.569   1.760   6.258  0.3348 -1.8326  0.8776
  180MOL   H19343511   7.126   1.752   6.099 -0.9969  2.1952 -0.2434
  180MOL   C19443512   7.268   1.760   6.455  0.2654 -0.4604  0.1577
  180MOL   C19543513   7.250   1.894   6.529  0.2675  0.3044 -0.9907
  180MOL   C19643514   7.380   1.922   6.608 -0.0790 -0.3684  0.5286
  180MOL   C19743515   7.206   2.010   6.440 -0.3233  0.2007 -0.3834
  180MOL   O19843516   7.173   1.999   6.325 -0.5166 -0.0988 -0.0517
  180MOL   O19943517   7.210   2.136   6.487 -0.1730  0.7335 -0.1759
  180MOL   H20043518   7.168   1.737   6.418 -0.8471  2.1187  1.4378
  180MOL   H20143519   7.287   1.688   6.535 -1.6582 -1.3313 -0.1405
  180MOL   H20243520   7.381   2.019   6.658 -0.8265  1.3800 -2.6851
  180MOL   H20343521   7.478   1.941   6.565 -0.4045  0.3704  0.0925
  180MOL   H20443522   7.393   1.849   6.688  1.4459 -2.0040 -1.1800
  180MOL   H20543523   7.174   2.196   6.424  0.8545  1.9985  0.4147
  180MOL   C20643524   7.139   1.881   6.652  0.1490  0.6957  0.0607
  180MOL   C20743525   6.978   1.877   6.629  0.1579  0.4085 -0.7826
  180MOL   C20843526   6.921   1.827   6.761 -0.1053 -0.3498  0.8406
  180MOL   C20943527   6.927   2.026   6.612 -0.1703 -0.1585  0.7537
  180MOL   O21043528   6.909   2.099   6.707  0.0472 -0.0285 -0.1003
  180MOL   O21143529   6.900   2.062   6.488  1.1951 -0.6283 -0.7661
  180MOL   H21243530   7.162   1.798   6.719 -1.1919  0.2889  0.0208
  180MOL   H21343531   7.162   1.968   6.714  1.5757  2.5272 -2.9272
  180MOL   H21443532   6.941   1.722   6.778  0.7328 -0.3575 -0.1476
  180MOL   H21543533   6.813   1.842   6.765  0.1876  2.4704 -0.5516
  180MOL   H21643534   6.966   1.871   6.850 -0.4887  0.7877  0.4876
  180MOL   H21743535   6.881   2.155   6.482  3.1833 -0.2239 -1.0083
  180MOL   C21843536   6.942   1.777   6.516 -0.4037  0.1950 -0.3489
  180MOL   C21943537   6.803   1.719   6.484 -0.2000 -0.2721 -0.6493
  180MOL   C22043538   6.756   1.620   6.589 -0.0567 -0.2501  0.1614
  180MOL   C22143539   6.701   1.835   6.465 -0.5229 -0.3974  0.4190
  180MOL   O22243540   6.664   1.873   6.355  0.1647 -0.0595  0.4680
  180MOL   O22343541   6.645   1.883   6.583  0.3972 -0.4067 -0.2436
  180MOL   H22443542   6.985   1.817   6.424  0.4720 -0.7861 -0.3813
  180MOL   H22543543   7.003   1.692   6.547  0.1826  0.4135 -0.8735
  180MOL   H22643544   6.742   1.657   6.690  1.1891 -2.5005  1.1979
  180MOL   H22743545   6.821   1.532   6.585  0.4851  0.2056 -2.0801
  180MOL   H22843546   6.661   1.581   6.552  1.0455 -0.7903 -2.2351
  180MOL   H22943547   6.571   1.940   6.570  0.0057 -0.5500  1.3323
  180MOL   C23043548   6.815   1.647   6.342 -0.0903  0.2705  0.2939
  180MOL   C23143549   6.696   1.569   6.266 -0.1352 -0.3810 -0.2335
  180MOL   C23243550   6.736   1.570   6.116  0.5327  0.1618 -0.1355
  180MOL   C23343551   6.686   1.420   6.318  1.0549  0.0416  0.1124
  180MOL   O23443552   6.776   1.369   6.386 -0.3072  0.2329  0.6704
  180MOL   O23543553   6.579   1.355   6.272  0.0837  0.2341  0.0562
  180MOL   H23643554   6.847   1.733   6.283  1.0072  0.1493  0.7063
  180MOL   H23743555   6.906   1.589   6.335 -2.1779 -3.0211 -0.4632
  180MOL   H23843556   6.753   1.673   6.084 -0.7228  1.0347  1.9025
  180MOL   H23943557   6.650   1.526   6.064 -0.9742  2.3333  0.4314
  180MOL   H24043558   6.822   1.507   6.098  0.7465 -0.1528  1.8257
  180MOL   H24143559   6.581   1.262   6.293 -2.0163  0.0454 -0.4068
  180MOL   H24243560   6.602   1.623   6.279 -0.4135 -1.2291  1.3855
  181MOL     C143561   3.016   7.500   6.091  0.0733 -1.1633  0.3974
  181MOL     C243562   3.145   7.578   6.071  0.3159 -0.3094  0.0487
  181MOL     C343563   3.137   7.655   5.928 -0.0022 -0.3578 -0.9656
  181MOL     C443564   3.143   7.692   6.176  0.1192  0.1774  0.5592
  181MOL     O543565   3.170   0.043   6.149  0.1221  0.0165  0.1575
  181MOL     O643566   3.128   7.646   6.305 -0.1242  0.3858  0.4474
  181MOL     H743567   3.006   7.408   6.033 -0.4126 -0.4690 -0.6316
  181MOL     H843568   2.937   7.566   6.054  0.2666 -0.2079  1.6650
  181MOL     H943569   3.162   7.583   5.850  1.6322 -1.9327  0.9565
  181MOL    H1043570   3.217   7.730   5.925 -0.7348  0.4078 -2.0613
  181MOL    H1143571   3.038   7.700   5.919  1.0232  2.1783 -0.1797
  181MOL    H1243572   3.120   7.721   6.363 -2.4793 -0.3769  1.1782
  181MOL    H1343573   2.991   7.479   6.195  0.0616 -1.6485  0.2965
  181MOL    C1443574   3.265   7.480   6.079  0.2113 -0.2912  0.3231
  181MOL    C1543575   3.413   7.506   6.119 -0.1265  0.4570  0.3852
  181MOL    C1643576   3.481   7.382   6.071 -0.2648  0.6340 -0.3603
  181MOL    C1743577   3.458   7.639   6.049  0.1401  0.8327  0.7544
  181MOL    O1843578   3.510   7.730   6.115 -0.0051 -0.2765  0.2600
  181MOL    O1943579   3.468   7.635   5.913  0.2448  0.4030 -0.2905
  181MOL    H2043580   3.227   7.391   6.130  0.7090 -1.4032 -1.1883
  181MOL    H2143581   3.272   7.443   5.977  1.2654 -0.1126  0.3254
  181MOL    H2243582   3.459   7.363   5.966 -0.8235 -0.5427 -0.0391
  181MOL    H2343583   3.447   7.292   6.123 -4.2357  0.8916 -2.3336
  181MOL    H2443584   3.589   7.386   6.084 -0.5351  3.3666  1.5015
  181MOL    H2543585   3.492   7.718   5.874  1.0128 -0.4998 -1.8269
  181MOL    C2643586   3.428   7.515   6.276  0.1295 -0.0649  0.3773
  181MOL    C2743587   3.558   7.480   6.356  0.1480 -0.1065  0.1858
  181MOL    C2843588   3.519   7.527   6.500  0.0388  0.3064 -0.1698
  181MOL    C2943589   3.577   7.327   6.366  0.6083 -0.2161  0.6697
  181MOL    O3043590   3.680   7.270   6.334 -0.4997  1.0232 -0.9612
  181MOL    O3143591   3.464   7.258   6.397  0.3350 -0.0810  0.1094
  181MOL    H3243592   3.406   7.619   6.301  1.0417  0.2012  0.0841
  181MOL    H3343593   3.336   7.473   6.316 -1.2924  0.3545 -2.3423
  181MOL    H3443594   3.411   7.517   6.515 -0.1164 -1.9818 -2.4733
  181MOL    H3543595   3.545   7.629   6.528 -0.7976  0.1967  1.0657
  181MOL    H3643596   3.568   7.474   6.582 -0.9747  1.6291  1.3138
  181MOL    H3743597   3.482   7.166   6.408 -2.8208 -0.8632 -0.8223
  181MOL    C3843598   3.680   7.564   6.303 -0.4034  0.2200 -0.2712
  181MOL    C3943599   3.822   7.573   6.376 -0.2833 -0.5301 -0.4419
  181MOL    C4043600   3.830   7.497   6.509  0.3497  0.1368 -0.0597
  181MOL    C4143601   3.934   7.508   6.284 -0.3925  0.0209  0.2592
  181MOL    O4243602   4.048   7.549   6.266 -0.0294 -0.2596 -0.1886
  181MOL    O4343603   3.883   7.396   6.216  0.0303 -0.4658  0.1249
  181MOL    H4443604   3.695   7.534   6.200  1.8231 -0.9308  0.3485
  181MOL    H4543605   3.640   7.665   6.299 -2.5036 -0.5063  1.6805
  181MOL    H4643606   3.935   7.488   6.536  0.4653 -0.9131 -0.7909
  181MOL    H4743607   3.801   7.392   6.502  1.8848 -0.4086  1.5075
  181MOL    H4843608   3.782   7.547   6.593  2.5806  1.2235  0.6056
  181MOL    H4943609   3.798   7.358   6.229  1.3486 -4.0356 -0.9722
  181MOL    C5043610   3.850   7.716   6.426 -0.4826  0.4204 -1.0419
  181MOL    C5143611   3.838   0.079   6.345 -0.1308 -1.0144 -0.6970
  181MOL    C5243612   3.877   0.060   6.197  0.0266  0.1930  0.4786
  181MOL    C5343613   3.697   0.141   6.364  0.1757 -0.1454  0.2850
  181MOL    O5443614   3.606   0.100   6.426  0.0781  1.1454 -0.0089
  181MOL    O5543615   3.677   0.257   6.290 -0.4988  0.1811  0.7252
  181MOL    H5643616   3.803   7.734   6.522  0.9405 -0.9717 -0.0458
  181MOL    H5743617   3.956   7.708   6.450 -0.1821  2.3649 -1.6343
  181MOL    H5843618   3.785   0.036   6.143  0.8911  1.4668 -1.6058
  181MOL    H5943619   3.957   7.757   6.175 -0.1793  0.1576 -0.1518
  181MOL    H6043620   3.904   0.156   6.153  0.4617  1.1328  2.7166
  181MOL    H6143621   3.586   0.276   6.308 -0.3351 -0.5189  2.3621
  181MOL    C6243622   3.949   0.181   6.404 -0.5082  0.5156 -0.1489
  181MOL    C6343623   3.967   0.225   6.554  0.4419 -0.0796 -0.2507
  181MOL    C6443624   4.043   0.362   6.544 -0.4896  0.4951 -0.1241
  181MOL    C6543625   3.837   0.236   6.629  0.2426  0.0278 -0.0369
  181MOL    O6643626   3.808   0.163   6.721 -0.5586  0.5846  0.3960
  181MOL    O6743627   3.761   0.343   6.593  0.2545 -0.1506  0.1534
  181MOL    H6843628   4.045   0.148   6.366 -0.2321  0.1118  0.8755
  181MOL    H6943629   3.931   0.272   6.348  0.0068  0.4409 -0.4398
  181MOL    H7043630   4.026   0.408   6.447 -0.6737  0.3847 -0.1440
  181MOL    H7143631   4.147   0.337   6.568 -0.0717  0.8953 -1.4899
  181MOL    H7243632   4.004   0.436   6.614 -4.5023 -0.3328 -1.3445
  181MOL    H7343633   3.677   0.360   6.632  0.0424  0.0241 -0.3701
  181MOL    C7443634   4.058   0.111   6.627 -0.5971 -0.3194  0.6551
  181MOL    C7543635   4.119   0.136   6.772  0.6627 -0.7266 -0.9255
  181MOL    C7643636   4.072   0.264   6.845  0.2442 -0.9090  0.1033
  181MOL    C7743637   4.078   0.018   6.867 -0.3829  0.0394  0.1795
  181MOL    O7843638   4.161   7.715   6.928  0.1990 -0.1920  0.2568
  181MOL    O7943639   3.945   7.748   6.864 -0.1233  0.0662 -0.2126
  181MOL    H8043640   3.997   0.021   6.625 -0.0274 -0.7004  0.0372
  181MOL    H8143641   4.134   0.082   6.554  0.0884 -1.4246  1.7782
  181MOL    H8243642   4.087   0.270   6.953 -1.0441  1.1624  0.1854
  181MOL    H8343643   3.964   0.281   6.851  0.1486 -1.0025 -1.2148
  181MOL    H8443644   4.114   0.351   6.794 -1.0751 -1.1762 -1.4823
  181MOL    H8543645   3.903   0.038   6.802  0.3173 -1.3651 -1.8872
  181MOL    C8643646   4.273   0.151   6.763 -0.2356 -0.2802  0.4089
  181MOL    C8743647   4.376   0.050   6.693 -0.6468 -0.3834 -0.0473
  181MOL    C8843648   4.336   7.667   6.691  0.7497  0.5761 -0.0921
  181MOL    C8943649   4.396   0.096   6.540  0.0366  0.3397  0.2012
  181MOL    O9043650   4.394   0.216   6.503  0.3689 -0.4356  0.2057
  181MOL    O9143651   4.415   7.762   6.452  0.6495  0.0959 -0.4724
  181MOL    H9243652   4.295   0.254   6.736 -1.4905  0.4019  1.9291
  181MOL    H9343653   4.314   0.149   6.864 -0.4711  1.5376  0.5575
  181MOL    H9443654   4.342   7.622   6.790 -0.5811  1.7639  0.5406
  181MOL    H9543655   4.406   7.609   6.630  0.0641  0.9682 -1.2605
  181MOL    H9643656   4.235   7.645   6.658  0.2822  0.1725  1.5894
  181MOL    H9743657   4.431   0.021   6.362  3.4897  2.3012  0.6143
  181MOL    C9843658   4.516   0.048   6.770  0.2032  0.1008  0.2042
  181MOL    C9943659   4.625   0.157   6.751 -0.5567  0.1533 -0.3994
  181MOL   C10043660   4.561   0.299   6.769 -0.3786  0.3000  0.2972
  181MOL   C10143661   4.725   0.142   6.872  0.8382 -0.2404  0.3451
  181MOL   O10243662   4.734   0.229   6.953  0.6074 -0.1935  0.0811
  181MOL   O10343663   4.781   0.020   6.884 -0.6456 -0.2513 -0.0870
  181MOL   H10443664   4.493   0.041   6.876  2.1001 -2.9362  0.4818
  181MOL   H10543665   4.562   7.716   6.766  1.7908  0.8951 -2.3595
  181MOL   H10643666   4.502   0.310   6.860  2.1674  0.7806  1.9123
  181MOL   H10743667   4.501   0.324   6.681  0.2555 -0.7669 -0.4388
  181MOL   H10843668   4.630   0.383   6.769  1.5501 -1.2542 -1.3396
  181MOL   H10943669   4.825   0.016   6.967  0.5006 -0.2047 -0.6903
  181MOL   C11043670   4.698   0.142   6.617  0.0902 -0.3879 -0.6016
  181MOL   C11143671   4.845   0.182   6.581 -0.3362  0.0665 -0.0573
  181MOL   C11243672   4.865   0.326   6.635 -0.5480  0.2157 -0.1174
  181MOL   C11343673   4.956   0.084   6.633 -0.4474 -0.4232 -0.1965
  181MOL   O11443674   5.031   0.109   6.731  0.5893 -0.3356  0.2603
  181MOL   O11543675   4.960   7.733   6.568 -0.2946 -0.6255 -0.3188
  181MOL   H11643676   4.677   0.040   6.585 -1.2549 -0.3729  0.1685
  181MOL   H11743677   4.643   0.211   6.554  0.1060  2.2459  2.1399
  181MOL   H11843678   4.847   0.339   6.741 -0.9121 -0.3227 -0.1086
  181MOL   H11943679   4.803   0.393   6.575  0.1444  1.1217  0.1709
  181MOL   H12043680   4.962   0.366   6.609  0.5033 -1.6153  0.9108
  181MOL   H12143681   5.040   7.684   6.582 -0.4424 -1.5756 -2.6357
  181MOL   C12243682   4.842   0.177   6.417 -0.2885  0.5867  0.1166
  181MOL   C12343683   4.955   0.237   6.318 -0.1885  0.4917 -0.8720
  181MOL   C12443684   4.938   0.390   6.308 -0.3862  1.1726  0.2922
  181MOL   C12543685   5.105   0.217   6.364 -0.1457  0.3833  0.8464
  181MOL   O12643686   5.173   0.130   6.319  0.1222  0.6589  0.2089
  181MOL   O12743687   5.150   0.311   6.444  0.1466 -0.7215  0.4135
  181MOL   H12843688   4.818   0.072   6.400  1.6140 -0.0079  0.9790
  181MOL   H12943689   4.752   0.231   6.388  0.2526  1.3711 -0.1325
  181MOL   H13043690   4.954   0.458   6.392  1.9489 -0.4202  1.1684
  181MOL   H13143691   4.841   0.418   6.265  0.0243  0.6928 -0.9545
  181MOL   H13243692   5.023   0.420   6.247 -1.2841  0.8432 -1.1480
  181MOL   H13343693   5.232   0.286   6.484 -1.5254 -2.1666  3.0681
  181MOL   C13443694   4.955   0.173   6.165  0.4789 -0.2827 -0.6552
  181MOL   C13543695   4.849   0.192   6.053 -0.1532  0.0935 -0.0284
  181MOL   C13643696   4.708   0.166   6.105  0.2049 -0.1526 -0.2267
  181MOL   C13743697   4.854   0.339   5.998 -0.4771 -0.9618  0.4352
  181MOL   O13843698   4.758   0.418   6.007  0.0122 -0.1984  0.2482
  181MOL   O13943699   4.969   0.368   5.933 -0.1694 -0.2793 -0.2527
  181MOL   H14043700   5.050   0.197   6.118 -0.1986  0.5910 -1.6321
  181MOL   H14143701   4.961   0.066   6.180  0.7298 -0.1893 -0.0792
  181MOL   H14243702   4.651   0.137   6.016  1.6382  0.7048 -1.4494
  181MOL   H14343703   4.662   0.248   6.161  2.3612 -0.4633  2.1013
  181MOL   H14443704   4.701   0.074   6.163 -2.5584  0.0368 -0.1673
  181MOL   H14543705   4.977   0.457   5.901 -0.6718  0.5337  1.7852
  181MOL   C14643706   4.887   0.089   5.939 -0.2646  0.3552 -0.1159
  181MOL   C14743707   4.807   0.054   5.803 -0.3789 -0.7175 -0.6309
  181MOL   C14843708   4.743   0.179   5.747  0.3166  0.2568 -0.4122
  181MOL   C14943709   4.925   0.014   5.709 -0.5288  0.3172 -0.5914
  181MOL   O15043710   4.963   0.078   5.612  0.1556 -0.2691  0.5060
  181MOL   O15143711   4.981   7.660   5.734 -0.4806 -0.3887 -0.2433
  181MOL   H15243712   4.991   0.106   5.910  0.1021 -0.7568  0.4783
  181MOL   H15343713   4.904   7.762   5.992  1.6064  1.6976  1.7799
  181MOL   H15443714   4.666   0.211   5.816 -1.6161  0.1236 -2.4438
  181MOL   H15543715   4.697   0.156   5.650 -2.3278  2.1276  0.3441
  181MOL   H15643716   4.815   0.258   5.728  2.1333 -1.2680 -0.0408
  181MOL   H15743717   4.933   7.613   5.800 -0.5324 -0.6895 -0.4945
  181MOL   C15843718   4.695   7.708   5.826  0.2292 -0.1262  0.9242
  181MOL   C15943719   4.640   7.602   5.713 -0.4466 -0.7779 -0.5831
  181MOL   C16043720   4.647   7.651   5.570 -0.0787 -0.3713 -0.4111
  181MOL   C16143721   4.729   7.470   5.716 -0.5340  0.2840 -0.0243
  181MOL   O16243722   4.831   7.454   5.784 -0.1950  0.7967  0.4434
  181MOL   O16343723   4.677   7.371   5.635  0.0183 -0.3635  0.0831
  181MOL   H16443724   4.725   7.648   5.913  0.2423 -0.3520  0.7638
  181MOL   H16543725   4.603   7.757   5.859 -1.0598 -2.3432  0.7009
  181MOL   H16643726   4.607   7.751   5.553 -0.5814 -0.2930  1.1652
  181MOL   H16743727   4.593   7.589   5.499  0.8353 -0.9135 -0.6395
  181MOL   H16843728   4.750   7.667   5.536 -1.0905  4.6004 -1.5330
  181MOL   H16943729   4.729   7.293   5.642  1.2445  0.4027 -0.3090
  181MOL   C17043730   4.494   7.561   5.749  0.3366  0.3009  0.7918
  181MOL   C17143731   4.362   7.650   5.782 -0.7063  0.1874 -0.2330
  181MOL   C17243732   4.363   7.693   5.938 -0.4935  0.4135 -0.3813
  181MOL   C17343733   4.356   0.010   5.698 -0.0624  0.3735 -0.5543
  181MOL   O17443734   4.370   0.119   5.749 -0.6502 -0.2010  0.1401
  181MOL   O17543735   4.358   7.754   5.563  0.3303  0.0589  0.0696
  181MOL   H17643736   4.464   7.486   5.677  0.8162 -0.2313  1.1461
  181MOL   H17743737   4.507   7.504   5.841  1.5643  0.6880  0.8730
  181MOL   H17843738   4.264   7.735   5.954  0.5606  2.3288  1.4279
  181MOL   H17943739   4.429   0.009   5.963  0.7403 -0.3987 -0.8607
  181MOL   H18043740   4.362   7.607   6.005  0.0614 -0.1182 -1.0472
  181MOL   H18143741   4.375   7.665   5.536 -0.2030 -0.2263  0.6706
  181MOL   C18243742   4.226   7.572   5.756 -0.1072 -0.5199 -0.2636
  181MOL   C18343743   4.182   7.430   5.819  0.5416  0.1449  0.0888
  181MOL   C18443744   4.182   7.440   5.973 -0.4411  0.0477  0.3571
  181MOL   C18543745   4.044   7.398   5.758  0.2495  0.1397  0.5523
  181MOL   O18643746   4.024   7.372   5.642 -0.3149 -0.3759  0.2815
  181MOL   O18743747   3.948   7.411   5.850 -0.0918  0.0185  0.3764
  181MOL   H18843748   4.139   7.634   5.779  0.1131  0.1422 -1.2108
  181MOL   H18943749   4.224   7.565   5.648 -0.3529 -1.2383 -0.2152
  181MOL   H19043750   4.111   7.368   6.013  0.2490  0.1757  1.8763
  181MOL   H19143751   4.146   7.541   5.994  2.1292  0.9109  0.8129
  181MOL   H19243752   4.282   7.422   6.014  0.4349 -1.9635 -2.4801
  181MOL   H19343753   3.865   7.397   5.806  1.5856 -1.0847 -2.5904
  181MOL   C19443754   4.289   7.320   5.775  1.0833  0.0373  0.1214
  181MOL   C19543755   4.271   7.160   5.773  0.2811 -0.0599 -0.6267
  181MOL   C19643756   4.217   7.107   5.913  0.2501  0.2758  0.0583
  181MOL   C19743757   4.183   7.110   5.659 -0.4098 -0.1451 -0.3504
  181MOL   O19843758   4.088   7.042   5.679  0.0153 -0.1207  0.5058
  181MOL   O19943759   4.231   7.153   5.531 -0.0771 -0.0957  0.3136
  181MOL   H20043760   4.309   7.346   5.671 -0.7981 -0.7799 -0.4896
  181MOL   H20143761   4.368   7.333   5.848 -0.1958  0.3509  1.4837
  181MOL   H20243762   4.282   7.124   6.000  0.5469 -2.3498  0.3924
  181MOL   H20343763   4.195   7.001   5.906 -0.0243  0.1199  2.6284
  181MOL   H20443764   4.122   7.155   5.937 -0.2826 -0.1193 -1.2698
  181MOL   H20543765   4.193   7.104   5.460  1.1080  1.1079 -1.2005
  181MOL   C20643766   4.424   7.127   5.742 -0.0393  1.2533  0.2490
  181MOL   C20743767   4.493   6.982   5.754 -0.3570 -1.1331 -1.0197
  181MOL   C20843768   4.640   7.002   5.712  0.4112 -0.1561  0.1240
  181MOL   C20943769   4.484   6.941   5.909  0.3383 -0.0442  0.3376
  181MOL   O21043770   4.424   6.840   5.951  0.5081 -0.1741 -0.1427
  181MOL   O21143771   4.562   7.022   5.987  0.0386 -0.1833  0.1040
  181MOL   H21243772   4.458   7.180   5.653  0.4482 -1.7383 -1.4062
  181MOL   H21343773   4.484   7.181   5.815 -0.6174  2.8898 -0.4504
  181MOL   H21443774   4.692   7.092   5.747  2.6713 -1.0308 -0.8593
  181MOL   H21543775   4.649   6.999   5.603 -0.6304  1.1214 -0.0179
  181MOL   H21643776   4.700   6.920   5.751  0.8991 -0.2831 -0.8514
  181MOL   H21743777   4.576   6.984   6.072 -1.3936  0.0423  0.4598
  181MOL   C21843778   4.414   6.887   5.666  0.7386 -0.8785 -0.5005
  181MOL   C21943779   4.481   6.759   5.607 -0.0917  0.2209 -0.0623
  181MOL   C22043780   4.362   6.674   5.549  0.4429 -0.2483 -0.2639
  181MOL   C22143781   4.586   6.784   5.494 -1.0842 -0.2653 -0.7569
  181MOL   O22243782   4.707   6.746   5.498  0.3526 -0.1530  0.1552
  181MOL   O22343783   4.534   6.851   5.388 -0.0493 -0.5002  0.0384
  181MOL   H22443784   4.327   6.857   5.724  3.0814 -1.8986  2.5899
  181MOL   H22543785   4.379   6.943   5.579 -0.6742 -0.8575  0.0605
  181MOL   H22643786   4.316   6.624   5.634  1.9883  1.0671  1.3762
  181MOL   H22743787   4.398   6.595   5.484  1.4267  1.1208 -1.4033
  181MOL   H22843788   4.289   6.739   5.501 -2.1138 -0.3365  3.3140
  181MOL   H22943789   4.605   6.860   5.326  1.7519  1.7220  2.3406
  181MOL   C23043790   4.541   6.673   5.720  1.1967 -0.8641 -0.8738
  181MOL   C23143791   4.599   6.530   5.688 -0.2016  0.2360  0.0195
  181MOL   C23243792   4.734   6.504   5.755  0.0947 -0.6037  0.5003
  181MOL   C23343793   4.492   6.414   5.725 -0.1050  0.1211  0.2064
  181MOL   O23443794   4.402   6.381   5.647  0.3586  0.3653  0.2965
  181MOL   O23543795   4.505   6.369   5.849 -0.1594 -0.1593  0.8908
  181MOL   H23643796   4.631   6.721   5.759  0.3390  1.1055 -1.2548
  181MOL   H23743797   4.464   6.656   5.795 -1.1039  1.5850 -2.5766
  181MOL   H23843798   4.804   6.586   5.736 -0.8284 -0.2889 -1.7000
  181MOL   H23943799   4.779   6.414   5.713  0.6978 -0.3754  0.6485
  181MOL   H24043800   4.737   6.512   5.864 -0.0646  2.6303  0.3175
  181MOL   H24143801   4.574   6.411   5.898  1.5160 -0.9391 -0.7165
  181MOL   H24243802   4.624   6.519   5.582  0.3254 -2.8667  0.4067
  182MOL     C143803   2.165   0.395   0.708 -0.1647  0.1807  0.1315
  182MOL     C243804   2.301   0.395   0.641 -0.0365 -0.1973 -0.4126
  182MOL     C343805   2.303   0.299   0.521  0.4803 -0.0083 -0.8327
  182MOL     C443806   2.329   0.543   0.592 -0.5664 -0.5663 -0.4710
  182MOL     O543807   2.426   0.612   0.628 -0.9862  0.1095  0.9690
  182MOL     O643808   2.230   0.585   0.509  0.2160 -0.6654 -0.0257
  182MOL     H743809   2.088   0.409   0.633 -1.4076 -1.3235  1.1085
  182MOL     H843810   2.156   0.476   0.781 -0.0541  0.2280  0.0932
  182MOL     H943811   2.256   0.205   0.550 -1.1166  1.2592  0.8648
  182MOL    H1043812   2.403   0.282   0.483  0.9939  1.5218 -0.2219
  182MOL    H1143813   2.248   0.334   0.433  0.2976 -1.0159 -1.1226
  182MOL    H1243814   2.252   0.673   0.485 -2.1166 -0.2594 -0.8361
  182MOL    H1343815   2.149   0.296   0.751  0.3363 -0.0938 -0.3103
  182MOL    C1443816   2.422   0.353   0.735 -0.2272 -0.4388  0.0102
  182MOL    C1543817   2.428   0.364   0.894  0.6141 -0.1924  0.3748
  182MOL    C1643818   2.424   0.514   0.924  0.8433 -0.5859  0.0139
  182MOL    C1743819   2.307   0.293   0.973  0.1834  0.4942 -0.5536
  182MOL    O1843820   2.238   0.352   1.057 -0.5292  0.0131  0.6934
  182MOL    O1943821   2.298   0.167   0.929  0.1151 -0.2591 -0.8652
  182MOL    H2043822   2.436   0.245   0.723  1.1109 -0.1757 -1.0313
  182MOL    H2143823   2.511   0.397   0.689  0.9629 -2.8610 -0.1228
  182MOL    H2243824   2.497   0.569   0.865  0.2307  0.0739 -0.1453
  182MOL    H2343825   2.419   0.547   1.028 -0.1928  1.6345 -0.7124
  182MOL    H2443826   2.327   0.555   0.895  0.0782 -2.2200  0.1958
  182MOL    H2543827   2.258   0.110   0.994  2.0314  0.0812  0.6735
  182MOL    C2643828   2.566   0.312   0.945  0.1929  0.5789  0.7676
  182MOL    C2743829   2.608   0.306   1.104 -0.2668  0.4001 -0.1435
  182MOL    C2843830   2.585   0.435   1.174  0.2631  0.4105  0.0755
  182MOL    C2943831   2.529   0.193   1.181  0.1364  0.4134 -0.0920
  182MOL    O3043832   2.479   0.205   1.291 -0.5260 -0.5537  0.2290
  182MOL    O3143833   2.527   0.072   1.119  0.1400  0.0987 -0.6263
  182MOL    H3243834   2.578   0.209   0.911  1.1952  0.6973  0.7561
  182MOL    H3343835   2.641   0.371   0.894 -0.7254  1.6985  0.6932
  182MOL    H3443836   2.483   0.465   1.199  1.1973  3.9742 -0.1643
  182MOL    H3543837   2.625   0.519   1.118  0.7226  0.9343  1.1697
  182MOL    H3643838   2.638   0.446   1.269 -2.1165 -0.3066  1.5276
  182MOL    H3743839   2.484   0.015   1.181 -2.8557  2.2144 -0.6849
  182MOL    C3843840   2.762   0.260   1.096  0.1331 -0.1825 -0.0620
  182MOL    C3943841   2.846   0.192   1.217 -0.2448 -0.4800 -0.4813
  182MOL    C4043842   2.823   0.274   1.342  0.1310 -0.1001  1.0178
  182MOL    C4143843   2.809   0.042   1.245  0.1531 -0.1649  0.7871
  182MOL    O4243844   2.789   7.721   1.163 -0.0738 -0.4997 -0.2411
  182MOL    O4343845   2.823   0.019   1.369 -0.4073  0.2708  0.0152
  182MOL    H4443846   2.778   0.209   1.001 -1.5365 -2.2790  0.7579
  182MOL    H4543847   2.824   0.346   1.071  1.8318 -2.0028 -2.4098
  182MOL    H4643848   2.850   0.375   1.312  2.9274 -1.0838  0.0988
  182MOL    H4743849   2.880   0.246   1.430  0.5257  0.6452  1.0044
  182MOL    H4843850   2.715   0.279   1.355  0.0335 -1.5169  0.7496
  182MOL    H4943851   2.846   0.097   1.418  2.1150  0.8625 -2.0156
  182MOL    C5043852   3.005   0.194   1.205 -0.1735  0.2420 -0.3136
  182MOL    C5143853   3.101   0.171   1.075  0.3455  0.3173  0.2041
  182MOL    C5243854   3.040   0.039   1.017  0.5571  0.7562  0.1802
  182MOL    C5343855   3.096   0.292   0.976 -0.5203  0.1331 -0.0668
  182MOL    O5443856   3.082   0.409   1.004 -0.4831  0.1645 -0.8233
  182MOL    O5543857   3.097   0.251   0.848 -0.0345 -0.1667 -0.0121
  182MOL    H5643858   3.040   0.290   1.244 -0.0727 -0.3608  1.0721
  182MOL    H5743859   3.043   0.131   1.285 -0.9453  0.8097  0.5045
  182MOL    H5843860   3.098   7.764   0.935  1.6422  1.9604  0.3146
  182MOL    H5943861   2.938   0.058   0.982 -0.0651 -0.8552  1.0604
  182MOL    H6043862   3.046   7.727   1.092 -1.3345  3.3381  3.1529
  182MOL    H6143863   3.075   0.330   0.801 -1.3482 -0.3674  0.2363
  182MOL    C6243864   3.247   0.154   1.133  0.3312  0.0931 -0.3031
  182MOL    C6343865   3.384   0.127   1.060 -0.0218  1.0197 -0.8750
  182MOL    C6443866   3.368   0.022   0.942 -0.0018  0.7964 -0.3490
  182MOL    C6543867   3.452   0.255   1.002  0.0727 -0.4682 -0.3642
  182MOL    O6643868   3.396   0.369   1.000 -0.7931 -0.0485 -0.3207
  182MOL    O6743869   3.581   0.235   0.965 -0.3689 -1.4240 -0.2853
  182MOL    H6843870   3.268   0.237   1.201  1.0851 -1.5758  1.5582
  182MOL    H6943871   3.236   0.073   1.206 -1.2904  1.5261  1.1039
  182MOL    H7043872   3.304   7.701   0.954  0.3295  0.4184 -1.3236
  182MOL    H7143873   3.461   7.742   0.911 -0.2689 -0.9240  1.3828
  182MOL    H7243874   3.329   0.064   0.849  2.2589  0.7289 -1.3440
  182MOL    H7343875   3.620   0.317   0.938 -1.3497 -0.4264  1.2373
  182MOL    C7443876   3.482   0.053   1.163 -0.3770  0.3179 -0.2399
  182MOL    C7543877   3.533   0.103   1.304 -0.2005  0.5151  0.3254
  182MOL    C7643878   3.632   7.756   1.350  0.7452  0.6230  0.2848
  182MOL    C7743879   3.612   0.238   1.289  0.0840  0.0724  0.0396
  182MOL    O7843880   3.581   0.348   1.332 -0.0970  0.1925 -0.3026
  182MOL    O7943881   3.731   0.216   1.230 -0.4559  0.0228  0.5533
  182MOL    H8043882   3.436   7.722   1.174  2.0015 -0.8353 -0.2859
  182MOL    H8143883   3.572   0.030   1.106 -0.1025  0.4502  0.1393
  182MOL    H8243884   3.567   7.669   1.364  0.1631  0.8539 -0.9310
  182MOL    H8343885   3.691   0.006   1.440 -0.1857 -0.8826  1.2114
  182MOL    H8443886   3.707   7.726   1.276  1.7280 -1.6441  2.1241
  182MOL    H8543887   3.791   0.286   1.253  0.0119 -0.6503  1.4255
  182MOL    C8643888   3.418   0.111   1.408  0.2051 -0.6757  0.0025
  182MOL    C8743889   3.434   0.113   1.563  0.2963  0.0048 -0.4816
  182MOL    C8843890   3.445   7.732   1.612  0.6320 -0.7418  0.0027
  182MOL    C8943891   3.557   0.193   1.611  0.4014 -0.4291 -0.1398
  182MOL    O9043892   3.653   0.147   1.655  0.4391  0.6710  0.6761
  182MOL    O9143893   3.537   0.331   1.613  0.0614  0.1377  0.3283
  182MOL    H9243894   3.357   0.198   1.382 -0.1180 -0.3161  1.9251
  182MOL    H9343895   3.365   0.021   1.377 -3.5753  1.8976 -1.3883
  182MOL    H9443896   3.365   7.671   1.569  0.0882  0.2544 -0.3988
  182MOL    H9543897   3.438   7.723   1.720 -0.5976 -0.7686 -0.0738
  182MOL    H9643898   3.541   7.687   1.588  1.3690  0.5173  0.5578
  182MOL    H9743899   3.449   0.352   1.587 -0.2426 -0.7441  0.6304
  182MOL    C9843900   3.302   0.178   1.609 -0.2952 -0.1877  0.7152
  182MOL    C9943901   3.245   0.184   1.753 -0.9653  0.5643  0.2028
  182MOL   C10043902   3.354   0.208   1.866 -0.1374 -0.2914  0.1691
  182MOL   C10143903   3.141   0.298   1.747 -0.6556  1.1339  0.2697
  182MOL   O10243904   3.157   0.394   1.816 -0.1045  0.2882  0.0665
  182MOL   O10343905   3.043   0.283   1.655 -0.1163 -1.2986 -0.0769
  182MOL   H10443906   3.299   0.279   1.567  1.5775  0.1700  1.4246
  182MOL   H10543907   3.222   0.131   1.551 -0.7200 -0.0881  1.2171
  182MOL   H10643908   3.319   0.207   1.969 -0.3065  1.9642  0.1617
  182MOL   H10743909   3.404   0.305   1.857 -0.2092 -0.4195 -1.8033
  182MOL   H10843910   3.431   0.131   1.858  1.6657  1.3485  1.0666
  182MOL   H10943911   2.978   0.347   1.680  2.9478  0.9418  2.6157
  182MOL   C11043912   3.189   0.044   1.791 -0.0632  0.4781  0.2930
  182MOL   C11143913   3.054   0.021   1.869 -0.2853  0.2622 -0.3226
  182MOL   C11243914   3.034   0.121   1.984  0.4203 -0.5321  0.3287
  182MOL   C11343915   2.926   0.025   1.781  0.2032 -0.4320  0.5926
  182MOL   O11443916   2.933   0.018   1.657 -0.0686  0.2167  0.6705
  182MOL   O11543917   2.807   0.029   1.844 -0.0991 -0.1858  0.3636
  182MOL   H11643918   3.202   7.731   1.717  2.4966  0.0890  1.0963
  182MOL   H11743919   3.250   0.002   1.871 -0.2094  0.0770  0.1957
  182MOL   H11843920   2.964   0.081   2.057 -2.4331  0.8066 -1.5576
  182MOL   H11943921   2.972   0.209   1.965  1.3569  0.5633  2.2041
  182MOL   H12043922   3.121   0.162   2.035 -0.2965 -1.0344  1.9843
  182MOL   H12143923   2.740   0.048   1.781 -0.8052 -0.7805  0.9248
  182MOL   C12243924   3.068   7.653   1.950  0.5852  1.7111  0.5506
  182MOL   C12343925   3.112   7.509   1.892  0.9616 -0.7199 -0.2198
  182MOL   C12443926   3.029   7.470   1.759  0.0132  0.1400 -0.0385
  182MOL   C12543927   3.267   7.503   1.863  0.0112 -0.2847  0.1657
  182MOL   O12643928   3.309   7.470   1.752 -0.3806 -0.3618  0.3615
  182MOL   O12743929   3.351   7.547   1.965  0.2300  0.1243  0.2481
  182MOL   H12843930   3.141   7.661   2.030  0.9640 -0.5738  0.4720
  182MOL   H12943931   2.977   7.630   2.005  1.4518  0.6410  1.5646
  182MOL   H13043932   3.042   7.545   1.681 -0.7369  0.1952 -0.1169
  182MOL   H13143933   2.923   7.465   1.783  0.1064 -0.0168  0.3374
  182MOL   H13243934   3.059   7.369   1.730 -0.8956 -0.5586  1.4306
  182MOL   H13343935   3.438   7.524   1.935  0.7479 -2.7310  3.7010
  182MOL   C13443936   3.062   7.393   1.993 -0.2447  0.2614 -0.1297
  182MOL   C13543937   3.070   7.387   2.150 -0.4245  0.3904  0.1318
  182MOL   C13643938   3.057   7.245   2.179 -0.1646  0.1219 -0.3417
  182MOL   C13743939   3.209   7.429   2.200  0.4310  0.4605  0.1370
  182MOL   O13843940   3.300   7.348   2.220 -0.1607 -0.3577  0.3177
  182MOL   O13943941   3.215   7.562   2.237 -0.3270  0.5175 -0.1398
  182MOL   H14043942   2.960   7.364   1.968 -0.7554  2.6252 -0.9667
  182MOL   H14143943   3.123   7.310   1.957  0.6197  1.0335 -0.4762
  182MOL   H14243944   2.963   7.196   2.154  0.2418 -0.3330 -0.9753
  182MOL   H14343945   3.058   7.234   2.288 -1.6182  0.6463 -0.2622
  182MOL   H14443946   3.133   7.188   2.126  1.3920  2.1732 -0.3746
  182MOL   H14543947   3.299   7.573   2.279  0.0037  0.6444 -0.8292
  182MOL   C14643948   2.955   7.468   2.223  0.2121  0.1016 -1.0353
  182MOL   C14743949   2.905   7.460   2.376 -0.2188  0.0432 -0.7664
  182MOL   C14843950   3.024   7.463   2.480  0.0409 -0.4940 -0.1952
  182MOL   C14943951   2.816   7.589   2.405 -0.1266 -0.5033  0.1661
  182MOL   O15043952   2.707   7.581   2.465 -0.8405  0.5752  0.9869
  182MOL   O15143953   2.879   7.706   2.385 -0.0153 -0.3503  0.2654
  182MOL   H15243954   2.981   7.573   2.211 -2.0632  0.8168  0.0779
  182MOL   H15343955   2.866   7.469   2.161  0.7410  0.7074 -1.7936
  182MOL   H15443956   3.079   7.368   2.485  2.3869  0.8030 -0.4431
  182MOL   H15543957   2.988   7.471   2.582  1.0175  0.4982  0.0849
  182MOL   H15643958   3.086   7.550   2.459  1.1165 -0.9536  0.9741
  182MOL   H15743959   2.839   0.005   2.438 -0.0464  0.0097 -0.2029
  182MOL   C15843960   2.804   7.336   2.395 -0.0048  0.3660  0.4147
  182MOL   C15943961   2.766   7.253   2.526 -0.1245 -0.4343  0.2737
  182MOL   C16043962   2.659   7.154   2.468 -0.3119 -0.9903 -0.0158
  182MOL   C16143963   2.893   7.168   2.575 -0.4205  0.2873 -0.0385
  182MOL   O16243964   2.941   7.167   2.691 -0.1910  0.0346  0.1364
  182MOL   O16343965   2.941   7.095   2.472  0.2722 -0.1944 -0.3468
  182MOL   H16443966   2.718   7.354   2.331  1.0770  0.9377 -0.8917
  182MOL   H16543967   2.840   7.261   2.325  0.6452  1.6348 -0.6352
  182MOL   H16643968   2.637   7.074   2.539  1.4289 -0.8935  0.6452
  182MOL   H16743969   2.680   7.109   2.372 -0.2471  1.7930 -1.3574
  182MOL   H16843970   2.562   7.201   2.449  1.6447  3.2731 -0.0232
  182MOL   H16943971   3.009   7.043   2.512  0.0584 -1.1805 -1.2605
  182MOL   C17043972   2.691   7.344   2.635  0.3830  0.7671  0.4072
  182MOL   C17143973   2.662   7.306   2.788 -0.3244  0.0565 -0.7009
  182MOL   C17243974   2.602   7.160   2.785  0.3575 -0.0639  0.8673
  182MOL   C17343975   2.789   7.309   2.868  0.1775  0.0914 -0.1913
  182MOL   O17443976   2.819   7.217   2.946  0.0292 -0.2311  0.4041
  182MOL   O17543977   2.870   7.409   2.842 -0.0984 -0.3760  0.1397
  182MOL   H17643978   2.740   7.441   2.640  0.5168  0.8167 -1.4541
  182MOL   H17743979   2.590   7.361   2.598 -0.2304 -2.7884  0.2354
  182MOL   H17843980   2.558   7.134   2.881 -0.4023 -0.2467  0.4702
  182MOL   H17943981   2.672   7.078   2.765  1.0148  0.3298  1.5102
  182MOL   H18043982   2.512   7.167   2.724 -1.1222 -2.9399  2.5788
  182MOL   H18143983   2.841   7.488   2.799  0.1481 -0.4227 -0.1131
  182MOL   C18243984   2.545   7.402   2.849  0.2078  0.0337  0.6603
  182MOL   C18343985   2.539   7.458   2.994  0.8009  0.0405  0.5709
  182MOL   C18443986   2.556   7.344   3.095 -0.5321 -0.4574 -0.0887
  182MOL   C18543987   2.659   7.555   3.019 -0.8292 -1.1425 -0.3012
  182MOL   O18643988   2.726   7.612   2.930  0.5655 -0.1522  0.2363
  182MOL   O18743989   2.704   7.568   3.150 -0.1012 -0.2285  0.1899
  182MOL   H18843990   2.538   7.491   2.786  0.1691  0.1678  0.8561
  182MOL   H18943991   2.444   7.362   2.840  0.4825 -0.7886  1.2163
  182MOL   H19043992   2.536   7.379   3.196 -1.3057 -1.3988  0.0924
  182MOL   H19143993   2.651   7.290   3.093  0.8806  1.8331  2.5508
  182MOL   H19243994   2.473   7.275   3.080 -1.1899  0.4745 -0.7488
  182MOL   H19343995   2.791   7.602   3.135  0.2515 -1.3187 -0.2448
  182MOL   C19443996   2.395   7.524   3.033 -0.2345 -0.2467 -0.4170
  182MOL   C19543997   2.359   7.679   3.026 -0.7886  0.2449 -0.2441
  182MOL   C19643998   2.210   7.690   3.054 -0.1105  0.0716  0.9547
  182MOL   C19743999   2.425   7.760   3.144  0.1271  0.4213  0.9837
  182MOL   O19844000   2.368   0.008   3.253 -0.1559 -0.4613 -0.1350
  182MOL   O19944001   2.545   0.053   3.116  0.8021  0.4561  0.1033
  182MOL   H20044002   2.325   7.456   2.983 -0.4599 -1.3334  1.3273
  182MOL   H20144003   2.367   7.507   3.137  0.7967  1.0472  0.0884
  182MOL   H20244004   2.181   7.646   3.149 -0.9998 -0.2411  0.5419
  182MOL   H20344005   2.145   7.659   2.972  0.6196  1.9627 -0.3705
  182MOL   H20444006   2.175   0.025   3.059 -2.7330 -0.8116  1.1117
  182MOL   H20544007   2.580   0.102   3.189 -2.1905  0.9876  1.2504
  182MOL   C20644008   2.403   7.746   2.887  0.4838 -0.4188  0.1683
  182MOL   C20744009   2.325   7.749   2.746  0.7336 -0.6081 -0.9124
  182MOL   C20844010   2.268   7.608   2.712  0.1008 -0.0561 -0.4645
  182MOL   C20944011   2.200   0.075   2.751  0.6075 -0.0790 -0.1960
  182MOL   O21044012   2.176   0.152   2.846 -0.2307  0.0184 -0.1631
  182MOL   O21144013   2.118   0.059   2.639 -0.0232  0.2451 -0.1592
  182MOL   H21244014   2.429   0.083   2.903  1.0996 -0.7767  1.5789
  182MOL   H21344015   2.501   7.708   2.856  0.8110  1.3203 -1.0029
  182MOL   H21444016   2.349   7.535   2.706  1.6271  1.6167 -0.6166
  182MOL   H21544017   2.221   7.596   2.615 -2.3449  1.0366  0.5632
  182MOL   H21644018   2.204   7.575   2.793 -0.1394 -2.3912 -1.5570
  182MOL   H21744019   2.070   0.139   2.626 -0.2033  0.5110  1.9451
  182MOL   C21844020   2.420   0.028   2.623  0.6574  0.3395 -0.3172
  182MOL   C21944021   2.514   0.154   2.623 -0.2562 -0.8492 -0.0690
  182MOL   C22044022   2.448   0.286   2.665 -0.2936 -0.0180 -0.6306
  182MOL   C22144023   2.629   0.134   2.726 -0.4001 -0.1718  0.3499
  182MOL   O22244024   2.656   0.215   2.812  0.5574 -0.4254  0.0036
  182MOL   O22344025   2.699   0.012   2.704 -0.1690 -0.4127  0.6748
  182MOL   H22444026   2.487   7.711   2.606 -1.1799 -0.9331 -1.4243
  182MOL   H22544027   2.355   0.022   2.536 -0.6155  1.8648  0.5034
  182MOL   H22644028   2.424   0.290   2.772  0.5759 -1.4622 -0.3594
  182MOL   H22744029   2.349   0.305   2.623 -1.7216  0.3010  2.7037
  182MOL   H22844030   2.507   0.372   2.635 -0.9718 -0.2231 -2.6051
  182MOL   H22944031   2.764   7.765   2.771  0.4355 -0.2337  0.1422
  182MOL   C23044032   2.592   0.176   2.489 -0.0332 -0.0422  0.3439
  182MOL   C23144033   2.530   0.249   2.365  0.4213  0.1833  0.2486
  182MOL   C23244034   2.637   0.292   2.261  0.3137 -0.2454 -0.0956
  182MOL   C23344035   2.420   0.170   2.292 -0.3228 -0.2137  0.1947
  182MOL   O23444036   2.447   0.102   2.193 -0.0206  0.2438 -0.2881
  182MOL   O23544037   2.300   0.206   2.337 -0.0243 -0.1558 -0.0286
  182MOL   H23644038   2.692   0.217   2.503  0.2573 -0.9798  1.1396
  182MOL   H23744039   2.616   0.075   2.458 -3.1126 -1.0331  1.0123
  182MOL   H23844040   2.587   0.330   2.172 -1.7717  1.5843  1.8077
  182MOL   H23944041   2.697   0.204   2.236  0.4243 -0.4570  0.8993
  182MOL   H24044042   2.710   0.359   2.306  0.3657 -0.5130  0.2266
  182MOL   H24144043   2.238   0.154   2.288  1.2820 -1.2452 -0.5750
  182MOL   H24244044   2.476   0.334   2.408  1.5515 -0.1618  2.4336
  183MOL     C144045   4.299   4.221   2.828  0.1382 -0.4678 -0.2477
  183MOL     C244046   4.322   4.293   2.685  0.5755 -0.3082  0.0685
  183MOL     C344047   4.310   4.442   2.717  0.1557  0.7612  0.5339
  183MOL     C444048   4.462   4.245   2.636 -0.4243  0.2120  0.2041
  183MOL     O544049   4.488   4.125   2.607 -0.1491 -0.0380  0.0431
  183MOL     O644050   4.557   4.343   2.641 -0.3015 -0.5110  0.0493
  183MOL     H744051   4.383   4.244   2.893  1.4467  0.5137 -2.2368
  183MOL     H844052   4.302   4.113   2.817 -0.7267 -0.2472 -2.9403
  183MOL     H944053   4.343   4.508   2.637 -0.1246  0.4087  0.1323
  183MOL    H1044054   4.377   4.466   2.800  0.2651  0.9034  0.4040
  183MOL    H1144055   4.212   4.483   2.739  0.4255  2.5242 -1.3736
  183MOL    H1244056   4.639   4.303   2.614  0.5598  1.2532 -0.0501
  183MOL    H1344057   4.202   4.238   2.876  0.7381  0.6824  0.5950
  183MOL    C1444058   4.203   4.244   2.596  0.3567 -0.0105  0.4324
  183MOL    C1544059   4.140   4.324   2.481  0.0527  0.1954 -0.5027
  183MOL    C1644060   4.042   4.439   2.536  0.1435  0.0984  0.0405
  183MOL    C1744061   4.247   4.392   2.393  0.6646 -0.1180 -0.2689
  183MOL    O1844062   4.240   4.511   2.359 -0.5515  0.0696 -0.0148
  183MOL    O1944063   4.337   4.301   2.354  0.1308 -0.4407  0.2385
  183MOL    H2044064   4.236   4.146   2.562  0.4891  0.0807  0.2949
  183MOL    H2144065   4.116   4.225   2.659  0.2112 -0.6601  0.0371
  183MOL    H2244066   4.104   4.522   2.567  0.2162  0.6187 -1.4490
  183MOL    H2344067   3.986   4.405   2.623 -0.6607  0.0954 -0.4720
  183MOL    H2444068   3.964   4.471   2.467 -1.9510 -0.6640  1.9819
  183MOL    H2544069   4.395   4.351   2.299 -0.6731 -2.7693 -2.9004
  183MOL    C2644070   4.037   4.231   2.399 -0.0413  0.1404  0.6123
  183MOL    C2744071   4.054   4.073   2.368  0.3551 -0.4857  0.7325
  183MOL    C2844072   4.179   4.031   2.284  0.0373 -0.1929 -0.0348
  183MOL    C2944073   4.049   3.991   2.497 -0.4100 -0.6691  0.2631
  183MOL    O3044074   3.967   4.019   2.579  0.1923  0.2518  0.3466
  183MOL    O3144075   4.147   3.901   2.517  0.2955 -0.9426 -0.2539
  183MOL    H3244076   3.938   4.252   2.440 -0.1806  0.6205  0.0313
  183MOL    H3344077   4.027   4.280   2.302 -0.4685 -0.3205  0.4199
  183MOL    H3444078   4.188   4.101   2.201 -2.5913 -0.3918 -0.5537
  183MOL    H3544079   4.187   3.926   2.259  4.6654 -0.0684  0.4742
  183MOL    H3644080   4.260   4.047   2.355  0.0423  1.5710 -0.4186
  183MOL    H3744081   4.137   3.854   2.599 -0.2392  0.9762  0.8204
  183MOL    C3844082   3.924   4.043   2.283  0.4178  0.2943 -0.1252
  183MOL    C3944083   3.884   3.915   2.209  0.6699 -0.9932 -0.1202
  183MOL    C4044084   3.971   3.912   2.080  0.3978 -0.3330  0.1826
  183MOL    C4144085   3.918   3.793   2.291  0.1026 -0.1911 -0.3987
  183MOL    O4244086   4.003   3.708   2.260 -0.2802  0.1886 -0.0967
  183MOL    O4344087   3.838   3.785   2.402 -0.8372 -0.3100  0.1264
  183MOL    H4444088   3.843   4.058   2.356  0.0740  0.3117 -0.5078
  183MOL    H4544089   3.913   4.132   2.220  2.2687  2.1670  2.1006
  183MOL    H4644090   4.075   3.889   2.101  0.6450 -0.4446 -1.0881
  183MOL    H4744091   3.968   4.002   2.018  0.6363  1.0601  2.1600
  183MOL    H4844092   3.934   3.835   2.012 -1.8819  0.2732  0.6888
  183MOL    H4944093   3.860   3.710   2.456 -2.6854 -0.2401  1.0044
  183MOL    C5044094   3.727   3.931   2.173 -0.1904 -0.3554 -0.0251
  183MOL    C5144095   3.630   3.820   2.112  0.0808  0.0018  0.5765
  183MOL    C5244096   3.684   3.784   1.971 -0.3571 -0.0231 -0.3341
  183MOL    C5344097   3.619   3.693   2.194  0.1094  0.2924 -0.3326
  183MOL    O5444098   3.621   3.579   2.146  0.0092 -0.3357 -0.1574
  183MOL    O5544099   3.593   3.720   2.325 -0.0953  0.1374 -0.8776
  183MOL    H5644100   3.684   3.966   2.267 -2.1443  0.4497 -1.1949
  183MOL    H5744101   3.719   4.021   2.113  0.8051  1.1032  1.9702
  183MOL    H5844102   3.617   3.712   1.925 -1.6109 -0.4241  2.0310
  183MOL    H5944103   3.777   3.729   1.975 -1.2763 -1.5617  0.5643
  183MOL    H6044104   3.694   3.874   1.910 -3.5377  0.7278  0.1283
  183MOL    H6144105   3.591   3.636   2.368  2.9072  0.5595  0.1665
  183MOL    C6244106   3.484   3.881   2.098 -0.8250 -0.8829 -0.1139
  183MOL    C6344107   3.347   3.805   2.058  0.0501  0.1356  0.2945
  183MOL    C6444108   3.243   3.919   2.062 -0.2012  0.6268 -0.1360
  183MOL    C6544109   3.359   3.753   1.909  0.2319  0.2537 -0.2548
  183MOL    O6644110   3.376   3.638   1.876  0.0068  0.5927  0.1462
  183MOL    O6744111   3.350   3.854   1.820  0.4667  0.1263  0.3547
  183MOL    H6844112   3.462   3.907   2.201  0.8415 -1.9783  0.5401
  183MOL    H6944113   3.501   3.964   2.030 -0.3279 -1.8005 -1.1372
  183MOL    H7044114   3.218   3.964   2.158  0.7012  2.7011 -0.8562
  183MOL    H7144115   3.148   3.891   2.017 -0.7176  2.4230 -0.1854
  183MOL    H7244116   3.261   4.006   1.998 -0.5479  0.6062 -0.2587
  183MOL    H7344117   3.371   3.815   1.736  1.4493 -0.5392  0.8938
  183MOL    C7444118   3.310   3.686   2.160  0.0226  0.2551  0.3581
  183MOL    C7544119   3.164   3.645   2.201 -0.1050 -0.9886  0.2189
  183MOL    C7644120   3.107   3.755   2.284  1.0141  0.2069  0.6416
  183MOL    C7744121   3.072   3.629   2.070 -0.5930 -0.1472  0.3971
  183MOL    O7844122   2.978   3.708   2.037  0.2836  0.2496  0.0520
  183MOL    O7944123   3.124   3.537   1.983 -0.7284 -0.5895  0.2504
  183MOL    H8044124   3.358   3.592   2.129 -1.2266 -0.4229  0.4462
  183MOL    H8144125   3.362   3.710   2.252 -1.0499  3.6146  0.1246
  183MOL    H8244126   3.025   3.717   2.344  0.0787  1.7405  0.3680
  183MOL    H8344127   3.067   3.837   2.224  0.5605 -0.4546  0.0378
  183MOL    H8444128   3.184   3.806   2.342  1.4505 -0.4965  0.6813
  183MOL    H8544129   3.065   3.539   1.909 -0.6818  0.9782  0.2305
  183MOL    C8644130   3.163   3.524   2.310 -0.0206  0.2194 -0.2912
  183MOL    C8744131   3.239   3.382   2.296 -0.0014  0.6668  0.1259
  183MOL    C8844132   3.196   3.310   2.166 -0.1658 -0.1070 -0.5077
  183MOL    C8944133   3.391   3.395   2.304  0.7595 -0.3467  0.4383
  183MOL    O9044134   3.447   3.463   2.390 -0.8165 -0.4969 -0.3444
  183MOL    O9144135   3.456   3.327   2.201  0.2876  0.0733  0.3376
  183MOL    H9244136   3.186   3.564   2.409  0.6461 -0.3752 -0.1975
  183MOL    H9344137   3.059   3.505   2.334 -0.0261 -0.7736 -1.0721
  183MOL    H9444138   3.267   3.312   2.083 -0.0602 -1.1200 -0.4525
  183MOL    H9544139   3.097   3.340   2.133 -1.8701 -1.5402  3.0003
  183MOL    H9644140   3.184   3.203   2.185 -0.4782 -0.1245 -0.7969
  183MOL    H9744141   3.547   3.320   2.227  0.8145 -1.0290 -1.6511
  183MOL    C9844142   3.191   3.298   2.425 -0.5019 -0.3082 -0.6308
  183MOL    C9944143   3.219   3.147   2.465  0.1167  0.2150 -0.0394
  183MOL   C10044144   3.244   3.147   2.621 -0.4632  0.8033 -0.0007
  183MOL   C10144145   3.086   3.072   2.447 -0.1764  0.0992 -0.1595
  183MOL   O10244146   3.023   3.014   2.535  0.0397  0.3662 -0.0400
  183MOL   O10344147   3.043   3.073   2.315 -0.3523 -0.1411 -0.6855
  183MOL   H10444148   3.220   3.362   2.509 -1.2848 -0.0500 -0.5531
  183MOL   H10544149   3.084   3.315   2.426 -0.9777 -3.0445 -1.9782
  183MOL   H10644150   3.181   3.221   2.671 -0.7603  1.4563 -1.3159
  183MOL   H10744151   3.345   3.175   2.650  0.0044 -0.5819 -0.2462
  183MOL   H10844152   3.218   3.053   2.670  0.2643  0.2590 -0.6297
  183MOL   H10944153   2.961   3.026   2.314  0.3323 -1.3516 -0.8338
  183MOL   C11044154   3.341   3.084   2.384  0.2604  0.2533  0.4425
  183MOL   C11144155   3.377   2.926   2.375 -0.9464 -0.1805  0.1174
  183MOL   C11244156   3.479   2.915   2.258  0.2773  0.5177 -0.2515
  183MOL   C11344157   3.437   2.891   2.513 -0.4028  0.0789 -0.0689
  183MOL   O11444158   3.367   2.880   2.614  0.6235  0.6146 -0.1477
  183MOL   O11544159   3.565   2.856   2.502 -0.1639  0.1945  0.4804
  183MOL   H11644160   3.326   3.107   2.278 -2.0194  1.8722  1.0842
  183MOL   H11744161   3.435   3.133   2.409  1.1086 -0.6892 -0.8323
  183MOL   H11844162   3.538   2.824   2.253 -1.4056 -0.6974  1.4975
  183MOL   H11944163   3.557   2.989   2.278 -0.7020  1.1702  1.1593
  183MOL   H12044164   3.413   2.938   2.174 -0.8451 -1.8328 -0.0414
  183MOL   H12144165   3.583   2.834   2.592 -1.7781  1.1036  1.0477
  183MOL   C12244166   3.263   2.812   2.356  0.0702 -0.1997  0.2016
  183MOL   C12344167   3.285   2.669   2.293  0.1707  0.0168 -0.0311
  183MOL   C12444168   3.293   2.695   2.141 -0.9292 -0.1306 -0.3614
  183MOL   C12544169   3.423   2.603   2.333  0.0801 -0.0485  0.9908
  183MOL   O12644170   3.491   2.549   2.245 -0.3195 -0.1526 -0.1944
  183MOL   O12744171   3.445   2.588   2.466  0.0981 -0.1321 -0.4929
  183MOL   H12844172   3.207   2.796   2.448  1.6470  1.1537  1.4282
  183MOL   H12944173   3.196   2.867   2.289  0.5873 -0.4687 -0.5339
  183MOL   H13044174   3.273   2.608   2.078  0.8780  0.0415 -1.2034
  183MOL   H13144175   3.388   2.734   2.107  0.2472 -1.9849  0.7363
  183MOL   H13244176   3.221   2.770   2.109 -1.6873  0.2308  2.0661
  183MOL   H13344177   3.514   2.530   2.493 -0.4227 -0.3765  0.3377
  183MOL   C13444178   3.176   2.566   2.334  0.3423 -0.0850  0.5371
  183MOL   C13544179   3.028   2.563   2.286  0.6703 -0.2810  0.1881
  183MOL   C13644180   2.968   2.710   2.282  0.6985  0.7225 -0.2733
  183MOL   C13744181   2.995   2.487   2.156  0.1305 -0.1201  0.8336
  183MOL   O13844182   3.081   2.432   2.086 -0.0347  0.7666  0.0077
  183MOL   O13944183   2.866   2.492   2.123 -0.0570 -0.3188 -0.6734
  183MOL   H14044184   3.218   2.466   2.321 -0.1948 -0.4291  1.4272
  183MOL   H14144185   3.168   2.580   2.442 -1.9873 -1.6068  0.5967
  183MOL   H14244186   3.029   2.760   2.206 -1.4339  3.3647 -0.3199
  183MOL   H14344187   2.990   2.758   2.377  1.6192 -1.0305  0.4140
  183MOL   H14444188   2.864   2.714   2.250  1.2274 -1.5977 -2.4097
  183MOL   H14544189   2.840   2.473   2.035  2.4357  1.0742 -1.7885
  183MOL   C14644190   2.952   2.497   2.407 -0.6166 -0.1494  1.3531
  183MOL   C14744191   2.970   2.350   2.469  0.2874  0.3554 -0.1932
  183MOL   C14844192   2.831   2.321   2.530  0.1142  0.0624  0.7989
  183MOL   C14944193   3.003   2.241   2.368  0.0048 -0.9740 -0.2813
  183MOL   O15044194   3.114   2.192   2.330  0.2211 -0.1515  0.2215
  183MOL   O15144195   2.892   2.203   2.300 -0.3220  0.0398 -0.5374
  183MOL   H15244196   2.958   2.561   2.496  0.8715  0.5809  0.7500
  183MOL   H15344197   2.850   2.495   2.369  0.1165 -0.9013 -0.6283
  183MOL   H15444198   2.829   2.220   2.571  1.7256 -0.2818  0.0491
  183MOL   H15544199   2.748   2.348   2.465  0.8506  0.5513  0.0582
  183MOL   H15644200   2.799   2.389   2.609  0.2690  0.7714  0.2484
  183MOL   H15744201   2.916   2.134   2.240  0.6973 -0.3807  0.3361
  183MOL   C15844202   3.087   2.352   2.581 -0.7814 -0.5013  0.2295
  183MOL   C15944203   3.101   2.249   2.701  0.2173  0.4399 -1.0292
  183MOL   C16044204   3.006   2.291   2.824 -0.2479 -0.2466 -1.0188
  183MOL   C16144205   3.057   2.101   2.664 -0.3789 -0.1736 -0.4264
  183MOL   O16244206   2.974   2.039   2.732  0.3085 -0.8833  0.3026
  183MOL   O16344207   3.126   2.053   2.556 -0.2789 -0.2044  0.7264
  183MOL   H16444208   3.180   2.345   2.526 -0.3760  1.2964  0.6577
  183MOL   H16544209   3.084   2.449   2.630 -0.0109 -0.6023  0.4752
  183MOL   H16644210   3.013   2.399   2.836  0.2021 -0.4403  0.5170
  183MOL   H16744211   3.040   2.246   2.917  1.0623 -0.2935 -1.5089
  183MOL   H16844212   2.900   2.267   2.812 -0.6826  1.4758 -0.7598
  183MOL   H16944213   3.090   1.972   2.524 -1.0579  1.2095 -2.1293
  183MOL   C17044214   3.253   2.273   2.750 -0.0392  0.4698  0.5021
  183MOL   C17144215   3.357   2.151   2.774  0.8158 -0.4313 -0.4716
  183MOL   C17244216   3.288   2.039   2.852 -1.2022  0.4361  0.5149
  183MOL   C17344217   3.421   2.101   2.640  0.0114  0.4367 -0.5789
  183MOL   O17444218   3.418   2.160   2.532 -0.1038 -0.3820 -0.0482
  183MOL   O17544219   3.500   1.992   2.675  0.1752  0.0173  0.0870
  183MOL   H17644220   3.305   2.339   2.681 -0.2356  0.9100  0.7700
  183MOL   H17744221   3.249   2.330   2.843  0.3319 -0.4133  1.0698
  183MOL   H17844222   3.362   1.975   2.900 -0.8922  0.4109  0.0010
  183MOL   H17944223   3.225   1.975   2.791  1.4633 -0.3873 -1.4910
  183MOL   H18044224   3.230   2.081   2.934  0.9511  0.7947  1.9081
  183MOL   H18144225   3.529   1.943   2.600 -0.2086 -0.7812  0.4500
  183MOL   C18244226   3.473   2.202   2.876  0.2132 -0.3610  0.2973
  183MOL   C18344227   3.568   2.331   2.847  1.0342 -0.5016 -0.0777
  183MOL   C18444228   3.674   2.316   2.966  0.8837 -0.2434  0.3871
  183MOL   C18544229   3.644   2.322   2.714 -0.3502  0.4525  0.5691
  183MOL   O18644230   3.619   2.399   2.618 -0.4687  0.1807  0.3820
  183MOL   O18744231   3.748   2.233   2.712 -0.1029  0.1748 -0.0450
  183MOL   H18844232   3.425   2.236   2.967 -0.5811  2.2127 -1.0373
  183MOL   H18944233   3.527   2.110   2.895 -0.4029 -0.7636  0.1361
  183MOL   H19044234   3.734   2.226   2.955  1.5976  0.4873 -2.0548
  183MOL   H19144235   3.641   2.316   3.069  3.0278 -1.4919  1.1105
  183MOL   H19244236   3.745   2.398   2.957 -0.6403  0.7808 -3.7555
  183MOL   H19344237   3.800   2.237   2.633  1.5409  0.7684  1.0554
  183MOL   C19444238   3.490   2.467   2.860  0.0347  0.3750  0.1029
  183MOL   C19544239   3.543   2.611   2.903  0.1417  0.3476 -0.6817
  183MOL   C19644240   3.594   2.603   3.044  0.1433  0.5758 -0.2417
  183MOL   C19744241   3.656   2.670   2.807 -0.2882 -0.0212 -0.8416
  183MOL   O19844242   3.633   2.734   2.706  0.2834 -0.1917 -0.1233
  183MOL   O19944243   3.783   2.634   2.841  0.1253  0.8752 -0.0730
  183MOL   H20044244   3.439   2.479   2.765  0.2943 -1.4510 -0.2844
  183MOL   H20144245   3.403   2.448   2.924 -0.5764 -1.8604 -1.3460
  183MOL   H20244246   3.694   2.561   3.057  0.7727  2.4320  1.2966
  183MOL   H20344247   3.531   2.549   3.114  1.6347 -3.0876 -1.6012
  183MOL   H20444248   3.606   2.706   3.079 -0.9088  0.6281 -0.0244
  183MOL   H20544249   3.844   2.681   2.786  1.5307 -0.4472  0.3179
  183MOL   C20644250   3.424   2.716   2.893 -0.0955 -0.1084  0.2547
  183MOL   C20744251   3.283   2.716   2.964  0.4822  0.2809 -0.3799
  183MOL   C20844252   3.184   2.616   2.902  0.7473 -0.4504 -0.1405
  183MOL   C20944253   3.299   2.690   3.119 -0.2726 -0.6452  0.1439
  183MOL   O21044254   3.341   2.774   3.193  0.2743 -0.4246  0.2488
  183MOL   O21144255   3.276   2.558   3.146  0.1333 -0.1142  0.4531
  183MOL   H21244256   3.460   2.815   2.919 -1.1616  0.5679 -0.8010
  183MOL   H21344257   3.395   2.723   2.788 -0.8294  2.4678  0.6088
  183MOL   H21444258   3.106   2.665   2.843 -1.0428 -2.0361  0.8516
  183MOL   H21544259   3.120   2.560   2.970  1.7032 -0.2031  0.9867
  183MOL   H21644260   3.224   2.546   2.829 -1.5290 -1.2705 -0.6316
  183MOL   H21744261   3.287   2.534   3.236  2.3452 -2.8345 -0.4606
  183MOL   C21844262   3.214   2.863   2.937  0.3730  0.6319 -0.5420
  183MOL   C21944263   3.081   2.925   2.995  0.0374 -0.3718 -0.2181
  183MOL   C22044264   2.966   2.820   3.012 -0.4117 -1.0384  0.6405
  183MOL   C22144265   3.090   3.005   3.127 -0.3746  0.1398 -0.3091
  183MOL   O22244266   3.001   3.003   3.213 -0.3151  0.0346  0.2590
  183MOL   O22344267   3.204   3.077   3.131  0.3196 -0.6542  0.1238
  183MOL   H22444268   3.295   2.933   2.959  0.1508  0.3956  1.0871
  183MOL   H22544269   3.207   2.872   2.829  0.3763  0.5374 -0.5500
  183MOL   H22644270   2.933   2.770   2.921 -0.8355  0.5457 -0.0937
  183MOL   H22744271   2.874   2.859   3.055 -1.0733 -1.6924 -0.1524
  183MOL   H22844272   3.008   2.749   3.084  0.2520 -1.5398 -0.2199
  183MOL   H22944273   3.194   3.125   3.212  1.5874  2.1343 -1.3019
  183MOL   C23044274   3.023   3.020   2.882 -0.4243  0.3235 -0.6138
  183MOL   C23144275   2.888   3.086   2.895 -0.9060  0.0283 -0.3359
  183MOL   C23244276   2.899   3.223   2.828  0.0918 -0.1903 -0.0982
  183MOL   C23344277   2.773   2.999   2.832 -0.4043 -0.0443 -0.1417
  183MOL   O23444278   2.677   2.963   2.898  0.3925 -0.5697 -0.1866
  183MOL   O23544279   2.783   2.986   2.698  0.0781  0.6856  0.1613
  183MOL   H23644280   3.095   3.101   2.874 -2.1182  1.7205 -2.1579
  183MOL   H23744281   3.029   2.986   2.779  1.4212  1.2490 -0.8280
  183MOL   H23844282   2.927   3.285   2.914  1.4765 -1.4429  0.3771
  183MOL   H23944283   2.799   3.252   2.795 -1.5410 -3.1038  2.0378
  183MOL   H24044284   2.973   3.243   2.751  1.1255 -0.8873  0.7021
  183MOL   H24144285   2.859   3.017   2.650 -0.6848  1.1861 -0.7446
  183MOL   H24244286   2.867   3.099   3.001  0.8183  2.9120 -0.3073
  184MOL     C144287   6.500   5.618   0.789 -0.1630  0.0046 -0.5950
  184MOL     C244288   6.431   5.623   0.927 -0.5330  0.0676 -0.3384
  184MOL     C344289   6.440   5.480   0.980 -0.1181 -0.3640 -0.8323
  184MOL     C444290   6.503   5.723   1.016 -0.3210  0.4790 -0.3295
  184MOL     O544291   6.565   5.696   1.121  0.1046 -0.2082  0.0958
  184MOL     O644292   6.492   5.853   0.966  0.1765 -0.1759  0.0339
  184MOL     H744293   6.607   5.596   0.789  0.3628  2.1997  1.9386
  184MOL     H844294   6.502   5.711   0.733  0.3005  0.0020 -0.5857
  184MOL     H944295   6.545   5.449   0.987  0.6505  1.9281 -1.9046
  184MOL    H1044296   6.385   5.403   0.926 -0.2960 -0.7112 -0.1635
  184MOL    H1144297   6.403   5.489   1.082  2.6414  1.3383  0.0706
  184MOL    H1244298   6.561   5.906   1.004 -1.3458  0.6860  1.6560
  184MOL    H1344299   6.455   5.546   0.721 -0.5825  0.2844 -0.6144
  184MOL    C1444300   6.285   5.669   0.901  0.7490 -0.2208 -0.4438
  184MOL    C1544301   6.161   5.688   0.999  0.5264 -0.2670  0.1719
  184MOL    C1644302   6.157   5.581   1.113 -0.0089  0.1015 -0.1752
  184MOL    C1744303   6.177   5.823   1.060 -0.0771 -0.2405  0.0619
  184MOL    O1844304   6.187   5.839   1.180 -0.3508  0.0024  0.1544
  184MOL    O1944305   6.191   5.930   0.967 -0.0934 -0.2934  0.5583
  184MOL    H2044306   6.297   5.760   0.842 -0.8479  0.3484  0.0892
  184MOL    H2144307   6.250   5.589   0.835  0.7046  1.5528 -2.6135
  184MOL    H2244308   6.077   5.593   1.186 -0.5038  1.7252 -0.9813
  184MOL    H2344309   6.245   5.593   1.177  1.9963  1.2061 -3.0605
  184MOL    H2444310   6.160   5.475   1.088 -0.1158 -0.1743  0.9273
  184MOL    H2544311   6.184   6.011   1.016 -1.3191  0.7451 -1.2960
  184MOL    C2644312   6.049   5.677   0.892 -0.0122 -0.4819 -0.1207
  184MOL    C2744313   5.898   5.725   0.912 -0.1542 -0.0941 -0.3613
  184MOL    C2844314   5.895   5.885   0.925 -0.3112 -0.2797  0.5397
  184MOL    C2944315   5.800   5.688   0.797  0.4347  0.1508 -0.0710
  184MOL    O3044316   5.722   5.761   0.742  0.0443 -0.5112  0.5849
  184MOL    O3144317   5.817   5.561   0.756 -0.5991  0.2832  0.1852
  184MOL    H3244318   6.077   5.718   0.795 -0.5222 -1.0893 -0.5330
  184MOL    H3344319   6.041   5.572   0.865 -3.3660 -0.6350  1.1936
  184MOL    H3444320   5.975   5.920   0.860  0.4210 -0.7895  1.1578
  184MOL    H3544321   5.932   5.919   1.022  1.0040 -0.2204  0.0311
  184MOL    H3644322   5.808   5.938   0.886 -0.4827 -1.7463 -1.1201
  184MOL    H3744323   5.790   5.553   0.666  1.9905 -0.1967 -0.5857
  184MOL    C3844324   5.852   5.670   1.057 -0.3947  0.9279  0.5187
  184MOL    C3944325   5.699   5.664   1.101  0.5664  0.2055 -0.6189
  184MOL    C4044326   5.639   5.807   1.083 -0.2634 -0.7894  0.5457
  184MOL    C4144327   5.622   5.550   1.023  0.0192  0.0335  0.3044
  184MOL    O4244328   5.645   5.434   1.038  0.4721  0.0442  0.1919
  184MOL    O4344329   5.536   5.601   0.942  0.0720  0.1531 -0.2434
  184MOL    H4444330   5.890   5.568   1.062  2.5847  1.7411 -3.0773
  184MOL    H4544331   5.908   5.718   1.137 -0.1865  1.1724  0.2250
  184MOL    H4644332   5.700   5.879   1.136 -0.7606  0.5466 -0.6498
  184MOL    H4744333   5.537   5.809   1.123 -0.6650 -0.0857 -0.4797
  184MOL    H4844334   5.640   5.836   0.978  1.1146 -0.2913  0.6915
  184MOL    H4944335   5.494   5.526   0.903  2.2523  0.7117 -3.8631
  184MOL    C5044336   5.693   5.623   1.255 -0.0174  0.1555  0.0680
  184MOL    C5144337   5.575   5.636   1.355 -0.0682  0.1629 -0.5237
  184MOL    C5244338   5.549   5.780   1.390 -0.1595 -0.0962 -0.6222
  184MOL    C5344339   5.444   5.569   1.307 -0.0198 -0.1286  0.1129
  184MOL    O5444340   5.335   5.619   1.298 -0.0255  0.3503  0.1224
  184MOL    O5544341   5.466   5.435   1.289 -0.2499  0.0118  0.5970
  184MOL    H5644342   5.728   5.520   1.261 -0.7553 -0.1000  0.0208
  184MOL    H5744343   5.769   5.689   1.296 -3.4198  3.7279  0.9388
  184MOL    H5844344   5.469   5.823   1.331  0.6512  0.7710 -1.1034
  184MOL    H5944345   5.642   5.839   1.394  0.2980 -0.8205 -0.5252
  184MOL    H6044346   5.503   5.773   1.489 -0.8400  1.8328 -0.7698
  184MOL    H6144347   5.387   5.387   1.268 -0.7978  1.6005 -1.0944
  184MOL    C6244348   5.623   5.554   1.487  0.1377 -0.1411  0.9498
  184MOL    C6344349   5.754   5.579   1.572 -0.4859  0.2189  0.1804
  184MOL    C6444350   5.755   5.456   1.673 -0.0800  0.0880 -0.2547
  184MOL    C6544351   5.886   5.571   1.494 -0.4550 -0.3667 -0.1634
  184MOL    O6644352   5.966   5.661   1.483  0.1469 -0.2313 -0.0375
  184MOL    O6744353   5.907   5.448   1.428  0.3885 -0.2520 -0.2225
  184MOL    H6844354   5.541   5.540   1.558 -0.5892  1.7307  0.5038
  184MOL    H6944355   5.642   5.457   1.441 -1.8032 -0.0957  0.0052
  184MOL    H7044356   5.765   5.358   1.625 -2.7496 -2.0703  3.2553
  184MOL    H7144357   5.668   5.459   1.740  0.2545  1.1713  0.1387
  184MOL    H7244358   5.842   5.456   1.738 -0.8520 -0.0420  0.8051
  184MOL    H7344359   5.984   5.446   1.374 -0.3476 -1.8006 -1.2706
  184MOL    C7444360   5.739   5.715   1.653  0.1197  0.7806 -0.1766
  184MOL    C7544361   5.704   5.726   1.805 -0.4823 -0.8037  0.2509
  184MOL    C7644362   5.562   5.686   1.831 -0.3435 -0.0649 -0.2842
  184MOL    C7744363   5.800   5.650   1.903 -0.0815  0.4725 -0.1021
  184MOL    O7844364   5.766   5.564   1.980 -0.5170 -0.3156 -0.1018
  184MOL    O7944365   5.931   5.685   1.885  0.6581 -0.0069 -0.3554
  184MOL    H8044366   5.835   5.766   1.645  0.4349  0.2018 -0.1104
  184MOL    H8144367   5.664   5.780   1.607 -1.4795 -1.3870 -0.7077
  184MOL    H8244368   5.544   5.663   1.935  3.1218 -0.2701  0.3235
  184MOL    H8344369   5.540   5.591   1.783  2.5056  0.8342 -3.6005
  184MOL    H8444370   5.481   5.756   1.810 -0.3875 -0.0189  0.0367
  184MOL    H8544371   5.986   5.643   1.950 -0.8099 -1.8806 -0.2552
  184MOL    C8644372   5.719   5.877   1.843  0.0087  0.0818 -0.2919
  184MOL    C8744373   5.717   5.945   1.984 -0.3713  0.1182 -0.1660
  184MOL    C8844374   5.718   6.101   1.958  0.5337 -0.3772 -0.0817
  184MOL    C8944375   5.582   5.899   2.050 -0.5152 -0.0639  0.8193
  184MOL    O9044376   5.577   5.812   2.138  0.8081 -0.1104 -0.5160
  184MOL    O9144377   5.474   5.973   2.002 -0.4869  0.2517  0.2205
  184MOL    H9244378   5.815   5.913   1.805  0.4273  0.4515  1.0948
  184MOL    H9344379   5.646   5.933   1.786 -0.1718  1.9773  1.7574
  184MOL    H9444380   5.640   6.127   1.887  0.7058 -1.5632 -0.7100
  184MOL    H9544381   5.811   6.142   1.918  1.8388 -2.3515  0.8067
  184MOL    H9644382   5.686   6.154   2.048  1.5849 -0.7902  0.5562
  184MOL    H9744383   5.393   5.950   2.044  0.7714 -2.6832  1.1893
  184MOL    C9844384   5.842   5.907   2.080 -0.7620 -0.0478 -1.1408
  184MOL    C9944385   5.870   5.990   2.216 -0.5187  0.6829 -0.4149
  184MOL   C10044386   5.753   6.043   2.297 -0.6873  0.2467 -0.3718
  184MOL   C10144387   5.925   5.893   2.319 -0.2501 -0.1688  0.6387
  184MOL   O10244388   5.947   5.777   2.303  0.1549 -0.2347  0.0183
  184MOL   O10344389   5.950   5.951   2.440  0.3655  0.0664  0.0151
  184MOL   H10444390   5.805   5.808   2.104  0.4549 -0.6453 -1.7052
  184MOL   H10544391   5.933   5.889   2.022  0.3285  1.2927  0.1047
  184MOL   H10644392   5.671   6.068   2.230 -0.7415 -0.3117 -0.5124
  184MOL   H10744393   5.781   6.131   2.356  0.5799 -0.1647 -0.3438
  184MOL   H10844394   5.705   5.970   2.362  1.2263  2.5029  3.7826
  184MOL   H10944395   5.909   6.034   2.422 -0.4067 -0.7986 -2.4283
  184MOL   C11044396   5.972   6.107   2.192 -0.5688  0.0754  0.6936
  184MOL   C11144397   6.125   6.104   2.121  0.0337 -0.3050 -0.1766
  184MOL   C11244398   6.193   5.981   2.192 -1.0502 -0.4058  0.3812
  184MOL   C11344399   6.118   6.086   1.965 -0.6249  0.4084  0.1050
  184MOL   O11444400   6.189   6.002   1.910  0.9252  0.3632 -0.6029
  184MOL   O11544401   6.050   6.184   1.897 -0.4721  0.1231 -0.0307
  184MOL   H11644402   5.915   6.179   2.133  1.4654 -0.5352 -2.1449
  184MOL   H11744403   5.988   6.157   2.287 -0.9783 -0.7469  1.2016
  184MOL   H11844404   6.301   5.981   2.174 -0.9677  1.5991  0.7257
  184MOL   H11944405   6.161   5.882   2.162 -1.9491 -0.0432  0.1432
  184MOL   H12044406   6.168   5.993   2.297 -2.5142  2.6102 -0.2539
  184MOL   H12144407   6.078   6.186   1.807 -0.3086  1.2275  0.0359
  184MOL   C12244408   6.188   6.244   2.164 -0.2184  0.5090 -0.0275
  184MOL   C12344409   6.325   6.285   2.107 -0.4323 -0.4753 -0.0321
  184MOL   C12444410   6.431   6.172   2.096  0.5673  0.5938  0.2093
  184MOL   C12544411   6.317   6.353   1.967 -0.4508  0.8148 -0.1111
  184MOL   O12644412   6.212   6.387   1.915 -0.4315  0.6152 -0.1301
  184MOL   O12744413   6.430   6.343   1.892  0.0639  0.5425  0.0385
  184MOL   H12844414   6.107   6.317   2.161 -0.9253 -0.0695  2.9446
  184MOL   H12944415   6.204   6.215   2.268  0.2942  1.5445  0.1882
  184MOL   H13044416   6.421   6.098   2.017 -0.6792  1.1879 -0.1906
  184MOL   H13144417   6.458   6.119   2.188  1.9231  2.3111  0.8396
  184MOL   H13244418   6.525   6.212   2.058  0.8217 -1.9524 -1.9854
  184MOL   H13344419   6.408   6.359   1.801 -2.8819  1.1314  0.8209
  184MOL   C13444420   6.392   6.384   2.206  0.2611  0.0283  0.2039
  184MOL   C13544421   6.312   6.498   2.282  0.8705  0.0912  0.7133
  184MOL   C13644422   6.432   6.599   2.324  0.2121 -0.5249  0.3650
  184MOL   C13744423   6.208   6.571   2.187 -0.1644  0.1354  0.5695
  184MOL   O13844424   6.238   6.643   2.100 -0.0487 -0.4152  0.4205
  184MOL   O13944425   6.074   6.537   2.208 -0.2895 -0.0226 -0.3564
  184MOL   H14044426   6.449   6.335   2.285 -0.2508 -1.0776 -0.0975
  184MOL   H14144427   6.474   6.430   2.149 -0.9373  2.5072  0.4313
  184MOL   H14244428   6.394   6.682   2.383  0.1067 -0.5803  0.3752
  184MOL   H14344429   6.484   6.632   2.234 -0.8393 -2.0963 -0.8549
  184MOL   H14444430   6.504   6.554   2.393  2.2949  2.1103  0.0181
  184MOL   H14544431   6.013   6.573   2.146 -0.1725  1.5119  0.3885
  184MOL   C14644432   6.244   6.436   2.419 -0.3510  0.1393  0.2534
  184MOL   C14744433   6.217   6.517   2.547 -0.3414  0.0518  0.3803
  184MOL   C14844434   6.352   6.542   2.615  0.4752 -0.1717  0.2325
  184MOL   C14944435   6.141   6.651   2.511  0.1681  0.5769  0.1242
  184MOL   O15044436   6.031   6.654   2.455  0.3125 -0.0368  0.0741
  184MOL   O15144437   6.192   6.758   2.573  0.4923 -0.1926 -0.4665
  184MOL   H15244438   6.152   6.388   2.385 -0.1773 -0.0449  0.0424
  184MOL   H15344439   6.316   6.357   2.437  0.7620  0.9894 -0.3998
  184MOL   H15444440   6.337   6.547   2.722 -1.0837 -0.6190  0.0387
  184MOL   H15544441   6.400   6.637   2.590  0.1384 -0.5392 -1.9340
  184MOL   H15644442   6.428   6.466   2.594  0.8684  0.9034 -2.5843
  184MOL   H15744443   6.149   6.839   2.549  0.7750  0.3681  0.8656
  184MOL   C15844444   6.120   6.431   2.646 -0.1413 -0.5092 -0.5367
  184MOL   C15944445   6.143   6.280   2.699  0.0659 -0.1454 -0.4359
  184MOL   C16044446   6.071   6.192   2.597  0.1643  0.2282  0.0951
  184MOL   C16144447   6.292   6.231   2.705 -0.4575  0.1977 -0.8861
  184MOL   O16244448   6.341   6.179   2.610 -0.0729  0.5882 -0.4312
  184MOL   O16344449   6.352   6.274   2.814  0.0019 -0.5716 -0.7714
  184MOL   H16444450   6.113   6.486   2.740 -1.1577  0.0510 -0.9378
  184MOL   H16544451   6.016   6.446   2.618 -0.7817 -1.3833  1.2985
  184MOL   H16644452   6.098   6.217   2.495  1.3163 -1.4297 -0.0192
  184MOL   H16744453   5.964   6.211   2.598  0.4731  2.1076 -1.0868
  184MOL   H16844454   6.078   6.084   2.614  0.2720  0.3217  0.6650
  184MOL   H16944455   6.445   6.261   2.813 -0.2216 -2.1974 -1.0194
  184MOL   C17044456   6.089   6.259   2.845 -0.0223 -0.8323 -0.0300
  184MOL   C17144457   5.939   6.243   2.881 -0.1690 -0.0078 -0.5178
  184MOL   C17244458   5.929   6.265   3.035 -0.5417 -0.7572  0.2123
  184MOL   C17344459   5.851   6.360   2.816  0.2039  0.9811  0.1764
  184MOL   O17444460   5.808   6.358   2.702  0.3885  0.0760  0.1473
  184MOL   O17544461   5.827   6.462   2.898 -0.0926 -0.1958  0.1943
  184MOL   H17644462   6.133   6.170   2.889  3.1993  0.4861 -0.3910
  184MOL   H17744463   6.124   6.347   2.900 -1.7081 -0.3694  0.3255
  184MOL   H17844464   5.830   6.272   3.081  0.2605 -2.4567  2.2651
  184MOL   H17944465   5.982   6.352   3.072 -2.7426  0.7214  0.0067
  184MOL   H18044466   5.987   6.192   3.091  0.0254  0.0995  0.7374
  184MOL   H18144467   5.775   6.530   2.857  1.2905  0.7287 -0.0527
  184MOL   C18244468   5.884   6.097   2.852  0.1037 -0.0776  0.1145
  184MOL   C18344469   5.733   6.052   2.832 -0.2007 -0.2754 -0.3562
  184MOL   C18444470   5.655   6.134   2.942 -0.6374 -0.8725  1.2407
  184MOL   C18544471   5.682   6.086   2.690  0.5434  0.2027  0.7665
  184MOL   O18644472   5.752   6.098   2.591  0.4302  0.1577  0.4378
  184MOL   O18744473   5.548   6.096   2.689  0.3532 -0.0489 -0.3532
  184MOL   H18844474   5.936   6.065   2.762  0.2792  0.8465 -0.1217
  184MOL   H18944475   5.926   6.032   2.930 -0.6257 -1.8518 -0.9400
  184MOL   H19044476   5.708   6.119   3.036  0.2820  0.4516  0.9392
  184MOL   H19144477   5.550   6.104   2.944 -0.7959 -0.4049  0.2347
  184MOL   H19244478   5.663   6.242   2.927 -0.0458 -1.1919 -0.9943
  184MOL   H19344479   5.519   6.143   2.612 -1.3265  2.8853  1.9698
  184MOL   C19444480   5.697   5.906   2.880  0.2537 -0.0628 -0.3051
  184MOL   C19544481   5.723   5.771   2.798 -0.0186 -0.0378  0.4526
  184MOL   C19644482   5.685   5.644   2.883  0.4429 -0.2708  0.1131
  184MOL   C19744483   5.621   5.776   2.679  0.5184  0.1940  0.9797
  184MOL   O19844484   5.646   5.773   2.554 -0.2281  0.6180 -0.4761
  184MOL   O19944485   5.490   5.780   2.719 -0.4156  0.0260  0.2475
  184MOL   H20044486   5.761   5.890   2.967 -0.2801  2.5149  0.5979
  184MOL   H20144487   5.596   5.903   2.921  0.7794 -0.3097  1.0086
  184MOL   H20244488   5.676   5.557   2.818 -0.8675  0.6840 -1.0072
  184MOL   H20344489   5.590   5.661   2.935 -0.4787 -0.1961 -1.5546
  184MOL   H20444490   5.756   5.625   2.964 -0.1706  1.0972  0.9958
  184MOL   H20544491   5.431   5.757   2.649 -0.8848 -2.3626  1.3787
  184MOL   C20644492   5.868   5.754   2.739 -0.2118  0.0463  0.7658
  184MOL   C20744493   5.996   5.693   2.808 -0.8145 -0.1931  0.0789
  184MOL   C20844494   6.044   5.776   2.944  0.0862 -0.2648 -0.0068
  184MOL   C20944495   5.976   5.549   2.859 -0.0558 -0.0788 -0.3205
  184MOL   O21044496   5.989   5.516   2.975 -0.0579  0.3881 -0.1877
  184MOL   O21144497   5.969   5.455   2.767  0.2482 -0.1162  0.1879
  184MOL   H21244498   5.865   5.685   2.655 -3.2653 -1.4336  2.0038
  184MOL   H21344499   5.881   5.854   2.699 -1.6260 -0.1665 -0.2518
  184MOL   H21444500   6.059   5.882   2.922  1.7864 -0.4754  0.0534
  184MOL   H21544501   6.144   5.739   2.967  0.5484  1.0892  0.2196
  184MOL   H21644502   5.978   5.759   3.028  0.9287 -0.9416  0.5244
  184MOL   H21744503   5.965   5.367   2.803 -2.1496 -0.7249 -1.5041
  184MOL   C21844504   6.098   5.698   2.688  0.4712 -0.1630 -0.5344
  184MOL   C21944505   6.246   5.668   2.707 -0.1589  0.2694 -0.6114
  184MOL   C22044506   6.309   5.669   2.565 -0.1564 -0.3949  0.0918
  184MOL   C22144507   6.334   5.764   2.786  0.3754 -0.0902 -0.4960
  184MOL   O22244508   6.412   5.733   2.879 -0.4605  0.0599  0.2180
  184MOL   O22344509   6.315   5.892   2.749 -0.1583  0.1132  0.7218
  184MOL   H22444510   6.066   5.632   2.606 -0.2185 -1.7548  0.9835
  184MOL   H22544511   6.085   5.787   2.626 -2.5850  0.1512  0.4914
  184MOL   H22644512   6.291   5.757   2.503  2.9293  2.3804  2.8944
  184MOL   H22744513   6.260   5.595   2.502  0.5504 -0.9466  0.1854
  184MOL   H22844514   6.418   5.666   2.563 -0.2107 -2.5274 -0.9845
  184MOL   H22944515   6.383   5.946   2.786  1.1832 -1.6962  1.0107
  184MOL   C23044516   6.277   5.523   2.776 -0.2232 -0.5333 -0.6632
  184MOL   C23144517   6.411   5.449   2.747  0.1340 -0.1681  0.3779
  184MOL   C23244518   6.420   5.338   2.854 -0.5596  0.1835 -0.0807
  184MOL   C23344519   6.412   5.375   2.613 -0.0518  0.9794 -0.2079
  184MOL   O23444520   6.314   5.363   2.540  0.5905 -0.0014 -0.3603
  184MOL   O23544521   6.533   5.323   2.586  0.0949  0.4514 -0.2229
  184MOL   H23644522   6.264   5.527   2.884 -1.0056  1.6393 -0.8056
  184MOL   H23744523   6.199   5.458   2.737  1.5193 -0.9878 -3.5288
  184MOL   H23844524   6.333   5.273   2.864 -1.5021  1.5790  0.9340
  184MOL   H23944525   6.440   5.388   2.948  1.8248 -1.3797  0.2937
  184MOL   H24044526   6.501   5.265   2.850  0.8459  1.7934 -2.2262
  184MOL   H24144527   6.542   5.266   2.511  0.3877  2.7477 -2.0185
  184MOL   H24244528   6.494   5.519   2.742  0.3524 -0.3956  0.7853
  185MOL     C144529   1.007   3.798   6.659  0.3298  0.5000 -0.3571
  185MOL     C244530   0.888   3.786   6.757  0.3089  0.0006  0.0713
  185MOL     C344531   0.821   3.650   6.743  0.4323 -0.7288 -0.5629
  185MOL     C444532   0.938   3.780   6.903  0.0354 -0.2105 -0.4322
  185MOL     O544533   1.055   3.757   6.930  0.0872 -0.6426  0.2932
  185MOL     O644534   0.837   3.808   6.993  0.0719 -0.2267 -0.4551
  185MOL     H744535   0.980   3.812   6.554 -0.0264 -1.8167 -0.5958
  185MOL     H844536   1.070   3.711   6.674  0.1142  0.6870  1.7241
  185MOL     H944537   0.875   3.558   6.766  0.5037 -0.7087 -0.6508
  185MOL    H1044538   0.786   3.628   6.642 -2.8191  0.2300  0.2928
  185MOL    H1144539   0.730   3.640   6.803 -0.8752 -1.2638 -2.5728
  185MOL    H1244540   0.870   3.823   7.080 -0.9251  0.0737 -0.1142
  185MOL    H1344541   1.051   3.893   6.690 -0.5291  0.3155  1.5152
  185MOL    C1444542   0.776   3.891   6.724 -0.1763  0.2549 -0.4693
  185MOL    C1544543   0.811   4.043   6.724 -0.0680 -0.8810  0.3094
  185MOL    C1644544   0.901   4.078   6.844  0.5075  0.0354  0.4091
  185MOL    C1744545   0.877   4.106   6.602 -0.6648 -0.4713  0.1655
  185MOL    O1844546   0.927   4.218   6.606 -0.5965 -0.1479 -0.1641
  185MOL    O1944547   0.877   4.031   6.494 -0.1318  0.2660  0.0539
  185MOL    H2044548   0.743   3.874   6.621 -2.4953 -2.8578  0.7266
  185MOL    H2144549   0.694   3.869   6.791  0.7225 -1.5926  0.0499
  185MOL    H2244550   0.851   4.066   6.940  1.5733 -0.5331  0.8990
  185MOL    H2344551   0.926   4.184   6.841 -0.5690  0.3179  1.0823
  185MOL    H2444552   0.995   4.022   6.850 -0.7800 -1.9559  2.3447
  185MOL    H2544553   0.837   3.945   6.496  0.6429 -0.1559 -1.3360
  185MOL    C2644554   0.677   4.124   6.765 -0.1408 -0.2937 -0.2293
  185MOL    C2744555   0.556   4.139   6.669  0.1859  1.0065 -0.2445
  185MOL    C2844556   0.456   4.217   6.756 -0.0526 -0.3604  0.7397
  185MOL    C2944557   0.595   4.235   6.551  0.0565  0.5013  0.0294
  185MOL    O3044558   0.619   4.200   6.436  0.0316  0.4454 -0.2608
  185MOL    O3144559   0.627   4.357   6.598 -0.2178 -0.7116  0.4321
  185MOL    H3244560   0.637   4.089   6.860  1.4739  1.6843  1.2419
  185MOL    H3344561   0.713   4.223   6.794  2.0424 -0.5333 -1.9336
  185MOL    H3444562   0.390   4.263   6.682  2.0360  1.0880 -0.2617
  185MOL    H3544563   0.505   4.289   6.821 -1.4498  1.6129 -0.3262
  185MOL    H3644564   0.390   4.149   6.810  0.7208 -1.8738 -0.1974
  185MOL    H3744565   0.669   4.420   6.541  1.8088 -2.2268  0.2095
  185MOL    C3844566   0.496   3.998   6.621 -0.4362  0.0059 -0.1332
  185MOL    C3944567   0.348   3.968   6.567 -0.3567 -0.7521  0.5527
  185MOL    C4044568   0.321   4.065   6.447  0.9001 -0.5866 -0.1114
  185MOL    C4144569   0.362   3.829   6.509 -0.2785 -1.1278  0.0736
  185MOL    O4244570   0.325   3.790   6.397  0.4432  0.0217  0.2128
  185MOL    O4344571   0.402   3.741   6.607  0.2206 -0.4773 -0.3392
  185MOL    H4444572   0.571   3.965   6.549 -0.1132  0.8534 -0.1897
  185MOL    H4544573   0.511   3.947   6.717  1.3210 -0.0618 -0.4266
  185MOL    H4644574   0.400   4.076   6.372  0.0379  0.6245 -0.8524
  185MOL    H4744575   0.297   4.163   6.488 -1.3846 -0.6048 -1.3266
  185MOL    H4844576   0.232   4.032   6.394 -0.4054  1.2975  0.8352
  185MOL    H4944577   0.404   3.651   6.578 -1.0934 -0.2333 -1.2178
  185MOL    C5044578   0.243   3.970   6.683  0.4276  0.0196 -1.1619
  185MOL    C5144579   0.093   3.912   6.692  0.0881  0.7274  0.1939
  185MOL    C5244580   0.034   3.901   6.546 -0.5809 -0.4754 -0.0226
  185MOL    C5344581   0.100   3.770   6.740 -0.9329  0.0085 -0.3149
  185MOL    O5444582   0.098   3.737   6.857  0.1607 -0.3990 -0.4320
  185MOL    O5544583   0.106   3.674   6.641 -0.1359  0.3211 -0.0926
  185MOL    H5644584   0.292   3.925   6.769  0.3628  1.0997 -0.5469
  185MOL    H5744585   0.222   4.074   6.709 -0.2771 -0.2916 -0.4651
  185MOL    H5844586   0.105   3.864   6.472 -0.6716 -0.7538  0.0321
  185MOL    H5944587   0.004   4.000   6.510 -0.7147  0.2955  2.1433
  185MOL    H6044588   7.714   3.836   6.543 -1.2777  0.4822 -1.0271
  185MOL    H6144589   0.131   3.594   6.684  0.7128  1.0861  0.8891
  185MOL    C6244590   0.008   4.014   6.781  0.1536 -0.5230 -0.0990
  185MOL    C6344591   7.634   3.990   6.839  0.2137 -0.4367  0.0140
  185MOL    C6444592   7.598   4.135   6.897 -0.1270  0.2116 -0.0310
  185MOL    C6544593   7.541   3.944   6.724 -0.2070 -0.8435 -0.0987
  185MOL    O6644594   7.523   3.824   6.702 -0.0986  0.6441  0.1944
  185MOL    O6744595   7.505   4.050   6.644 -0.5418  0.0842 -0.4663
  185MOL    H6844596   0.068   4.045   6.867 -1.5078  1.2219  0.4656
  185MOL    H6944597   7.765   4.108   6.726 -2.1193 -0.2743  0.7069
  185MOL    H7044598   7.672   4.173   6.967  0.2706  0.0360 -0.3566
  185MOL    H7144599   7.502   4.142   6.948 -0.4603 -0.5392 -0.5400
  185MOL    H7244600   7.594   4.213   6.822  1.9368 -0.8315 -1.2647
  185MOL    H7344601   7.452   4.029   6.568  0.9004  0.9622 -1.7389
  185MOL    C7444602   7.624   3.889   6.963  0.5976  1.0205  0.1167
  185MOL    C7544603   7.505   3.882   7.068 -0.3480  0.0003 -0.2434
  185MOL    C7644604   7.541   3.985   7.176  0.7521  0.0703  0.3224
  185MOL    C7744605   7.364   3.920   7.015  0.0478  0.1430  0.5198
  185MOL    O7844606   7.306   4.019   7.047  0.4950 -0.2962 -0.0046
  185MOL    O7944607   7.317   3.823   6.936  0.2796 -0.5031  0.2730
  185MOL    H8044608   7.628   3.793   6.910  0.3854  0.7827  0.5294
  185MOL    H8144609   7.718   3.882   7.019  0.5458 -0.9736  0.0024
  185MOL    H8244610   7.637   3.972   7.226 -0.0816 -2.0281  1.4278
  185MOL    H8344611   7.472   3.983   7.260 -1.5390  1.7087 -1.4342
  185MOL    H8444612   7.534   4.090   7.147 -3.5072 -0.0636  0.4663
  185MOL    H8544613   7.369   3.747   6.918 -0.5277 -0.8015 -0.8835
  185MOL    C8644614   7.494   3.734   7.127 -0.3907 -0.3589  0.0075
  185MOL    C8744615   7.577   3.687   7.257 -0.1781  0.4713  0.6929
  185MOL    C8844616   7.731   3.683   7.236  0.8879 -1.0236  1.0787
  185MOL    C8944617   7.529   3.764   7.381  0.1215 -0.4453  0.7865
  185MOL    O9044618   7.407   3.778   7.396  0.4198  0.4304  0.1217
  185MOL    O9144619   7.627   3.799   7.459 -0.0043 -0.4767 -0.4033
  185MOL    H9244620   7.390   3.708   7.147 -0.4090 -0.2993 -0.0104
  185MOL    H9344621   7.520   3.660   7.052 -1.8312  0.1338 -1.0002
  185MOL    H9444622   7.748   3.604   7.162  1.5863  0.5284 -0.4545
  185MOL    H9544623   0.021   3.660   7.326  0.0216  0.9922  2.1734
  185MOL    H9644624   7.766   3.774   7.187  1.7843 -1.6180  0.5995
  185MOL    H9744625   7.592   3.854   7.527 -2.0961 -0.6863 -1.2797
  185MOL    C9844626   7.527   3.535   7.262  0.5624 -0.3406  0.2848
  185MOL    C9944627   7.536   3.441   7.391  0.0048 -0.7116 -0.8010
  185MOL   C10044628   7.680   3.445   7.445  0.0741  0.1090  0.6575
  185MOL   C10144629   7.446   3.480   7.512  0.0980 -0.1355 -0.2765
  185MOL   O10244630   7.488   3.504   7.627 -0.2972  0.7313 -0.6004
  185MOL   O10344631   7.313   3.484   7.479 -0.3940  0.1397  0.2379
  185MOL   H10444632   7.419   3.536   7.252  0.3848  3.6997  1.9378
  185MOL   H10544633   7.559   3.480   7.174 -2.1981 -2.0851  0.3022
  185MOL   H10644634   7.709   3.394   7.537 -2.7798  0.2734  1.6927
  185MOL   H10744635   7.711   3.548   7.464 -0.8650  0.4999  0.0843
  185MOL   H10844636   7.746   3.409   7.366 -0.6069  0.5854 -0.1174
  185MOL   H10944637   7.246   3.509   7.542 -0.6782 -4.3022  1.8799
  185MOL   C11044638   7.497   3.292   7.349 -1.2712  0.4086 -0.4549
  185MOL   C11144639   7.591   3.171   7.312 -0.0262  0.2101 -0.6158
  185MOL   C11244640   7.670   3.209   7.180  0.0092  0.2336 -0.1277
  185MOL   C11344641   7.694   3.147   7.432 -0.0653 -0.3806 -0.3788
  185MOL   O11444642   0.050   3.142   7.420  0.2552 -0.2165 -0.3718
  185MOL   O11544643   7.634   3.146   7.550  0.0575 -0.0430 -0.6066
  185MOL   H11644644   7.444   3.252   7.436  1.1501 -0.3920  0.6759
  185MOL   H11744645   7.415   3.297   7.277 -1.7820  0.4052  0.1226
  185MOL   H11844646   7.749   3.143   7.147 -0.7613 -0.7241 -0.0691
  185MOL   H11944647   7.708   3.311   7.193 -0.7245  0.9598 -3.2801
  185MOL   H12044648   7.614   3.221   7.087  1.4859 -1.5590 -1.2843
  185MOL   H12144649   7.686   3.110   7.621 -0.4786  1.8909  0.8098
  185MOL   C12244650   7.502   3.041   7.288  0.8743 -0.4207 -0.6743
  185MOL   C12344651   7.549   2.912   7.219 -0.6682 -0.0824  0.0769
  185MOL   C12444652   7.424   2.816   7.213  0.3085  0.5645  0.6042
  185MOL   C12544653   7.577   2.944   7.074  0.8987  0.3129  0.4933
  185MOL   O12644654   7.492   2.988   7.001  0.1233 -0.3858 -0.2810
  185MOL   O12744655   7.700   2.910   7.020  0.1400  0.0736  0.0739
  185MOL   H12844656   7.455   3.012   7.382  0.2163 -0.9856 -1.1731
  185MOL   H12944657   7.416   3.078   7.233  0.5172  0.7147  0.6051
  185MOL   H13044658   7.342   2.859   7.156  1.6019 -0.2576 -1.9687
  185MOL   H13144659   7.387   2.779   7.309 -1.3509  0.3890 -0.0880
  185MOL   H13244660   7.435   2.730   7.147 -1.0887  0.0339  1.0566
  185MOL   H13344661   7.704   2.936   6.930 -2.6461  0.5544  0.0656
  185MOL   C13444662   7.673   2.834   7.295  0.3117  0.5358  0.0748
  185MOL   C13544663   7.660   2.739   7.417  0.9803 -0.0081 -0.2825
  185MOL   C13644664   7.574   2.797   7.538  0.4269  0.1044  0.4605
  185MOL   C13744665   7.610   2.594   7.369  0.2110 -0.1200 -0.5668
  185MOL   O13844666   7.595   2.556   7.254  0.0032 -0.0385  0.2376
  185MOL   O13944667   7.586   2.505   7.470 -0.0941 -0.2728 -0.3309
  185MOL   H14044668   7.720   2.768   7.221  0.6103 -1.1164  1.7046
  185MOL   H14144669   7.748   2.912   7.306  2.0596 -0.6741 -2.6401
  185MOL   H14244670   7.468   2.804   7.513  0.5190  1.1736  0.3739
  185MOL   H14344671   7.619   2.895   7.556 -1.1649  0.7566  0.9621
  185MOL   H14444672   7.583   2.743   7.633  0.6248 -0.8334 -0.0825
  185MOL   H14544673   7.555   2.421   7.441 -1.1459 -0.3258  0.8779
  185MOL   C14644674   0.036   2.708   7.479 -0.4175  0.3328  0.1807
  185MOL   C14744675   0.167   2.678   7.393  0.1844  0.9723  0.7450
  185MOL   C14844676   0.153   2.559   7.288 -0.4619 -0.9406  0.1734
  185MOL   C14944677   0.212   2.805   7.320 -0.0020  0.4959  0.0790
  185MOL   O15044678   0.215   2.814   7.202 -0.2834  0.1470  0.3305
  185MOL   O15144679   0.240   2.908   7.397  0.3605 -0.2031  0.1678
  185MOL   H15244680   0.079   2.780   7.549  1.7297 -0.1293 -0.6412
  185MOL   H15344681   0.015   2.631   7.553 -3.6124  0.4086 -0.5662
  185MOL   H15444682   0.081   2.581   7.209  1.2467 -0.3335 -1.2430
  185MOL   H15544683   0.127   2.459   7.323  1.7612 -1.4481  0.4760
  185MOL   H15644684   0.248   2.539   7.237  1.1618  5.2182  0.4168
  185MOL   H15744685   0.260   2.984   7.346 -1.1703  0.2630  0.2280
  185MOL   C15844686   0.280   2.629   7.495 -0.1692 -0.4842 -0.1293
  185MOL   C15944687   0.447   2.626   7.480 -0.7192 -0.6460 -0.4079
  185MOL   C16044688   0.490   2.587   7.333 -0.4566  0.0084  0.1193
  185MOL   C16144689   0.494   2.773   7.515  0.0229  0.7734 -0.0018
  185MOL   O16244690   0.536   2.850   7.424 -0.2416 -0.2579  0.2761
  185MOL   O16344691   0.459   2.806   7.643 -0.1519  0.5956 -0.3443
  185MOL   H16444692   0.262   2.676   7.591  0.1433  0.9681 -0.7549
  185MOL   H16544693   0.251   2.528   7.520 -0.2255 -1.3980 -3.5851
  185MOL   H16644694   0.456   2.662   7.263  1.9284  2.5335  1.5586
  185MOL   H16744695   0.448   2.493   7.296  2.2581  0.0137 -3.2730
  185MOL   H16844696   0.597   2.591   7.312 -0.8224  1.3404 -1.6077
  185MOL   H16944697   0.491   2.893   7.659  0.2909  1.0087 -3.0919
  185MOL   C17044698   0.495   2.514   7.581 -0.0279  0.0675 -0.0908
  185MOL   C17144699   0.642   2.467   7.609  0.3408 -0.4544 -0.2328
  185MOL   C17244700   0.739   2.594   7.620 -0.1501 -0.2328 -0.4784
  185MOL   C17344701   0.647   2.395   7.746 -0.4632  0.5398 -0.6171
  185MOL   O17444702   0.742   2.406   0.057 -0.1242 -0.3770  0.0115
  185MOL   O17544703   0.539   2.321   7.766  0.6868  0.1339 -0.2590
  185MOL   H17644704   0.458   2.547   7.678  1.3579 -0.8689  0.7866
  185MOL   H17744705   0.434   2.428   7.552  2.3766 -1.1355 -1.7965
  185MOL   H17844706   0.833   2.589   7.675 -0.2671 -0.9746 -0.3315
  185MOL   H17944707   0.692   2.671   7.682  1.7933  0.3317  0.3200
  185MOL   H18044708   0.768   2.647   7.530  1.2215 -1.6208 -0.8796
  185MOL   H18144709   0.547   2.304   0.091 -3.8005 -0.3060  0.1834
  185MOL   C18244710   0.673   2.372   7.496  0.8130  0.5872  0.0250
  185MOL   C18344711   0.822   2.320   7.458  0.2555  0.1211 -1.1538
  185MOL   C18444712   0.908   2.428   7.399 -0.8987 -0.0534  0.1406
  185MOL   C18544713   0.895   2.268   7.587 -0.0973 -0.4116 -0.0109
  185MOL   O18644714   0.985   2.334   7.644 -0.4786 -0.0810 -0.0913
  185MOL   O18744715   0.842   2.149   7.627 -0.4093 -0.7143  0.1618
  185MOL   H18844716   0.611   2.284   7.512 -1.2529  1.8066 -1.0201
  185MOL   H18944717   0.645   2.419   7.402  1.1822 -0.3402 -0.5578
  185MOL   H19044718   1.006   2.392   7.369 -1.1173  0.6663 -1.5100
  185MOL   H19144719   0.933   2.515   7.460 -0.0497  1.1348 -1.8350
  185MOL   H19244720   0.870   2.477   7.309 -2.8683 -0.5098  0.7010
  185MOL   H19344721   0.903   2.119   7.693  2.1480  1.9003 -0.8973
  185MOL   C19444722   0.808   2.193   7.357 -0.3565  0.1635 -0.1047
  185MOL   C19544723   0.780   2.221   7.201  0.8277 -0.3718 -0.0345
  185MOL   C19644724   0.658   2.313   7.179 -0.1752 -0.1452  0.6566
  185MOL   C19744725   0.907   2.278   7.137  0.0566  0.7235 -0.2325
  185MOL   O19844726   1.016   2.233   7.161 -0.5156  0.0864 -0.3882
  185MOL   O19944727   0.896   2.385   7.045  0.1793  0.1647 -0.3971
  185MOL   H20044728   0.900   2.135   7.354 -0.5012 -0.0309 -1.0396
  185MOL   H20144729   0.731   2.133   7.405 -2.7468  2.4022 -1.0102
  185MOL   H20244730   0.627   2.293   7.076 -0.7901  0.2281  0.7667
  185MOL   H20344731   0.681   2.419   7.187  0.7157 -0.3598  1.0032
  185MOL   H20444732   0.565   2.301   7.236 -1.0660 -1.8744 -1.0873
  185MOL   H20544733   0.980   2.413   7.014  0.8599  0.3835  1.5957
  185MOL   C20644734   0.752   2.078   7.136  0.0751 -0.3747  0.6025
  185MOL   C20744735   0.613   1.995   7.153  0.0068  0.3631 -0.1706
  185MOL   C20844736   0.556   1.997   7.297  0.4825  0.1916  0.1001
  185MOL   C20944737   0.510   2.057   7.058 -0.1050 -0.1370  0.6051
  185MOL   O21044738   0.534   2.066   6.937  0.4069 -0.4764  0.2173
  185MOL   O21144739   0.395   2.109   7.116 -0.8075 -0.1870  0.2851
  185MOL   H21244740   0.767   2.080   7.028 -0.1658  0.4118  0.5767
  185MOL   H21344741   0.828   2.006   7.167  1.5143  1.7132  2.0342
  185MOL   H21444742   0.528   2.095   7.335  1.1804 -0.1418  1.5260
  185MOL   H21544743   0.623   1.948   7.367  0.8029  1.0798  0.4245
  185MOL   H21644744   0.466   1.939   7.313 -1.0106  2.2799 -0.4749
  185MOL   H21744745   0.325   2.124   7.055 -1.9966  0.2509  1.7204
  185MOL   C21844746   0.639   1.850   7.099 -0.3715  0.3402 -0.4697
  185MOL   C21944747   0.550   1.721   7.118 -0.2234  0.1148  0.0739
  185MOL   C22044748   0.564   1.672   7.263  0.1378 -0.0122 -0.3495
  185MOL   C22144749   0.404   1.744   7.081  0.1457 -0.5432 -0.3322
  185MOL   O22244750   0.308   1.729   7.154 -0.1649 -0.5336 -0.1739
  185MOL   O22344751   0.400   1.781   6.951 -0.8165  0.0491  0.6155
  185MOL   H22444752   0.657   1.863   6.992 -0.9154 -1.2720 -0.7642
  185MOL   H22544753   0.736   1.825   7.141 -0.2593 -2.4786 -2.2978
  185MOL   H22644754   0.654   1.704   7.316  0.4813 -0.9527 -0.3401
  185MOL   H22744755   0.552   1.564   7.273 -1.6220  0.1932 -0.2422
  185MOL   H22844756   0.486   1.706   7.330  1.2130 -1.7572  1.8496
  185MOL   H22944757   0.313   1.809   6.928 -0.5510  0.7996  0.5217
  185MOL   C23044758   0.609   1.601   7.034 -0.0582 -0.0800 -0.4201
  185MOL   C23144759   0.763   1.575   7.053  0.4717  0.0218  0.4115
  185MOL   C23244760   0.796   1.425   7.086 -0.5009  0.5374  0.0288
  185MOL   C23344761   0.854   1.629   6.945  0.8931 -0.1756 -0.1175
  185MOL   O23444762   0.816   1.634   6.830 -0.2319 -0.3473  0.0269
  185MOL   O23544763   0.979   1.661   6.982 -0.2296  0.0311 -0.6662
  185MOL   H23644764   0.537   1.522   7.054  0.4154 -0.3568  0.2070
  185MOL   H23744765   0.583   1.624   6.931 -2.0885  0.2583  0.1645
  185MOL   H23844766   0.748   1.355   7.018 -2.2696  0.6771  1.0735
  185MOL   H23944767   0.750   1.408   7.184 -0.2656  0.5026  0.1335
  185MOL   H24044768   0.903   1.408   7.076 -0.5403 -0.2195  0.7811
  185MOL   H24144769   1.043   1.688   6.918 -1.5974  0.1492 -2.0282
  185MOL   H24244770   0.791   1.632   7.142 -2.8679  0.0611  1.4895
  186MOL     C144771   0.110   3.885   0.034  0.1235 -0.1127  0.4904
  186MOL     C244772   0.145   3.744   0.073  0.3419 -0.0896  0.6597
  186MOL     C344773   0.117   3.644   7.726 -0.0302  0.2254 -0.2337
  186MOL     C444774   0.298   3.751   0.099  0.4029  0.4343 -0.0712
  186MOL     O544775   0.362   3.858   0.121 -0.3267  0.5617 -0.1856
  186MOL     O644776   0.348   3.627   0.106 -0.3426  0.4108 -0.5376
  186MOL     H744777   0.004   3.892   0.012  0.2701  2.1157  0.4376
  186MOL     H844778   0.156   3.898   7.703 -0.6480  0.7910  0.2463
  186MOL     H944779   0.171   3.552   7.748 -0.9567  0.0498  1.4073
  186MOL    H1044780   0.159   3.682   7.633  0.3575 -0.4789 -0.3457
  186MOL    H1144781   0.013   3.614   7.710  0.1330  0.2883 -1.4420
  186MOL    H1244782   0.439   3.610   0.128 -0.8969 -2.0158  0.0271
  186MOL    H1344783   0.145   3.961   0.103 -0.0578 -0.6375  1.1594
  186MOL    C1444784   0.083   3.699   0.212  0.3454 -0.3097  0.7236
  186MOL    C1544785   7.699   3.725   0.254  0.0292  0.2800 -0.3730
  186MOL    C1644786   7.673   3.870   0.294 -0.1262 -0.7490  0.3408
  186MOL    C1744787   7.606   3.685   0.144  0.0989  0.4399 -0.0217
  186MOL    O1844788   7.523   3.757   0.089 -0.0519 -0.6775 -0.1415
  186MOL    O1944789   7.627   3.552   0.116  0.3948 -0.9531  0.2655
  186MOL    H2044790   0.095   3.592   0.225 -1.5605 -0.6517 -0.1895
  186MOL    H2144791   0.148   3.731   0.293 -0.0698  1.8260  0.2480
  186MOL    H2244792   7.580   3.897   0.342 -0.7506 -2.0511 -0.1076
  186MOL    H2344793   7.682   3.946   0.217  2.0643 -1.2336  0.0715
  186MOL    H2444794   7.750   3.911   0.360  1.3557 -2.9099  0.0138
  186MOL    H2544795   7.560   3.517   0.058  0.8248  0.1016 -0.8786
  186MOL    C2644796   7.684   3.635   0.384 -0.1420  0.3406  0.4255
  186MOL    C2744797   7.583   3.644   0.507 -0.0319  0.2520 -0.9375
  186MOL    C2844798   7.641   3.757   0.599  0.0740  0.0197  0.2065
  186MOL    C2944799   7.442   3.668   0.459  0.0258  0.4403  0.6641
  186MOL    O3044800   7.360   3.737   0.520 -0.3753 -0.5730  0.6063
  186MOL    O3144801   7.409   3.601   0.351 -0.5836 -0.6515 -0.1817
  186MOL    H3244802   7.663   3.533   0.352 -0.7661  0.6190 -0.0792
  186MOL    H3344803   0.014   3.617   0.430 -0.3024 -0.9506  0.2528
  186MOL    H3444804   7.727   3.810   0.558 -0.1089  0.3679  0.2662
  186MOL    H3544805   7.668   3.720   0.697 -0.7409  2.8992  1.5798
  186MOL    H3644806   7.562   3.829   0.622 -0.7209 -1.2345  1.4410
  186MOL    H3744807   7.318   3.602   0.326 -0.3364  0.6230 -1.0815
  186MOL    C3844808   7.588   3.503   0.582  0.1361  0.4372 -0.5071
  186MOL    C3944809   7.486   3.461   0.693 -0.1106 -0.2632 -0.1006
  186MOL    C4044810   7.555   3.342   0.766 -0.3892  0.1382  0.0081
  186MOL    C4144811   7.473   3.568   0.808  0.3002  0.3763  0.5277
  186MOL    O4244812   7.537   3.565   0.915  0.6385  0.2761 -0.3091
  186MOL    O4344813   7.392   3.673   0.780  0.7632 -0.6401 -0.4581
  186MOL    H4444814   7.574   3.427   0.506  0.5772 -0.4492  0.2819
  186MOL    H4544815   7.681   3.499   0.639 -1.0979  2.0041  1.7043
  186MOL    H4644816   7.575   3.264   0.692 -2.5187 -2.6175  2.2538
  186MOL    H4744817   7.487   3.308   0.844 -0.9721 -1.0445 -0.9921
  186MOL    H4844818   7.648   3.375   0.812 -1.1392  1.4579  0.6075
  186MOL    H4944819   7.352   3.686   0.695  1.3429 -0.6818 -0.7393
  186MOL    C5044820   7.349   3.416   0.628  0.3323  0.2323 -0.0610
  186MOL    C5144821   7.234   3.330   0.701 -0.1072 -0.6083  0.7353
  186MOL    C5244822   7.111   3.343   0.603 -0.4472  0.6716 -0.1086
  186MOL    C5344823   7.284   3.187   0.723 -0.8873 -0.3175 -0.8051
  186MOL    O5444824   7.315   3.135   0.830 -0.3500 -0.5485 -0.1715
  186MOL    O5544825   7.309   3.121   0.609  0.2779  0.2759 -0.8649
  186MOL    H5644826   7.303   3.510   0.598 -1.5671 -0.2955  1.0724
  186MOL    H5744827   7.378   3.372   0.532  1.9119  0.4080  0.3301
  186MOL    H5844828   7.073   3.444   0.591  0.4738  1.1248  0.6905
  186MOL    H5944829   7.027   3.281   0.633  0.4178  0.3948  1.8161
  186MOL    H6044830   7.150   3.296   0.512  0.1729 -0.1399  0.5710
  186MOL    H6144831   7.345   3.036   0.630 -0.3211  0.5261  1.3400
  186MOL    C6244832   7.200   3.396   0.843 -1.0718 -0.0671  0.0398
  186MOL    C6344833   7.067   3.388   0.928 -0.3794 -0.0821 -0.1690
  186MOL    C6444834   6.961   3.486   0.875 -0.0592 -0.0952 -0.0491
  186MOL    C6544835   7.002   3.247   0.924 -0.3057  0.3952 -0.0012
  186MOL    O6644836   6.898   3.222   0.866  0.0468  0.7248  0.1750
  186MOL    O6744837   7.066   3.155   0.996  0.0970  0.0306 -0.8898
  186MOL    H6844838   7.284   3.358   0.900  0.6184  2.4995 -0.6732
  186MOL    H6944839   7.201   3.505   0.840  2.3165 -0.0794 -0.3978
  186MOL    H7044840   6.997   3.588   0.864  0.6446 -0.4042 -0.6178
  186MOL    H7144841   6.872   3.502   0.936 -0.1575 -0.2883 -0.1414
  186MOL    H7244842   6.924   3.457   0.776 -2.1467  1.8447  0.1299
  186MOL    H7344843   7.158   3.174   1.007 -0.1007  1.1039 -1.0184
  186MOL    C7444844   7.114   3.428   1.075  0.2091  0.1439 -0.1225
  186MOL    C7544845   7.023   3.498   1.186  0.2269  1.0866 -0.2613
  186MOL    C7644846   6.985   3.648   1.141  0.0101 -0.2878  0.3958
  186MOL    C7744847   6.894   3.414   1.211  0.3374  0.7142  0.2974
  186MOL    O7844848   6.788   3.471   1.231  0.6282 -0.0895 -0.2927
  186MOL    O7944849   6.915   3.282   1.229  0.4097  0.6991  0.4353
  186MOL    H8044850   7.164   3.342   1.119  0.0816  0.2411  0.2163
  186MOL    H8144851   7.192   3.502   1.060  0.0698  0.7177  1.7561
  186MOL    H8244852   6.896   3.647   1.079  0.6024  2.6198 -0.6192
  186MOL    H8344853   7.059   3.691   1.073  0.7184 -0.6508  0.9341
  186MOL    H8444854   6.956   3.716   1.221 -1.7085  0.3619 -0.7548
  186MOL    H8544855   6.832   3.255   1.265 -0.3339 -0.0077 -1.7231
  186MOL    C8644856   7.091   3.490   1.331 -0.4133 -0.1261 -0.0454
  186MOL    C8744857   7.239   3.543   1.352 -0.5547  0.4420 -0.9035
  186MOL    C8844858   7.249   3.681   1.272 -0.2300 -0.5315  0.1028
  186MOL    C8944859   7.241   3.579   1.508 -0.3377  0.4301 -0.0389
  186MOL    O9044860   7.274   3.687   1.552 -0.5969  0.1598  0.8239
  186MOL    O9144861   7.209   3.475   1.589  0.7666  0.0325  0.1780
  186MOL    H9244862   7.023   3.532   1.404 -1.1030 -1.0050 -0.1699
  186MOL    H9344863   7.096   3.389   1.371  1.0384 -0.5487 -1.2213
  186MOL    H9444864   7.338   3.737   1.297  1.0569 -2.8318  0.8037
  186MOL    H9544865   7.175   3.752   1.309  0.4775 -0.2953  1.0744
  186MOL    H9644866   7.249   3.685   1.163 -2.9001  1.5317  0.1362
  186MOL    H9744867   7.218   3.503   1.679  2.5201 -0.1713  0.0707
  186MOL    C9844868   7.343   3.430   1.317 -0.2543  0.3136 -0.5199
  186MOL    C9944869   7.499   3.434   1.354  1.0176  0.3028  0.4686
  186MOL   C10044870   7.561   3.572   1.339  0.6378 -0.0712 -0.4020
  186MOL   C10144871   7.525   3.367   1.492  0.5621  0.1383  0.4126
  186MOL   O10244872   7.583   3.430   1.583 -0.3198  0.0965  0.1224
  186MOL   O10344873   7.483   3.240   1.508 -0.2130 -0.2825 -0.1190
  186MOL   H10444874   7.307   3.334   1.352 -0.3236  0.1277 -1.0939
  186MOL   H10544875   7.332   3.431   1.209 -0.1086 -0.7988 -0.5496
  186MOL   H10644876   7.669   3.580   1.342  0.8431 -2.5033  0.4198
  186MOL   H10744877   7.520   3.635   1.419 -1.3802 -2.8005  0.8260
  186MOL   H10844878   7.531   3.618   1.245 -1.8681  0.8007  0.7710
  186MOL   H10944879   7.491   3.217   1.599 -3.0863  3.9026  1.3232
  186MOL   C11044880   7.563   3.341   1.249  0.0145 -0.1000  0.2735
  186MOL   C11144881   7.721   3.311   1.228  1.0489  0.2457 -0.7025
  186MOL   C11244882   0.020   3.308   1.370 -0.0364  0.4168 -0.1997
  186MOL   C11344883   7.716   3.168   1.165  0.3052 -0.3887 -0.0535
  186MOL   O11444884   7.758   3.066   1.220 -0.5066 -0.0796 -0.1272
  186MOL   O11544885   7.639   3.159   1.054  0.2089 -0.1261  0.7246
  186MOL   H11644886   7.513   3.245   1.263  0.7490 -0.7736 -1.6116
  186MOL   H11744887   7.522   3.362   1.150  0.8071 -0.2024 -0.0747
  186MOL   H11844888   7.745   3.223   1.424  0.7159  0.2584  0.1494
  186MOL   H11944889   0.012   3.399   1.430  1.8021  1.0201 -0.8305
  186MOL   H12044890   0.120   3.268   1.353 -0.7559 -0.3747 -2.7980
  186MOL   H12144891   7.619   3.069   1.031  1.2669 -0.0583 -0.5372
  186MOL   C12244892   0.007   3.416   1.130 -0.5628  0.8085  0.2122
  186MOL   C12344893   0.158   3.415   1.075 -0.6934 -0.4961  0.2034
  186MOL   C12444894   0.253   3.446   1.198  0.0100 -0.3884  0.8003
  186MOL   C12544895   0.196   3.286   1.012  0.0213 -0.3019 -0.4989
  186MOL   O12644896   0.286   3.221   1.053  0.0548 -0.1232  0.5900
  186MOL   O12744897   0.115   3.247   0.907 -0.2714 -0.4969 -0.2905
  186MOL   H12844898   7.716   3.405   1.039 -0.7290 -1.5262  0.5462
  186MOL   H12944899   7.753   3.517   1.165  1.2661  0.5241  2.2593
  186MOL   H13044900   0.359   3.446   1.169  0.4927 -1.4676  2.4952
  186MOL   H13144901   0.251   3.383   1.287 -0.1401 -0.8564  0.4670
  186MOL   H13244902   0.229   3.542   1.242  0.6785 -0.0840  0.5097
  186MOL   H13344903   0.158   3.171   0.871 -0.0328 -0.2971 -0.4237
  186MOL   C13444904   0.148   3.538   0.972 -0.5322 -0.3668 -0.6676
  186MOL   C13544905   0.282   3.582   0.887 -0.1771  0.1459  0.5401
  186MOL   C13644906   0.241   3.721   0.829  0.3387  0.5938 -0.2307
  186MOL   C13744907   0.407   3.602   0.978 -0.6422  0.5129 -0.1463
  186MOL   O13844908   0.514   3.544   0.958 -0.3133  0.2138 -0.1660
  186MOL   O13944909   0.401   3.704   1.066 -0.1584 -0.1274 -0.1823
  186MOL   H14044910   0.059   3.536   0.909 -1.5646  0.6851  0.7058
  186MOL   H14144911   0.124   3.631   1.025  2.1881 -2.3275  4.4348
  186MOL   H14244912   0.146   3.726   0.777  0.2779 -1.7039 -0.4258
  186MOL   H14344913   0.320   3.748   0.758 -1.1433  1.7234 -1.4632
  186MOL   H14444914   0.231   3.794   0.910 -0.7238  2.5236 -2.0646
  186MOL   H14544915   0.489   3.731   1.089  0.1041 -2.4118  1.6429
  186MOL   C14644916   0.313   3.472   0.785 -0.7840  0.3828  0.2113
  186MOL   C14744917   0.392   3.490   0.644 -0.8730  0.2066 -0.0305
  186MOL   C14844918   0.430   3.349   0.598 -0.6917  0.0641  0.1633
  186MOL   C14944919   0.293   3.557   0.537 -0.2408  0.5807 -0.2328
  186MOL   O15044920   0.212   3.645   0.565  0.5428 -0.2328  1.0679
  186MOL   O15144921   0.293   3.487   0.420 -0.4058  0.0760  0.2600
  186MOL   H15244922   0.362   3.389   0.836  0.2105  0.7699 -0.0930
  186MOL   H15344923   0.222   3.425   0.748  1.0496 -1.4345 -2.2572
  186MOL   H15444924   0.487   3.354   0.504 -0.8874  0.9793  0.0919
  186MOL   H15544925   0.336   3.294   0.593 -0.1836 -0.6550 -2.6219
  186MOL   H15644926   0.505   3.300   0.661  0.3436 -1.5230 -2.1751
  186MOL   H15744927   0.235   3.537   0.364  0.4357  0.8024  0.0116
  186MOL   C15844928   0.521   3.581   0.666  0.2426 -0.6158 -0.2446
  186MOL   C15944929   0.604   3.653   0.554 -0.0141 -0.3450  0.4030
  186MOL   C16044930   0.632   3.559   0.431 -0.0296  0.4369  0.1982
  186MOL   C16144931   0.528   3.780   0.501  0.5597  1.3758 -0.8213
  186MOL   O16244932   0.483   3.781   0.391 -0.0395  0.1721 -0.2505
  186MOL   O16344933   0.497   3.870   0.596  0.5410 -0.1770 -0.2926
  186MOL   H16444934   0.516   3.660   0.742 -1.9509 -1.0067  0.0525
  186MOL   H16544935   0.593   3.515   0.714  0.5228  0.1626  0.4204
  186MOL   H16644936   0.677   3.465   0.463  1.2528  1.4115  1.2818
  186MOL   H16744937   0.696   3.609   0.358  2.2517  0.6417  2.2659
  186MOL   H16844938   0.540   3.531   0.379  0.9985 -2.2587 -0.3054
  186MOL   H16944939   0.429   3.923   0.558  0.0829  0.0296  0.8019
  186MOL   C17044940   0.743   3.709   0.620  0.0141  0.3226  0.0864
  186MOL   C17144941   0.871   3.744   0.546 -0.3751  0.8037 -0.0141
  186MOL   C17244942   0.964   3.808   0.645  0.3647 -0.3812 -0.3015
  186MOL   C17344943   0.933   3.611   0.495  0.1100 -0.5686 -0.0345
  186MOL   O17444944   0.930   3.574   0.378 -0.0401 -0.2472  0.6802
  186MOL   O17544945   0.997   3.543   0.599 -0.5965 -0.6699 -0.4412
  186MOL   H17644946   0.714   3.790   0.687 -2.2082 -0.7849  0.5234
  186MOL   H17744947   0.771   3.634   0.694  0.0254 -0.7109 -0.9447
  186MOL   H17844948   0.920   3.891   0.701 -1.3322 -1.4582  0.0012
  186MOL   H17944949   1.057   3.847   0.605 -0.1562  0.0553 -1.1000
  186MOL   H18044950   0.988   3.738   0.725  0.6002 -0.9744 -0.8931
  186MOL   H18144951   1.035   3.458   0.585 -0.0998 -0.0897 -2.8202
  186MOL   C18244952   0.839   3.844   0.426  0.0029  0.6248  0.6352
  186MOL   C18344953   0.935   3.943   0.361 -0.3182 -0.3735  1.2282
  186MOL   C18444954   0.946   4.061   0.463 -0.7035 -0.0486  0.3658
  186MOL   C18544955   1.073   3.890   0.329 -0.2643 -0.1623 -0.2398
  186MOL   O18644956   1.172   3.968   0.336 -0.2767 -0.6235 -0.1700
  186MOL   O18744957   1.070   3.768   0.277  0.2879 -0.0412  0.5291
  186MOL   H18844958   0.808   3.776   0.347 -0.4375  1.0640  0.4213
  186MOL   H18944959   0.745   3.898   0.442 -0.3001  0.4761 -0.5856
  186MOL   H19044960   0.852   4.091   0.510 -0.8582  0.8840 -0.5219
  186MOL   H19144961   0.995   4.151   0.427 -1.1354  1.1622  2.6942
  186MOL   H19244962   1.014   4.039   0.545 -1.5539 -0.0064  1.0923
  186MOL   H19344963   0.997   3.711   0.295 -0.0857  0.5067  0.7426
  186MOL   C19444964   0.881   4.022   0.234  0.3017  0.4225 -0.2433
  186MOL   C19544965   0.817   3.956   0.105 -0.2917 -0.4805 -0.4743
  186MOL   C19644966   0.922   3.867   0.034  1.0316 -0.2802  0.3183
  186MOL   C19744967   0.685   3.884   0.145  0.1827  0.2908  0.0722
  186MOL   O19844968   0.674   3.763   0.132  0.4097 -0.4805 -0.6168
  186MOL   O19944969   0.593   3.965   0.195 -0.1219  0.3820 -0.0643
  186MOL   H20044970   0.800   4.077   0.283 -0.2848 -1.3777  0.8722
  186MOL   H20144971   0.950   4.098   0.197  0.9014  0.1091  0.2171
  186MOL   H20244972   1.005   3.918   7.752  0.8000  0.9064  1.1454
  186MOL   H20344973   0.873   3.824   7.713 -0.3876  1.1307  0.3966
  186MOL   H20444974   0.954   3.773   0.078 -1.7492 -0.7976  1.3715
  186MOL   H20544975   0.516   3.914   0.215  0.2653  0.3380  1.3560
  186MOL   C20644976   0.794   4.080   0.007 -0.1625 -0.2186 -0.0585
  186MOL   C20744977   0.738   4.075   7.630  0.0823 -0.1356 -0.1537
  186MOL   C20844978   0.722   4.221   7.583 -0.3254 -0.3899  0.4349
  186MOL   C20944979   0.840   4.004   7.535 -0.5179  0.0979 -0.7663
  186MOL   O21044980   0.818   3.903   7.470 -0.6609  0.2264 -0.0317
  186MOL   O21144981   0.946   4.083   7.520 -0.5184  0.3962 -0.2311
  186MOL   H21244982   0.719   4.138   0.060  1.1865 -0.5309  2.2531
  186MOL   H21344983   0.880   4.146   0.006 -0.6402  0.4080 -1.4787
  186MOL   H21444984   0.742   4.233   7.477  0.1667  0.6858  0.6413
  186MOL   H21544985   0.793   4.282   7.639 -0.0026 -1.5191  1.2887
  186MOL   H21644986   0.618   4.249   7.596 -0.2561  1.6163 -2.8363
  186MOL   H21744987   0.999   4.046   7.450  0.4299  1.0229  0.1483
  186MOL   C21844988   0.596   4.002   7.630  0.3264  0.2954  0.0725
  186MOL   C21944989   0.494   4.008   7.505 -0.6596 -0.3673 -0.2646
  186MOL   C22044990   0.414   3.877   7.498  0.6459  0.1335  0.3707
  186MOL   C22144991   0.386   4.122   7.527  0.7427 -0.3697  0.4338
  186MOL   O22244992   0.368   4.214   7.449 -0.4373  0.2128  0.2939
  186MOL   O22344993   0.329   4.101   7.655 -0.4247  0.1629 -0.4363
  186MOL   H22444994   0.600   3.896   7.657  1.0091  0.4483  0.5914
  186MOL   H22544995   0.543   4.041   7.717 -0.9741  0.8891 -0.9611
  186MOL   H22644996   0.371   3.846   7.594 -0.3616  1.3358  0.3172
  186MOL   H22744997   0.479   3.792   7.480 -1.4960 -1.6873  0.9182
  186MOL   H22844998   0.328   3.884   7.431 -0.5860  0.2947  1.9313
  186MOL   H22944999   0.255   4.157   7.673  0.7901  1.5766  0.2845
  186MOL   C23045000   0.555   4.019   7.361 -0.1104 -0.3479  0.4598
  186MOL   C23145001   0.457   4.017   7.237 -0.7081  0.1402 -0.4993
  186MOL   C23245002   0.498   4.117   7.133 -0.6019  0.5167  0.3597
  186MOL   C23345003   0.457   3.875   7.170  0.6437  0.1040  0.4951
  186MOL   O23445004   0.552   3.794   7.180 -0.0154  0.2181 -0.1074
  186MOL   O23545005   0.349   3.859   7.086 -0.0738 -0.0098 -0.1572
  186MOL   H23645006   0.609   4.113   7.364 -0.2769 -0.1971 -1.1051
  186MOL   H23745007   0.642   3.958   7.335  1.3404  2.2567 -0.9379
  186MOL   H23845008   0.582   4.078   7.075 -2.4428  0.2986 -2.2485
  186MOL   H23945009   0.530   4.211   7.177  1.1708  0.8331 -1.5266
  186MOL   H24045010   0.414   4.136   7.067 -0.2905 -2.2273 -0.9094
  186MOL   H24145011   0.363   3.785   7.029  1.3912 -0.6439  0.9914
  186MOL   H24245012   0.357   4.046   7.268 -0.0951 -1.8490  3.7598
  187MOL     C145013   0.691   7.529   5.377 -0.2714 -0.0323 -0.3192
  187MOL     C245014   0.687   7.393   5.460 -0.0386 -0.8945  0.0719
  187MOL     C345015   0.764   7.410   5.589  0.4650  0.7698  0.1596
  187MOL     C445016   0.536   7.354   5.495 -0.3917 -0.0892 -0.3758
  187MOL     O545017   0.519   7.262   5.578  0.0736 -0.3186  0.4311
  187MOL     O645018   0.442   7.413   5.421 -0.7222  1.0234 -0.0762
  187MOL     H745019   0.632   7.532   5.286 -2.2640  4.6966  1.0125
  187MOL     H845020   0.788   7.573   5.356 -0.0821  0.1881  1.0018
  187MOL     H945021   0.869   7.435   5.570 -0.1418  2.3302 -1.2345
  187MOL    H1045022   0.766   7.323   5.655 -1.2792 -0.3743 -1.2717
  187MOL    H1145023   0.731   7.501   5.640 -0.7001 -0.3451  1.4218
  187MOL    H1245024   0.357   7.378   5.440  0.9034 -2.1397  1.7310
  187MOL    H1345025   0.638   7.606   5.433 -2.3054 -1.4156 -0.2935
  187MOL    C1445026   0.741   7.278   5.374 -0.2353  0.4375 -0.0908
  187MOL    C1545027   0.896   7.244   5.367  0.2914  0.0255 -0.3576
  187MOL    C1645028   0.974   7.370   5.314  0.8434 -0.3004  0.1707
  187MOL    C1745029   0.952   7.196   5.502  0.2473  0.1596  0.5070
  187MOL    O1845030   1.053   7.246   5.550 -0.4489 -0.6516 -0.1135
  187MOL    O1945031   0.877   7.111   5.574  0.5361  0.5615  0.0753
  187MOL    H2045032   0.697   7.190   5.420 -2.0576  0.0743 -2.3998
  187MOL    H2145033   0.694   7.289   5.276 -0.7392 -1.3417 -0.0720
  187MOL    H2245034   0.923   7.410   5.227  2.4084 -3.9807 -2.5482
  187MOL    H2345035   1.078   7.360   5.283  1.2285  0.2613  1.2358
  187MOL    H2445036   0.986   7.447   5.391 -1.0426  1.2997 -1.0790
  187MOL    H2545037   0.815   7.069   5.516  0.1823 -1.1499  1.6415
  187MOL    C2645038   0.900   7.126   5.270  0.2949 -0.0797  0.1476
  187MOL    C2745039   1.024   7.036   5.233 -0.3797  0.2731 -0.4372
  187MOL    C2845040   1.142   7.131   5.209  0.4125  0.6624 -0.4094
  187MOL    C2945041   1.058   6.935   5.348  0.1692 -0.1900  0.0204
  187MOL    O3045042   0.970   6.873   5.409 -0.7816  0.1304  0.0279
  187MOL    O3145043   1.191   6.915   5.366  0.4025 -0.0338 -0.4377
  187MOL    H3245044   0.817   7.060   5.294  0.5621 -0.4684  0.0041
  187MOL    H3345045   0.870   7.173   5.177  1.9473  0.9292  0.0921
  187MOL    H3445046   1.220   7.072   5.162 -0.9848 -0.8683 -0.8794
  187MOL    H3545047   1.178   7.164   5.306  0.3310  1.8562 -0.7774
  187MOL    H3645048   1.120   7.207   5.133  0.0248  0.1264 -0.8385
  187MOL    H3745049   1.192   6.847   5.432  1.7395 -2.4487 -2.8340
  187MOL    C3845050   1.004   6.960   5.095  0.4050 -0.5209  0.1944
  187MOL    C3945051   0.929   6.825   5.073 -0.0916 -0.9667  0.2908
  187MOL    C4045052   1.001   6.697   5.125  0.7350 -0.4655  0.7508
  187MOL    C4145053   0.788   6.835   5.140 -0.9824 -0.4948 -0.3952
  187MOL    O4245054   0.752   6.758   5.227 -0.6594 -0.2019  0.6153
  187MOL    O4345055   0.724   6.947   5.101  0.0779 -0.0047 -0.3756
  187MOL    H4445056   0.959   7.033   5.028  0.9861 -0.7891 -0.4942
  187MOL    H4545057   1.103   6.944   5.054  0.6286  0.0575  0.5077
  187MOL    H4645058   1.034   6.701   5.229 -0.1086  0.1900  0.9962
  187MOL    H4745059   1.091   6.676   5.066  0.9679 -0.0847  0.9702
  187MOL    H4845060   0.935   6.610   5.118  1.2582 -0.7581 -0.7689
  187MOL    H4945061   0.641   6.953   5.145  0.2855 -1.5010  0.2610
  187MOL    C5045062   0.895   6.797   4.919 -0.7845  0.3991 -0.4228
  187MOL    C5145063   1.005   6.766   4.811  0.3984  0.1708 -0.4180
  187MOL    C5245064   1.119   6.881   4.807  0.0839 -0.1761  0.4236
  187MOL    C5345065   1.059   6.625   4.827 -0.0437 -0.6610 -0.3879
  187MOL    O5445066   0.998   6.528   4.866  0.5975 -0.6645 -0.7685
  187MOL    O5545067   1.184   6.620   4.779 -0.1172  0.5337 -0.1372
  187MOL    H5645068   0.820   6.719   4.905 -1.2743  0.5252  1.4172
  187MOL    H5745069   0.841   6.884   4.883  0.9843  1.1104 -1.4055
  187MOL    H5845070   1.193   6.877   4.886 -0.0026  2.2742  0.6711
  187MOL    H5945071   1.076   6.980   4.826  0.2725  0.5913 -2.7718
  187MOL    H6045072   1.167   6.895   4.710 -0.2398  1.8861  0.5344
  187MOL    H6145073   1.222   6.534   4.789 -0.7609  0.2712  0.0934
  187MOL    C6245074   0.931   6.788   4.668 -0.5961 -0.0194 -0.3082
  187MOL    C6345075   0.837   6.685   4.596 -0.3590  0.6249  0.3029
  187MOL    C6445076   0.928   6.578   4.534  0.2938 -0.0019 -0.5937
  187MOL    C6545077   0.728   6.637   4.689 -0.9628 -1.3141  0.6337
  187MOL    O6645078   0.651   6.710   4.739  0.9356 -0.2788  0.3221
  187MOL    O6745079   0.728   6.503   4.703 -0.0752 -0.1897 -0.3240
  187MOL    H6845080   0.877   6.881   4.685  0.1606 -0.1989  3.4799
  187MOL    H6945081   1.003   6.822   4.594 -1.3559  1.0514 -0.5642
  187MOL    H7045082   1.006   6.618   4.470 -1.0641 -1.0749 -3.0017
  187MOL    H7145083   0.869   6.512   4.470  1.4072 -2.5517  0.9691
  187MOL    H7245084   0.985   6.510   4.597 -0.6078 -0.1570  0.0638
  187MOL    H7345085   0.652   6.484   4.755  0.7287  0.6584  1.1978
  187MOL    C7445086   0.771   6.773   4.479  0.5359 -0.4204 -0.0711
  187MOL    C7545087   0.681   6.715   4.354 -0.3306  0.2076 -0.0043
  187MOL    C7645088   0.622   6.837   4.277 -0.4355 -0.2523 -0.7750
  187MOL    C7745089   0.787   6.648   4.261 -0.2306  0.0115  0.4086
  187MOL    O7845090   0.804   6.525   4.241 -0.3919 -0.3447  0.1318
  187MOL    O7945091   0.877   6.735   4.206 -0.0514  0.0639  0.4265
  187MOL    H8045092   0.709   6.854   4.518  1.5514 -0.6304  2.0828
  187MOL    H8145093   0.856   6.828   4.437  0.7301 -0.2016  0.6021
  187MOL    H8245094   0.681   6.928   4.276  1.3239 -1.3213  1.9708
  187MOL    H8345095   0.521   6.866   4.306 -0.1359  0.6504 -0.6184
  187MOL    H8445096   0.601   6.821   4.171  1.8427  0.1531 -1.3190
  187MOL    H8545097   0.944   6.687   4.160 -1.0552 -1.3860  0.4441
  187MOL    C8645098   0.572   6.618   4.409 -0.2344  0.7201 -0.0591
  187MOL    C8745099   0.453   6.555   4.323  0.2152  0.7387  0.3156
  187MOL    C8845100   0.391   6.647   4.213 -0.2056  0.0986 -0.8705
  187MOL    C8945101   0.499   6.424   4.252  0.1531 -0.9340  0.2898
  187MOL    O9045102   0.499   6.410   4.127 -0.5516  0.7158 -0.4597
  187MOL    O9145103   0.534   6.324   4.332 -0.5646 -0.1732  0.8203
  187MOL    H9245104   0.629   6.535   4.451  0.3963  1.2213  0.0828
  187MOL    H9345105   0.538   6.661   4.504  2.1182  1.0126  0.7036
  187MOL    H9445106   0.369   6.750   4.240 -0.7218 -0.6338  1.6682
  187MOL    H9545107   0.309   6.600   4.158 -2.5847  1.4078  1.4388
  187MOL    H9645108   0.473   6.669   4.144  0.9505 -1.9204 -0.1817
  187MOL    H9745109   0.559   6.242   4.292  0.2614  0.5667 -0.2095
  187MOL    C9845110   0.334   6.499   4.415 -0.3061  0.2061 -0.5559
  187MOL    C9945111   0.213   6.584   4.463  0.0794 -0.1377 -0.4452
  187MOL   C10045112   0.263   6.705   4.543  0.3741  0.6098 -0.9488
  187MOL   C10145113   0.115   6.613   4.346  0.2951 -0.0333 -0.2349
  187MOL   O10245114   0.102   6.722   4.294 -0.4527 -0.3995 -0.1657
  187MOL   O10345115   0.046   6.503   4.297  0.1690 -0.3647 -0.0947
  187MOL   H10445116   0.281   6.419   4.364 -1.4399  0.7391 -0.2328
  187MOL   H10545117   0.367   6.447   4.505  2.4282  0.3048 -1.4816
  187MOL   H10645118   0.189   6.778   4.573 -1.0236 -0.7366 -1.0887
  187MOL   H10745119   0.343   6.754   4.486  0.6503  0.7508 -0.4450
  187MOL   H10845120   0.308   6.673   4.637 -1.5036  0.4560 -0.0858
  187MOL   H10945121   7.755   6.522   4.225 -0.0282 -0.8469 -0.0617
  187MOL   C11045122   0.129   6.484   4.554  0.1768  0.4171  0.0734
  187MOL   C11145123   0.008   6.532   4.655 -0.4246  0.1519 -0.5053
  187MOL   C11245124   7.676   6.620   4.579 -0.2358  0.3096  0.3717
  187MOL   C11345125   7.709   6.394   4.698 -0.0737 -0.8810 -0.2404
  187MOL   O11445126   0.015   6.304   4.738 -0.1411  0.0803 -0.1278
  187MOL   O11545127   7.578   6.384   4.666  0.1497 -0.0617  0.2353
  187MOL   H11645128   0.104   6.396   4.494 -0.2988  1.0008 -0.5908
  187MOL   H11745129   0.203   6.440   4.621  1.0221 -0.7458 -1.5870
  187MOL   H11845130   7.588   6.641   4.639 -0.3208  1.0193 -0.0028
  187MOL   H11945131   7.640   6.563   4.493  2.3858  0.7922 -1.1228
  187MOL   H12045132   7.717   6.712   4.537  0.4480 -0.3723 -0.4913
  187MOL   H12145133   7.544   6.302   4.699 -0.0807  0.1777  0.6046
  187MOL   C12245134   0.072   6.598   4.789  0.0003  0.1062  0.7414
  187MOL   C12345135   0.002   6.611   4.924  0.3453  0.3818 -0.4894
  187MOL   C12445136   7.619   6.637   4.903 -0.3289  0.2282 -0.0508
  187MOL   C12545137   0.015   6.478   5.002 -0.4703 -0.3071  0.4134
  187MOL   O12645138   0.107   6.400   4.987 -0.4552  0.0869 -0.1918
  187MOL   O12745139   7.685   6.470   5.098 -0.0616  0.0583 -0.3820
  187MOL   H12845140   0.172   6.557   4.804  0.3872  0.3580 -1.0690
  187MOL   H12945141   0.101   6.701   4.765 -1.1394  0.7491  2.0425
  187MOL   H13045142   7.552   6.557   4.873 -1.7786  1.9208 -1.4881
  187MOL   H13145143   7.606   6.719   4.833  1.7673  0.7364  0.1101
  187MOL   H13245144   7.587   6.673   5.001 -3.2349  0.3838 -0.9910
  187MOL   H13345145   7.686   6.386   5.139 -2.2199 -0.5488 -1.5178
  187MOL   C13445146   0.057   6.734   5.001 -0.2849  0.2981  0.0894
  187MOL   C13545147   0.205   6.760   5.058  0.3308  0.4395  0.5266
  187MOL   C13645148   0.270   6.620   5.081  0.1353 -0.2861 -0.3044
  187MOL   C13745149   0.291   6.842   4.955 -0.2808  0.1655  0.0149
  187MOL   O13845150   0.405   6.805   4.924  0.6406  0.1117  0.0443
  187MOL   O13945151   0.243   6.962   4.927  0.5555  0.3650 -0.1841
  187MOL   H14045152   0.011   6.825   4.964 -0.5718  0.4649  0.8529
  187MOL   H14145153   0.005   6.739   5.097  2.6595  1.4962  1.6769
  187MOL   H14245154   0.370   6.630   5.123  0.1499 -1.4840 -0.0319
  187MOL   H14345155   0.281   6.563   4.990  1.4603  0.5747 -0.7018
  187MOL   H14445156   0.223   6.558   5.157  0.9424  1.0655  1.3391
  187MOL   H14545157   0.300   7.015   4.873 -1.8939  1.7740 -1.4976
  187MOL   C14645158   0.179   6.855   5.185 -0.4882 -0.0757  0.2563
  187MOL   C14745159   0.298   6.912   5.280  0.1255  0.0033 -0.4435
  187MOL   C14845160   0.386   6.792   5.319  0.0401 -0.4676  0.0651
  187MOL   C14945161   0.386   7.021   5.215 -0.3933 -0.3601 -0.1451
  187MOL   O15045162   0.508   7.021   5.225 -0.6529 -0.4814 -0.6157
  187MOL   O15145163   0.311   7.127   5.170 -0.2681  0.4361 -0.2734
  187MOL   H15245164   0.100   6.928   5.168  0.0139 -0.2204 -3.0298
  187MOL   H15345165   0.122   6.780   5.240 -0.5596  0.2321  0.6035
  187MOL   H15445166   0.461   6.763   5.246  1.5712  0.7092  1.1445
  187MOL   H15545167   0.325   6.705   5.343 -0.2387 -0.8605 -1.9704
  187MOL   H15645168   0.436   6.810   5.415  0.4689 -1.1556 -0.0250
  187MOL   H15745169   0.219   7.107   5.163 -0.1469  0.0272 -0.6849
  187MOL   C15845170   0.226   6.982   5.402 -0.0630  0.1368  0.5277
  187MOL   C15945171   0.145   6.918   5.512 -0.5458  0.0034 -0.6671
  187MOL   C16045172   0.020   6.834   5.470 -0.5302  0.3971  0.5590
  187MOL   C16145173   0.234   6.817   5.584 -0.0540 -0.9946  0.3346
  187MOL   O16245174   0.212   6.700   5.596 -0.0292  0.1418  0.5980
  187MOL   O16345175   0.339   6.882   5.650 -0.4506 -0.1770  0.5074
  187MOL   H16445176   0.300   7.048   5.447 -1.0749 -0.7015  3.5479
  187MOL   H16545177   0.157   7.048   5.350 -0.7304 -0.5796  0.4961
  187MOL   H16645178   0.042   6.731   5.445 -1.9476  0.0756  0.5919
  187MOL   H16745179   7.740   6.878   5.382  0.2633 -0.3483 -0.2425
  187MOL   H16845180   7.708   6.835   5.545  0.0860  1.1138  1.2083
  187MOL   H16945181   0.394   6.832   5.709 -0.1712  1.5009  1.7128
  187MOL   C17045182   0.101   7.022   5.622  0.0036 -0.5373 -0.4312
  187MOL   C17145183   0.028   7.161   5.590 -0.1368  0.7960 -0.1078
  187MOL   C17245184   0.000   7.214   5.731 -0.1568 -0.5611 -0.0901
  187MOL   C17345185   0.125   7.252   5.513  0.1745  0.0406  0.8574
  187MOL   O17445186   0.118   7.259   5.390  0.1600  0.3411  0.2331
  187MOL   O17545187   0.225   7.311   5.584 -0.3100  0.5445 -0.1818
  187MOL   H17645188   0.047   6.963   5.696 -1.2397  2.3131  1.0426
  187MOL   H17745189   0.186   7.061   5.679 -0.5583  0.8822 -0.5400
  187MOL   H17845190   7.689   7.162   5.786 -0.3551 -0.2157 -0.0428
  187MOL   H17945191   7.756   7.321   5.746 -0.3899 -0.4364 -1.1753
  187MOL   H18045192   0.094   7.210   5.787  0.3162  1.4885 -0.7176
  187MOL   H18145193   0.220   7.308   5.678  0.3216 -0.2400 -0.1673
  187MOL   C18245194   7.670   7.138   5.503 -0.5279 -0.5305 -0.0968
  187MOL   C18345195   7.551   7.243   5.491  0.0124 -0.2435 -0.6998
  187MOL   C18445196   7.457   7.211   5.611  0.6643 -0.4128  0.1215
  187MOL   C18545197   7.586   7.389   5.509  0.0858  0.8084 -0.2998
  187MOL   O18645198   7.568   7.450   5.607  0.4111 -0.6655 -0.3775
  187MOL   O18745199   7.621   7.445   5.391 -0.2033 -0.2298  0.2925
  187MOL   H18845200   7.709   7.120   5.403 -0.0257  1.5311 -0.3018
  187MOL   H18945201   7.624   7.044   5.534  0.4625 -0.2782  2.2719
  187MOL   H19045202   7.371   7.277   5.597  1.7585  1.0323  0.1422
  187MOL   H19145203   7.488   7.245   5.709  0.0055 -0.2723  0.2803
  187MOL   H19245204   7.408   7.114   5.611  0.1715 -0.1935  2.6793
  187MOL   H19345205   7.629   7.539   5.380 -2.2930 -0.1676 -1.0662
  187MOL   C19445206   7.475   7.224   5.356  0.8520 -0.5951 -0.1680
  187MOL   C19545207   7.367   7.112   5.317 -0.6531  0.1354  0.0843
  187MOL   C19645208   7.408   6.970   5.371  0.1236 -0.3877  0.1600
  187MOL   C19745209   7.232   7.153   5.370  0.4041 -0.4960 -0.3318
  187MOL   O19845210   7.211   7.264   5.420 -0.0403  0.2559 -0.1279
  187MOL   O19945211   7.132   7.058   5.355  0.3368 -0.1780  0.0700
  187MOL   H20045212   7.422   7.316   5.333  0.6370 -0.8208 -0.5677
  187MOL   H20145213   7.553   7.234   5.280  1.3832  0.6551  0.5195
  187MOL   H20245214   7.353   6.891   5.320  1.5754  0.7028 -3.2245
  187MOL   H20345215   7.380   6.953   5.475  2.8779 -0.4577  0.9225
  187MOL   H20445216   7.515   6.949   5.363  0.5527  1.6602  0.3015
  187MOL   H20545217   7.164   6.977   5.319 -2.7834 -1.1909 -0.5419
  187MOL   C20645218   7.354   7.129   5.161  0.0662 -0.0893 -0.0220
  187MOL   C20745219   7.470   7.103   5.055  0.0928  0.4574 -0.3312
  187MOL   C20845220   7.583   7.006   5.110  0.5134 -0.3106 -0.0291
  187MOL   C20945221   7.398   7.036   4.933 -0.7986  0.1989 -0.1133
  187MOL   O21045222   7.446   6.934   4.884 -0.1442  0.2546 -0.2410
  187MOL   O21145223   7.290   7.097   4.880 -0.0651  0.4078  0.8435
  187MOL   H21245224   7.271   7.064   5.134  0.3756 -0.7507  0.6005
  187MOL   H21345225   7.308   7.225   5.136  2.6952  1.2836  0.2252
  187MOL   H21445226   7.660   6.984   5.036 -0.7532  1.9341 -2.1075
  187MOL   H21545227   7.534   6.912   5.135 -0.1224 -0.1584 -0.6656
  187MOL   H21645228   7.632   7.050   5.196 -0.9344 -0.0883  0.7001
  187MOL   H21745229   7.250   7.060   4.802  0.5707  0.1082  0.6517
  187MOL   C21845230   7.523   7.244   5.003  0.0357  0.2132  0.5987
  187MOL   C21945231   7.661   7.271   4.925  0.2351 -0.1755 -0.8162
  187MOL   C22045232   7.649   7.402   4.852 -0.2194 -0.1382 -0.2571
  187MOL   C22145233   7.759   7.276   5.041  0.0657 -0.0861  0.2991
  187MOL   O22245234   0.058   7.176   5.074  0.0210  0.5727 -0.0708
  187MOL   O22345235   7.752   7.392   5.109 -0.1817 -0.1815 -0.5347
  187MOL   H22445236   7.447   7.271   4.931  0.0972 -0.5250  0.2531
  187MOL   H22545237   7.504   7.328   5.070  1.7540  1.5370 -0.5361
  187MOL   H22645238   7.603   7.392   4.753  1.3987  1.8261 -1.2359
  187MOL   H22745239   7.744   7.449   4.827  0.9089 -2.4772 -0.4789
  187MOL   H22845240   7.595   7.483   4.900 -1.5017 -1.1574  0.0563
  187MOL   H22945241   0.041   7.388   5.186 -0.5378  0.4738 -0.2351
  187MOL   C23045242   7.695   7.162   4.813 -0.0142 -0.8700 -0.4532
  187MOL   C23145243   0.068   7.174   4.742  0.1582  0.6045  0.6534
  187MOL   C23245244   0.098   7.051   4.656 -0.2702  0.2032 -0.1682
  187MOL   C23345245   0.097   7.294   4.655  0.8000 -0.4348  0.5012
  187MOL   O23445246   0.015   7.342   4.578 -0.1356  0.0124  0.2135
  187MOL   O23545247   0.227   7.332   4.650  0.0226  0.1405 -0.0086
  187MOL   H23645248   7.687   7.057   4.841 -0.3300 -0.8080 -0.3151
  187MOL   H23745249   7.612   7.161   4.743  1.1592 -0.2033 -1.9040
  187MOL   H23845250   0.205   7.036   4.642 -0.3037  1.3121 -1.7045
  187MOL   H23945251   0.053   7.056   4.557 -0.7329  3.2648  0.1399
  187MOL   H24045252   0.055   6.962   4.701 -0.0871  0.3702  0.3417
  187MOL   H24145253   0.273   7.299   4.725 -0.1561  1.7358  0.8163
  187MOL   H24245254   0.150   7.166   4.814 -0.4084 -0.9106  1.1340
  188MOL     C145255   6.918   7.257   6.846 -0.8430 -0.0273 -0.2356
  188MOL     C245256   6.977   7.326   6.717  0.2610 -0.2426 -0.2121
  188MOL     C345257   6.969   7.479   6.753 -0.5257 -0.3471  0.0284
  188MOL     C445258   7.122   7.280   6.692 -0.2375 -0.3112 -0.0228
  188MOL     O545259   7.151   7.156   6.692 -0.5191  0.0106 -0.2470
  188MOL     O645260   7.206   7.385   6.659  0.1059 -0.3082 -0.3932
  188MOL     H745261   6.913   7.150   6.823 -0.3227  0.0560 -0.7512
  188MOL     H845262   6.823   7.301   6.877 -0.8237 -0.5915  0.6301
  188MOL     H945263   6.987   7.541   6.665 -0.6483  1.6488  1.3589
  188MOL    H1045264   7.048   7.500   6.825 -1.4283 -2.1793  1.5863
  188MOL    H1145265   6.878   7.524   6.794 -0.1542  1.1913 -0.7838
  188MOL    H1245266   7.291   7.344   6.659 -0.4353 -1.4907 -2.4181
  188MOL    H1345267   6.980   7.264   6.935 -1.2671 -0.0709  0.0591
  188MOL    C1445268   6.887   7.278   6.602  0.8643 -0.4207 -0.4725
  188MOL    C1545269   6.838   7.361   6.484  0.3763 -0.3423 -0.1837
  188MOL    C1645270   6.734   7.458   6.541  0.0816  0.0335  0.7182
  188MOL    C1745271   6.941   7.449   6.408 -0.2252 -0.4534 -0.2860
  188MOL    O1845272   6.923   7.569   6.370  0.1735  1.0753  0.5779
  188MOL    O1945273   7.050   7.378   6.384 -0.7155 -0.3293  0.4541
  188MOL    H2045274   6.936   7.195   6.552  3.3216 -0.3681  1.6882
  188MOL    H2145275   6.799   7.231   6.646  0.7460  0.2555  0.0196
  188MOL    H2245276   6.674   7.500   6.460 -0.3509 -1.6553  0.1530
  188MOL    H2345277   6.782   7.541   6.593  1.5164 -0.6966  0.5948
  188MOL    H2445278   6.663   7.398   6.598 -1.6835  1.5442  0.1558
  188MOL    H2545279   7.106   7.436   6.335 -1.7127  0.6625  0.4609
  188MOL    C2645280   6.780   7.250   6.383 -0.2343  0.1476  0.2052
  188MOL    C2745281   6.660   7.268   6.273  0.0134 -0.5359 -0.0912
  188MOL    C2845282   6.698   7.385   6.185 -0.4491  0.1672 -0.2985
  188MOL    C2945283   6.668   7.138   6.185 -0.4429  0.1470 -0.7130
  188MOL    O3045284   6.683   7.144   6.064 -0.1340  0.6089  0.5959
  188MOL    O3145285   6.679   7.019   6.250 -0.1281 -0.0499  0.1690
  188MOL    H3245286   6.863   7.204   6.330 -0.4211 -0.1339  0.1599
  188MOL    H3345287   6.740   7.171   6.447 -0.4320 -1.5252 -1.9457
  188MOL    H3445288   6.692   7.482   6.235  0.0518  0.2619 -0.4244
  188MOL    H3545289   6.639   7.397   6.093  0.4931 -0.7380 -1.0373
  188MOL    H3645290   6.798   7.374   6.144 -0.4834 -0.1801 -0.2914
  188MOL    H3745291   6.660   6.945   6.194 -2.5145 -0.0347  0.8926
  188MOL    C3845292   6.524   7.301   6.339 -0.5679 -0.3131  0.5062
  188MOL    C3945293   6.381   7.255   6.296 -0.3048  0.1079  0.3520
  188MOL    C4045294   6.357   7.293   6.148 -0.1726 -0.6592 -0.0611
  188MOL    C4145295   6.374   7.101   6.319 -0.0533 -0.3339 -0.5960
  188MOL    O4245296   6.440   7.039   6.403  0.2876 -0.1874 -0.0174
  188MOL    O4345297   6.284   7.035   6.244 -0.0557  0.6131 -0.0100
  188MOL    H4445298   6.540   7.271   6.442  0.2192 -2.0093 -0.0971
  188MOL    H4545299   6.510   7.409   6.340  1.7788  0.0190  0.3709
  188MOL    H4645300   6.263   7.267   6.099 -0.0001 -0.3928 -0.5397
  188MOL    H4745301   6.429   7.242   6.083  0.1604  0.1071 -0.2982
  188MOL    H4845302   6.377   7.399   6.134 -0.7519 -0.0956  3.0441
  188MOL    H4945303   6.308   6.945   6.258  0.4768  0.4587 -1.8140
  188MOL    C5045304   6.269   7.333   6.372  0.2967  0.4371 -0.0712
  188MOL    C5145305   6.268   7.372   6.522  0.4333  0.3050  0.0460
  188MOL    C5245306   6.115   7.391   6.550 -0.7127  0.6058 -0.7193
  188MOL    C5345307   6.323   7.260   6.609 -0.7065 -0.1355  0.2624
  188MOL    O5445308   6.438   7.256   6.656  0.1076 -0.2363  0.6524
  188MOL    O5545309   6.234   7.163   6.632 -0.2121 -0.1270  0.1382
  188MOL    H5645310   6.253   7.430   6.325 -0.5236  1.3691  2.0747
  188MOL    H5745311   6.179   7.279   6.344 -1.3779  2.6563  0.9259
  188MOL    H5845312   6.082   7.483   6.503 -0.2908  1.8093  1.2982
  188MOL    H5945313   6.097   7.418   6.654 -1.7517  1.6545 -1.1593
  188MOL    H6045314   6.056   7.301   6.529  2.6704 -1.9817  0.3330
  188MOL    H6145315   6.273   7.089   6.676 -0.4597  0.0330  0.6330
  188MOL    C6245316   6.353   7.503   6.536 -0.1935 -0.2206 -0.9659
  188MOL    C6345317   6.328   7.617   6.641 -0.0668 -0.3268 -0.4735
  188MOL    C6445318   6.224   7.710   6.574 -0.6622  0.0857 -0.3290
  188MOL    C6545319   6.276   7.565   6.778 -0.2282  0.4507 -0.2073
  188MOL    O6645320   6.178   7.619   6.824 -0.6755 -0.2169  0.1405
  188MOL    O6745321   6.349   7.468   6.834  0.2916  0.3524 -0.2316
  188MOL    H6845322   6.456   7.472   6.546 -0.0264  0.2345 -1.2599
  188MOL    H6945323   6.356   7.543   6.435  0.4106 -0.0575 -0.8843
  188MOL    H7045324   6.121   7.676   6.575 -1.9043  3.5856  1.5607
  188MOL    H7145325   6.249   7.734   6.471  0.9269 -1.9945 -0.4575
  188MOL    H7245326   6.216   0.042   6.620  1.9272 -0.0096  0.4259
  188MOL    H7345327   6.317   7.440   6.918  0.8320 -0.0902 -0.1756
  188MOL    C7445328   6.474   7.690   6.653  0.1686  0.1145 -0.5028
  188MOL    C7545329   6.524   0.021   6.768  0.3583  0.1123 -0.1132
  188MOL    C7645330   6.414   0.126   6.784 -0.0470 -0.3310 -0.4321
  188MOL    C7745331   6.549   7.718   6.905 -0.4646  0.3429  0.6421
  188MOL    O7845332   6.512   7.765   7.008 -0.3649  0.4778  0.5031
  188MOL    O7945333   6.602   7.596   6.886 -0.3557 -0.0228 -0.1061
  188MOL    H8045334   6.544   7.607   6.654 -0.3899 -0.3523  1.2299
  188MOL    H8145335   6.484   7.741   6.557 -0.3954  0.4749 -0.3703
  188MOL    H8245336   6.436   0.188   6.871  1.4663  1.6970 -2.2392
  188MOL    H8345337   6.323   0.078   6.822  0.7894  0.1770  2.3094
  188MOL    H8445338   6.390   0.180   6.693  2.3842  2.4786  0.5233
  188MOL    H8545339   6.624   7.551   6.966 -0.4550  0.1335  0.0095
  188MOL    C8645340   6.670   0.088   6.741 -0.1947  0.2137 -0.2938
  188MOL    C8745341   6.714   0.167   6.609  0.3532 -0.3757  0.5095
  188MOL    C8845342   6.748   0.064   6.495 -0.0091  0.3025  1.1509
  188MOL    C8945343   6.611   0.267   6.566 -0.1390  0.5701 -0.6667
  188MOL    O9045344   6.574   0.370   6.624 -0.1966  0.0897 -0.6801
  188MOL    O9145345   6.549   0.230   6.448  0.3086  0.0998 -0.0674
  188MOL    H9245346   6.670   0.159   6.824  0.4741  0.8729 -0.8528
  188MOL    H9345347   6.749   0.017   6.766  0.8921  1.1420 -1.0225
  188MOL    H9445348   6.680   7.746   6.501 -0.4435  0.5179 -0.5367
  188MOL    H9545349   6.846   0.017   6.498 -0.0171  0.1626 -0.4618
  188MOL    H9645350   6.741   0.112   6.398 -0.8086  0.2050  1.1581
  188MOL    H9745351   6.583   0.150   6.409 -0.6161 -0.4451  0.2404
  188MOL    C9845352   6.849   0.241   6.656 -0.1292 -0.3537 -0.3328
  188MOL    C9945353   6.942   0.337   6.569  0.4057 -0.2160 -0.3769
  188MOL   C10045354   7.066   0.371   6.655 -0.3419  0.1377 -0.6105
  188MOL   C10145355   6.993   0.256   6.452  0.4777  0.6361 -0.0068
  188MOL   O10245356   7.095   0.185   6.456  0.2244 -0.5640 -0.1310
  188MOL   O10345357   6.912   0.265   6.343 -0.2450 -0.0571  0.3435
  188MOL   H10445358   6.820   0.297   6.745 -1.3361 -0.0601 -0.8989
  188MOL   H10545359   6.914   0.160   6.690  0.6240  1.7123  3.4501
  188MOL   H10645360   7.041   0.440   6.735  1.2777  0.6549 -0.5311
  188MOL   H10745361   7.143   0.418   6.595 -0.8871 -0.0932 -1.5004
  188MOL   H10845362   7.113   0.288   6.708 -0.3875 -1.1279 -2.4917
  188MOL   H10945363   6.930   0.204   6.273 -0.4106 -0.6113  0.7843
  188MOL   C11045364   6.868   0.473   6.528 -0.3447 -0.3652 -0.1551
  188MOL   C11145365   6.928   0.612   6.512 -1.0822 -0.6559 -0.1923
  188MOL   C11245366   6.986   0.676   6.642  0.2606  0.7218  1.1033
  188MOL   C11345367   7.042   0.612   6.405  0.0159 -0.4240 -0.3737
  188MOL   O11445368   7.063   0.511   6.336 -0.4209  0.2100  0.0584
  188MOL   O11545369   7.108   0.732   6.402 -0.0287 -0.1624 -0.7867
  188MOL   H11645370   6.798   0.452   6.448  0.7108  1.0485 -1.4903
  188MOL   H11745371   6.798   0.483   6.611 -0.7032  0.2327 -0.5331
  188MOL   H11845372   7.022   0.777   6.622 -1.7149  1.0910 -0.7781
  188MOL   H11945373   7.082   0.635   6.675  1.0330  2.2949  0.8179
  188MOL   H12045374   6.929   0.687   6.735  1.9562  1.7235  2.0453
  188MOL   H12145375   7.179   0.720   6.341 -0.2079 -2.3262 -0.6209
  188MOL   C12245376   6.811   0.717   6.465 -0.5905  0.4993  0.5185
  188MOL   C12345377   6.715   0.695   6.335  0.5500 -0.0113  0.6385
  188MOL   C12445378   6.788   0.624   6.221 -0.3165 -0.1807 -0.6362
  188MOL   C12545379   6.591   0.606   6.379  0.2069 -0.2536 -0.6826
  188MOL   O12645380   6.553   0.506   6.330  0.1443 -0.0109  0.0354
  188MOL   O12745381   6.538   0.655   6.494 -0.4863  1.0966  0.3850
  188MOL   H12845382   6.753   0.740   6.554 -1.1168 -2.8820  1.0867
  188MOL   H12945383   6.870   0.808   6.453 -1.3998  1.0179  0.4440
  188MOL   H13045384   6.843   0.532   6.241 -0.2481 -0.5851 -2.5554
  188MOL   H13145385   6.852   0.702   6.181 -0.1911 -1.4698 -3.0804
  188MOL   H13245386   6.720   0.597   6.140  0.6290  1.1492 -1.8984
  188MOL   H13345387   6.472   0.591   6.517  0.9472 -0.5623  0.0347
  188MOL   C13445388   6.663   0.841   6.293 -0.1592  0.6889  0.3474
  188MOL   C13545389   6.607   0.881   6.143  0.5468 -0.0539 -0.6682
  188MOL   C13645390   6.492   0.773   6.102 -0.3057  0.2813  0.1425
  188MOL   C13745391   6.531   1.014   6.155 -1.0688  0.1042 -0.2571
  188MOL   O13845392   6.552   1.093   6.250 -0.4461 -0.4929 -0.0022
  188MOL   O13945393   6.446   1.048   6.058  0.4916  0.5320  0.7027
  188MOL   H14045394   6.585   0.870   6.364 -0.4366 -1.5607  1.0144
  188MOL   H14145395   6.736   0.919   6.313 -0.1644  0.3641  1.7147
  188MOL   H14245396   6.405   0.787   6.167 -0.5218  0.6232 -0.2177
  188MOL   H14345397   6.519   0.668   6.096 -0.9803  0.2690 -3.5644
  188MOL   H14445398   6.471   0.794   5.997  0.9411 -0.6960 -0.3175
  188MOL   H14545399   6.390   1.122   6.075 -1.2363 -0.4593 -0.5237
  188MOL   C14645400   6.705   0.878   6.030  0.2217  0.2133  0.2929
  188MOL   C14745401   6.839   0.965   6.006  0.4136  0.4366  0.4008
  188MOL   C14845402   6.800   1.115   5.956  0.3396  0.6873  0.5346
  188MOL   C14945403   6.929   0.969   6.135 -0.8785 -0.2194 -0.2788
  188MOL   O15045404   7.018   0.894   6.162 -0.6034  0.6422  0.1265
  188MOL   O15145405   6.910   1.093   6.199  0.4540  0.1623 -0.3913
  188MOL   H15245406   6.731   0.774   6.007 -0.8909  0.2070 -0.9615
  188MOL   H15345407   6.638   0.909   5.950 -1.5659  1.0955  2.0874
  188MOL   H15445408   6.734   1.114   5.869  0.9194  2.9439  0.0391
  188MOL   H15545409   6.893   1.163   5.924  1.8039 -1.8696  0.7993
  188MOL   H15645410   6.751   1.176   6.031  1.3308 -0.9887  2.5988
  188MOL   H15745411   6.960   1.091   6.279 -0.6168 -1.9823  0.2759
  188MOL   C15845412   6.917   0.891   5.888 -0.1451 -0.2955  0.0987
  188MOL   C15945413   7.047   0.940   5.811  0.1013 -0.0726  0.7571
  188MOL   C16045414   7.009   1.065   5.718 -0.1223 -0.7799  0.9045
  188MOL   C16145415   7.160   0.980   5.908 -0.1491  0.6757  0.6827
  188MOL   O16245416   7.203   1.097   5.913 -0.4545  0.3182  0.4201
  188MOL   O16345417   7.222   0.878   5.980  0.0576 -0.4389  0.6185
  188MOL   H16445418   6.934   0.787   5.916  1.1308 -0.2749 -0.5135
  188MOL   H16545419   6.840   0.893   5.811 -0.8180 -0.0890  0.7832
  188MOL   H16645420   7.021   1.160   5.771  0.8715 -0.1600 -0.4118
  188MOL   H16745421   6.908   1.055   5.678 -0.8811  2.2210  1.9402
  188MOL   H16845422   7.079   1.071   5.635  1.4839 -1.3659  2.1888
  188MOL   H16945423   7.284   0.914   6.041 -0.3168  2.2556 -0.4981
  188MOL   C17045424   7.103   0.818   5.718 -0.6128 -0.1268  0.7155
  188MOL   C17145425   7.036   0.760   5.587  0.5945  0.1223 -0.0964
  188MOL   C17245426   7.049   0.862   5.467  0.5472  0.0810  0.0585
  188MOL   C17345427   7.128   0.641   5.549 -0.3494  0.0440 -0.0229
  188MOL   O17445428   7.206   0.640   5.456  0.7608 -0.0223  0.3559
  188MOL   O17545429   7.107   0.536   5.633  0.6203  0.5290  0.8140
  188MOL   H17645430   7.208   0.840   5.695 -0.4985  1.8946  2.8791
  188MOL   H17745431   7.105   0.730   5.782 -0.5107 -0.7759 -0.1778
  188MOL   H17845432   7.150   0.902   5.460  1.0877 -1.5191 -1.3978
  188MOL   H17945433   6.977   0.944   5.456 -0.8715 -0.9636  1.3037
  188MOL   H18045434   7.044   0.805   5.375  2.3014 -1.4993  0.9192
  188MOL   H18145435   7.154   0.459   5.605 -0.3970  0.4470 -0.7319
  188MOL   C18245436   6.887   0.716   5.618  0.1886  0.6065 -0.3484
  188MOL   C18345437   6.792   0.642   5.514  0.2566  0.4165  0.3238
  188MOL   C18445438   6.669   0.621   5.608 -0.0949 -0.5785  1.0821
  188MOL   C18545439   6.765   0.741   5.402 -0.9057  0.3381 -0.0085
  188MOL   O18645440   6.672   0.822   5.411 -0.4897  0.1554 -0.8812
  188MOL   O18745441   6.838   0.724   5.294 -0.5697 -0.2418  1.0737
  188MOL   H18845442   6.882   0.663   5.714  2.7816  2.9973  1.1762
  188MOL   H18945443   6.840   0.813   5.634  1.5985  1.0418  1.3785
  188MOL   H19045444   6.585   0.587   5.547  0.5164 -0.9973  0.4594
  188MOL   H19145445   6.628   0.713   5.648 -0.2393 -0.0157 -0.3418
  188MOL   H19245446   6.691   0.551   5.688 -0.5801 -0.2814  1.4760
  188MOL   H19345447   6.814   0.789   5.231 -1.6117  0.1025  1.8164
  188MOL   C19445448   6.843   0.504   5.462  0.1708 -0.4951  0.1211
  188MOL   C19545449   6.767   0.393   5.395  0.6015  0.9583 -0.4225
  188MOL   C19645450   6.682   0.324   5.512  0.0458  0.0559 -0.4877
  188MOL   C19745451   6.662   0.436   5.282 -0.3823  0.1676  0.7428
  188MOL   O19845452   6.552   0.382   5.272 -0.3578 -0.6095 -0.1713
  188MOL   O19945453   6.715   0.517   5.188 -0.0118 -0.3699  0.5538
  188MOL   H20045454   6.925   0.515   5.392 -1.1045 -3.3876 -1.9525
  188MOL   H20145455   6.891   0.455   5.547 -2.0283  0.3868  1.9217
  188MOL   H20245456   6.749   0.303   5.595 -0.4423  2.0704  0.4705
  188MOL   H20345457   6.641   0.229   5.480 -0.9733 -0.0843  1.1768
  188MOL   H20445458   6.591   0.381   5.533 -0.1445  0.3829 -2.1105
  188MOL   H20545459   6.804   0.540   5.211  0.3802  1.5583 -2.5375
  188MOL   C20645460   6.848   0.267   5.336 -0.1915  1.1435 -0.6754
  188MOL   C20745461   6.986   0.269   5.261  0.8725  0.6014 -0.5395
  188MOL   C20845462   7.006   0.126   5.206  0.1775 -0.1019 -0.6567
  188MOL   C20945463   6.977   0.374   5.152  0.5782 -0.3234 -0.1513
  188MOL   O21045464   7.036   0.482   5.155  0.3109 -0.3791 -0.3701
  188MOL   O21145465   6.898   0.335   5.053 -0.2015 -0.2047  0.7071
  188MOL   H21245466   6.860   0.202   5.423 -4.0083  0.4196 -0.5954
  188MOL   H21345467   6.776   0.202   5.286 -0.6158  2.4622 -1.8047
  188MOL   H21445468   7.092   0.109   5.141  1.3030  2.1178  0.2141
  188MOL   H21545469   6.919   0.084   5.154 -0.4224  0.6177 -0.2382
  188MOL   H21645470   7.028   0.058   5.288 -0.9368 -0.1077 -0.3551
  188MOL   H21745471   6.896   0.403   4.987 -0.0963 -1.9000 -1.0790
  188MOL   C21845472   7.104   0.292   5.364  0.5771  0.2784 -0.1815
  188MOL   C21945473   7.257   0.277   5.335  0.2071 -0.0601 -0.0809
  188MOL   C22045474   7.305   0.371   5.223  0.6995 -0.4178  0.3151
  188MOL   C22145475   7.330   0.334   5.466 -0.3174 -0.6834  0.2182
  188MOL   O22245476   7.272   0.348   5.573  0.0647 -0.9300  0.0156
  188MOL   O22345477   7.457   0.380   5.449  1.3126 -0.6213 -0.0310
  188MOL   H22445478   7.094   0.399   5.379 -1.6365  0.0580  0.0674
  188MOL   H22545479   7.076   0.246   5.459  2.5178 -0.7568 -0.0884
  188MOL   H22645480   7.252   0.348   5.131 -1.3420 -1.7265  1.7771
  188MOL   H22745481   7.411   0.364   5.198  0.7602 -0.4731  0.5840
  188MOL   H22845482   7.281   0.477   5.230  1.2257 -0.2951  0.3303
  188MOL   H22945483   7.485   0.428   5.525 -1.1980  1.5501 -0.3997
  188MOL   C23045484   7.312   0.133   5.315  0.2155 -0.1489 -0.0875
  188MOL   C23145485   7.278   0.023   5.429  0.1895  0.5533  0.1997
  188MOL   C23245486   7.258   7.651   5.369  0.1013  0.6744  0.0024
  188MOL   C23345487   7.401   0.020   5.527 -0.3323 -0.5823  0.3105
  188MOL   O23445488   7.503   7.727   5.490 -0.4329 -0.0884  0.0283
  188MOL   O23545489   7.378   0.081   5.637 -0.2554  0.0807  0.1373
  188MOL   H23645490   7.276   0.106   5.216  0.1061 -0.9678  0.1720
  188MOL   H23745491   7.419   0.133   5.295 -0.1949 -0.9870 -2.4531
  188MOL   H23845492   7.280   7.575   5.444  2.1214  0.2253 -1.0162
  188MOL   H23945493   7.326   7.626   5.288 -0.8849 -0.1596 -0.5695
  188MOL   H24045494   7.155   7.635   5.338  0.0055  0.6207  0.3409
  188MOL   H24145495   7.449   0.084   5.700  1.5635  0.8187 -1.9007
  188MOL   H24245496   7.189   0.047   5.488 -0.3818 -0.7634 -0.1179
  189MOL     C145497   0.665   1.833   2.345 -0.1320  0.0482  0.3212
  189MOL     C245498   0.707   1.679   2.330 -0.4192 -0.4476 -0.3502
  189MOL     C345499   0.759   1.628   2.468  0.0841 -0.0691 -0.7238
  189MOL     C445500   0.584   1.594   2.297  0.0810 -0.4651  0.5897
  189MOL     O545501   0.466   1.634   2.288  0.0101 -0.1787 -0.3958
  189MOL     O645502   0.624   1.467   2.274  0.1671 -0.5621 -0.1214
  189MOL     H745503   0.758   1.885   2.364 -0.4338 -0.2671  2.8607
  189MOL     H845504   0.593   1.851   2.425  0.0374  0.5610  0.3588
  189MOL     H945505   0.688   1.637   2.550 -2.2310  0.2189 -2.6985
  189MOL    H1045506   0.842   1.693   2.498 -1.8143  2.6303 -1.0953
  189MOL    H1145507   0.784   1.523   2.462 -0.6874 -0.3100  0.1174
  189MOL    H1245508   0.549   1.416   2.248  0.1495 -0.4962 -0.1989
  189MOL    H1345509   0.614   1.871   2.257 -0.2895  0.5571  0.6261
  189MOL    C1445510   0.818   1.662   2.227 -0.0551 -0.8166  0.1107
  189MOL    C1545511   0.810   1.707   2.078 -0.1135  0.1944 -0.1194
  189MOL    C1645512   0.674   1.663   2.014 -0.9688  0.2372  0.0719
  189MOL    C1745513   0.832   1.868   2.061  0.4917 -0.1548  0.3063
  189MOL    O1845514   0.788   1.927   1.964  0.0316 -0.2076 -0.4099
  189MOL    O1945515   0.881   1.935   2.168 -0.7199  0.1970  0.1443
  189MOL    H2045516   0.910   1.694   2.275  0.5755 -1.0753 -0.9103
  189MOL    H2145517   0.840   1.557   2.210 -1.5269 -0.6955 -3.0595
  189MOL    H2245518   0.667   1.557   2.034  1.0637  0.0825  0.1101
  189MOL    H2345519   0.670   1.670   1.905 -0.1695  0.3075  0.0383
  189MOL    H2445520   0.582   1.710   2.050  0.1634  1.0883  1.9564
  189MOL    H2545521   0.877   2.030   2.164 -0.2583  0.2629  1.1615
  189MOL    C2645522   0.912   1.633   1.984  0.1494  0.2094 -0.0825
  189MOL    C2745523   1.069   1.642   2.001  0.6249  0.3646  0.6631
  189MOL    C2845524   1.125   1.784   1.957 -0.1930 -0.0169 -0.0291
  189MOL    C2945525   1.122   1.608   2.141 -0.0868  0.4177 -0.2381
  189MOL    O3045526   1.181   1.681   2.222 -0.7836  0.0820  0.2726
  189MOL    O3145527   1.083   1.482   2.176  0.0083 -0.7005  0.0455
  189MOL    H3245528   0.891   1.526   1.989 -0.2623  0.3079  0.2999
  189MOL    H3345529   0.893   1.649   1.878 -1.5129 -1.2599 -0.0236
  189MOL    H3445530   1.097   1.802   1.853  4.5956 -1.1947 -1.6707
  189MOL    H3545531   1.232   1.794   1.976  0.1234 -2.1424 -0.4861
  189MOL    H3645532   1.084   1.862   2.020 -0.4806 -2.8218  3.4374
  189MOL    H3745533   1.113   1.453   2.260  1.8077 -0.9841 -0.6845
  189MOL    C3845534   1.126   1.543   1.895  0.0679 -1.0909 -0.1177
  189MOL    C3945535   1.278   1.529   1.848 -0.0127 -0.3943 -0.3556
  189MOL    C4045536   1.328   1.641   1.764  0.1375  0.3662  0.5534
  189MOL    C4145537   1.370   1.514   1.976  0.2619  1.2741  0.0949
  189MOL    O4245538   1.449   1.601   2.004 -0.3485 -0.0796 -0.3870
  189MOL    O4345539   1.356   1.393   2.047  0.0727 -0.1275 -0.6498
  189MOL    H4445540   1.104   1.441   1.925 -2.8846 -0.4639 -0.0241
  189MOL    H4545541   1.058   1.551   1.811 -0.7597  2.5537  0.7873
  189MOL    H4645542   1.253   1.658   1.687 -0.3700 -0.9848  0.7386
  189MOL    H4745543   1.418   1.620   1.706  0.7157  1.8881  0.8551
  189MOL    H4845544   1.344   1.730   1.825 -2.5303  1.7561 -0.6790
  189MOL    H4945545   1.413   1.373   2.120 -1.7885  1.4239  1.3037
  189MOL    C5045546   1.288   1.391   1.773 -0.8589  0.4486 -0.0706
  189MOL    C5145547   1.403   1.343   1.676 -0.6697  0.0929  0.4336
  189MOL    C5245548   1.540   1.361   1.757 -0.1235 -0.6328 -0.2926
  189MOL    C5345549   1.383   1.187   1.666  0.1693 -0.7083  0.5497
  189MOL    O5445550   1.479   1.114   1.657  0.9153  0.4375 -0.4600
  189MOL    O5545551   1.258   1.140   1.645  0.8129 -0.3184  0.1841
  189MOL    H5645552   1.277   1.315   1.850  2.8735 -0.0542  0.0405
  189MOL    H5745553   1.195   1.388   1.716 -0.3777  0.9161 -0.8893
  189MOL    H5845554   1.543   1.323   1.859 -1.1476 -0.0353 -0.0396
  189MOL    H5945555   1.579   1.463   1.761  0.7199 -0.9915  1.0336
  189MOL    H6045556   1.625   1.316   1.705 -1.5388 -2.1384 -1.3613
  189MOL    H6145557   1.263   1.046   1.642  0.6338 -0.3206 -0.0591
  189MOL    C6245558   1.406   1.414   1.537 -0.0545 -0.5324 -0.1420
  189MOL    C6345559   1.437   1.353   1.399 -0.2723 -0.7005  0.4271
  189MOL    C6445560   1.562   1.263   1.408  0.3152 -0.1504  1.1100
  189MOL    C6545561   1.314   1.275   1.351 -0.3383  0.0492  0.8050
  189MOL    O6645562   1.203   1.282   1.392 -0.3151  0.5243  0.3363
  189MOL    O6745563   1.353   1.190   1.248  0.8089 -0.2635 -1.2069
  189MOL    H6845564   1.315   1.474   1.539 -0.4519 -1.1513  1.4011
  189MOL    H6945565   1.484   1.490   1.540  0.4331 -1.0745  1.1855
  189MOL    H7045566   1.606   1.253   1.308 -2.8738 -1.2770 -0.2571
  189MOL    H7145567   1.539   1.159   1.431  0.3485 -0.0966  1.3850
  189MOL    H7245568   1.636   1.302   1.478  0.2201 -0.5674  1.4429
  189MOL    H7345569   1.272   1.147   1.226 -0.2608 -0.3044  2.4205
  189MOL    C7445570   1.488   1.471   1.301  0.2202 -0.4207 -0.7068
  189MOL    C7545571   1.415   1.603   1.261  0.2723  0.0425 -0.4366
  189MOL    C7645572   1.264   1.576   1.238 -0.2505  0.0080  0.2310
  189MOL    C7745573   1.436   1.715   1.368 -0.0112 -0.0518  0.9923
  189MOL    O7845574   1.514   1.700   1.460 -0.8666  0.1147  0.0283
  189MOL    O7945575   1.347   1.818   1.356 -0.5551  0.3744 -0.8000
  189MOL    H8045576   1.586   1.496   1.343  0.3499 -1.3982 -0.4090
  189MOL    H8145577   1.523   1.427   1.208  1.9412 -0.8140  0.0911
  189MOL    H8245578   1.204   1.540   1.322  1.4484  1.3634  2.0815
  189MOL    H8345579   1.233   1.500   1.167  0.0273  1.0927 -1.0694
  189MOL    H8445580   1.220   1.673   1.215  0.4853 -0.1861 -2.1566
  189MOL    H8545581   1.367   1.880   1.424 -1.0830  0.2286 -0.5120
  189MOL    C8645582   1.472   1.649   1.123  0.2664  0.1454  0.3961
  189MOL    C8745583   1.617   1.698   1.090  1.1305 -0.6913  0.2893
  189MOL    C8845584   1.642   1.671   0.945 -0.1241  0.8968 -0.1348
  189MOL    C8945585   1.613   1.849   1.122  0.3571 -0.4471 -0.7924
  189MOL    O9045586   1.667   1.897   1.222 -0.1155  0.4675  0.6923
  189MOL    O9145587   1.537   1.921   1.036  0.1236 -0.2767  0.2232
  189MOL    H9245588   1.452   1.568   1.053 -0.2309  0.6699 -0.0712
  189MOL    H9345589   1.397   1.708   1.072  1.7631  0.0613 -1.9649
  189MOL    H9445590   1.655   1.564   0.931 -0.5022  0.8455 -0.0840
  189MOL    H9545591   1.730   1.728   0.916  0.2595  0.8006  0.8167
  189MOL    H9645592   1.558   1.712   0.889 -1.4041  1.0069  1.8329
  189MOL    H9745593   1.546   2.015   1.047  0.4695 -0.1365 -1.1961
  189MOL    C9845594   1.735   1.618   1.165 -0.0250 -0.1922 -0.3760
  189MOL    C9945595   1.893   1.624   1.139 -0.0796 -0.2104  0.3068
  189MOL   C10045596   1.962   1.542   1.254 -1.0354 -0.3284 -0.5537
  189MOL   C10145597   1.930   1.549   1.003 -0.0733 -0.3708  0.0776
  189MOL   O10245598   1.945   1.615   0.901  0.7207  0.5045 -0.1981
  189MOL   O10345599   1.928   1.413   1.011 -0.0060  0.0123  0.3679
  189MOL   H10445600   1.710   1.655   1.265 -2.3710 -1.4610 -0.4686
  189MOL   H10545601   1.714   1.512   1.175 -1.8678 -0.0102 -2.1307
  189MOL   H10645602   1.966   1.591   1.351 -4.8367 -1.8780  0.4989
  189MOL   H10745603   2.054   1.495   1.222  0.7244  2.0738  0.8207
  189MOL   H10845604   1.895   1.463   1.289 -0.5002 -0.1714  0.8627
  189MOL   H10945605   1.950   1.393   0.921  0.2915 -0.8781  0.6295
  189MOL   C11045606   1.947   1.772   1.149 -0.2418  0.1119  0.3038
  189MOL   C11145607   2.091   1.835   1.119  0.1271  0.1982  0.8926
  189MOL   C11245608   2.184   1.760   1.216 -0.6308 -0.3617  0.5423
  189MOL   C11345609   2.130   1.830   0.969  0.2224  0.5086 -0.3658
  189MOL   O11445610   2.239   1.791   0.932 -0.0666  0.0171  0.4207
  189MOL   O11545611   2.034   1.876   0.892 -0.4564 -0.7794  0.7118
  189MOL   H11645612   1.872   1.831   1.097 -1.5963  0.3410  2.4674
  189MOL   H11745613   1.922   1.810   1.247  0.6157 -2.0844  1.4194
  189MOL   H11845614   2.135   1.731   1.309 -1.7894 -1.1258 -0.2816
  189MOL   H11945615   2.254   1.824   1.269 -1.1756  0.3179  0.4516
  189MOL   H12045616   2.234   1.670   1.180  1.2554  0.3075  1.4419
  189MOL   H12145617   2.057   1.863   0.801 -0.1961  2.3660  0.2689
  189MOL   C12245618   2.083   1.980   1.170  0.6559 -0.8200  0.1299
  189MOL   C12345619   2.185   2.101   1.146  0.2474 -0.3531  0.7190
  189MOL   C12445620   2.331   2.058   1.167 -0.1143 -0.3940 -0.4455
  189MOL   C12545621   2.183   2.165   1.005  0.0584 -0.0438 -0.5676
  189MOL   O12645622   2.103   2.133   0.920 -0.7707  0.2116  0.3610
  189MOL   O12745623   2.273   2.264   0.995  0.1102 -0.7339  0.2959
  189MOL   H12845624   1.985   2.017   1.140 -0.3573 -1.6074  2.4089
  189MOL   H12945625   2.070   1.968   1.277 -1.0317 -0.7990 -0.0717
  189MOL   H13045626   2.353   2.035   1.271 -3.7209 -3.4296 -0.2542
  189MOL   H13145627   2.409   2.120   1.123 -1.8799  1.5936 -0.8428
  189MOL   H13245628   2.346   1.958   1.128  2.9945  0.5066 -1.7258
  189MOL   H13345629   2.279   2.309   0.913 -0.4037 -0.4909  0.3919
  189MOL   C13445630   2.169   2.212   1.263  0.0830 -0.1780 -0.0605
  189MOL   C13545631   2.033   2.288   1.289  0.0163 -0.3491 -0.8544
  189MOL   C13645632   1.991   2.367   1.163  0.5136 -0.1305 -0.6259
  189MOL   C13745633   1.928   2.191   1.342 -0.0947  0.3132  0.0608
  189MOL   O13845634   1.947   2.117   1.441  0.2809 -0.2353  0.0753
  189MOL   O13945635   1.807   2.211   1.281  0.0981  0.3264 -0.8036
  189MOL   H14045636   2.203   2.159   1.352  0.2406  0.1248  0.0572
  189MOL   H14145637   2.247   2.287   1.259 -1.8004  1.7384 -1.8538
  189MOL   H14245638   1.896   2.419   1.175  0.6999 -0.0110  0.4206
  189MOL   H14345639   1.975   2.305   1.075 -2.2625 -0.2344 -0.0891
  189MOL   H14445640   2.072   2.437   1.142  3.4522 -2.6679  1.7410
  189MOL   H14545641   1.744   2.149   1.315  0.2470 -0.0375 -1.1916
  189MOL   C14645642   2.076   2.386   1.411 -0.0277  0.1567  0.4992
  189MOL   C14745643   1.988   2.509   1.466  0.2095  0.4188  0.9720
  189MOL   C14845644   1.843   2.477   1.507 -0.9795  0.5461 -0.6345
  189MOL   C14945645   2.059   2.538   1.596  0.0340  0.8629 -0.1992
  189MOL   O15045646   2.152   2.616   1.599 -0.1419 -0.0833 -0.0044
  189MOL   O15145647   2.021   2.457   1.697 -0.0694 -0.0143 -0.1584
  189MOL   H15245648   2.100   2.323   1.496  2.3918 -1.7120 -1.4951
  189MOL   H15345649   2.174   2.425   1.384 -0.1865 -1.3074 -2.4014
  189MOL   H15445650   1.774   2.504   1.427  0.1710  2.2126 -1.0895
  189MOL   H15545651   1.807   2.521   1.600 -0.6180 -0.4430 -0.0206
  189MOL   H15645652   1.835   2.369   1.517  0.3281  0.4483 -0.5088
  189MOL   H15745653   2.087   2.450   1.764  1.0422 -1.8911 -1.4127
  189MOL   C15845654   2.008   2.628   1.367  0.5604  0.1672  0.1126
  189MOL   C15945655   1.933   2.776   1.369 -0.2202  0.0112 -0.0221
  189MOL   C16045656   1.793   2.769   1.429 -0.1226 -0.1437 -0.1388
  189MOL   C16145657   2.008   2.876   1.461 -0.2330  0.4357 -0.2080
  189MOL   O16245658   1.961   2.969   1.527 -0.4691 -0.6654  0.6008
  189MOL   O16345659   2.139   2.848   1.463 -0.1739 -0.2208  0.2957
  189MOL   H16445660   2.116   2.637   1.363  0.5789 -0.7569 -1.9871
  189MOL   H16545661   1.990   2.584   1.269 -1.3117 -0.6386  0.7912
  189MOL   H16645662   1.781   2.720   1.526  0.1231  0.7108  0.3350
  189MOL   H16745663   1.733   2.707   1.363 -0.6423 -2.0779  2.0570
  189MOL   H16845664   1.746   2.867   1.439 -0.8927 -0.6630  1.6512
  189MOL   H16945665   2.175   2.911   1.524 -0.7751  0.0382  0.3863
  189MOL   C17045666   1.915   2.826   1.222  0.0726 -0.5520  0.1679
  189MOL   C17145667   2.026   2.894   1.134 -0.0489 -0.5642  0.0878
  189MOL   C17245668   2.060   3.031   1.199 -0.1596 -0.2535 -0.0612
  189MOL   C17345669   2.162   2.808   1.138 -0.5597  0.3678 -0.1959
  189MOL   O17445670   2.270   2.856   1.177  0.9996 -0.4578 -0.7148
  189MOL   O17545671   2.145   2.682   1.098  0.7569  0.0573  0.1501
  189MOL   H17645672   1.870   2.734   1.184 -1.4174 -0.4783  1.7030
  189MOL   H17745673   1.832   2.895   1.213 -0.6329 -1.0753  2.3054
  189MOL   H17845674   2.137   3.024   1.276 -1.7057 -1.5543  1.3895
  189MOL   H17945675   1.981   3.089   1.245  0.3665  2.6219 -2.5976
  189MOL   H18045676   2.098   3.102   1.125 -2.1562  0.1774 -0.7108
  189MOL   H18145677   2.229   2.643   1.116  2.0005  1.5908 -2.1192
  189MOL   C18245678   1.964   2.904   0.992 -0.4872 -0.6500  0.8560
  189MOL   C18345679   2.007   2.983   0.867 -0.2380  0.7931 -1.0174
  189MOL   C18445680   1.946   3.125   0.871 -0.1070 -0.1289 -0.1658
  189MOL   C18545681   2.163   2.984   0.865  0.1971 -0.4825  0.0060
  189MOL   O18645682   2.231   2.897   0.809  0.1033  0.2547  0.5334
  189MOL   O18745683   2.223   3.096   0.913  0.3830  0.0875 -0.0037
  189MOL   H18845684   1.941   2.800   0.970 -0.1936 -0.0703 -2.3966
  189MOL   H18945685   1.859   2.930   1.005 -0.6422 -0.5079 -0.6067
  189MOL   H19045686   1.995   3.204   0.814 -1.1059  1.9093  1.7245
  189MOL   H19145687   1.951   3.165   0.973 -1.3952  0.0516 -0.1668
  189MOL   H19245688   1.840   3.119   0.847  0.1504  0.8515 -1.6244
  189MOL   H19345689   2.317   3.087   0.906  0.3894  0.4648 -0.4153
  189MOL   C19445690   1.961   2.910   0.732 -0.3847 -0.0023 -0.2948
  189MOL   C19545691   1.974   2.981   0.586 -0.3622 -0.7294  0.9010
  189MOL   C19645692   2.102   3.064   0.572 -0.3111 -0.1504 -0.3015
  189MOL   C19745693   1.988   2.871   0.482 -0.3511 -0.0599 -0.7750
  189MOL   O19845694   2.075   2.857   0.395 -0.4149 -0.0967  0.5201
  189MOL   O19945695   1.884   2.782   0.484 -0.4245 -0.1785 -0.3490
  189MOL   H20045696   2.002   2.809   0.730 -2.1123 -0.7300  0.2196
  189MOL   H20145697   1.855   2.890   0.744 -0.2806  0.5595  1.7698
  189MOL   H20245698   2.183   2.993   0.587  0.5983  1.1832  1.1514
  189MOL   H20345699   2.124   3.150   0.635  3.7372 -0.8262 -0.6565
  189MOL   H20445700   2.116   3.103   0.471  0.1759 -2.9534 -1.3796
  189MOL   H20545701   1.894   2.721   0.412 -0.0494  1.1831 -1.4689
  189MOL   C20645702   1.848   3.074   0.570 -0.2837 -0.2350 -0.3507
  189MOL   C20745703   1.772   3.103   0.431 -0.2925  0.0744  0.2348
  189MOL   C20845704   1.871   3.125   0.315 -0.7916  0.0192  0.0435
  189MOL   C20945705   1.667   2.990   0.411  0.2079  0.3960  0.0615
  189MOL   O21045706   1.582   2.959   0.498 -0.4300 -0.5285 -0.7110
  189MOL   O21145707   1.687   2.927   0.288  0.6167  0.4909  0.6397
  189MOL   H21245708   1.768   3.039   0.636  0.1510 -0.3531  0.1118
  189MOL   H21345709   1.876   3.174   0.601  0.8622  0.0775 -2.3295
  189MOL   H21445710   1.831   3.118   0.214  0.2431 -0.6147 -0.3312
  189MOL   H21545711   1.959   3.060   0.314 -1.8001 -1.4276  1.7835
  189MOL   H21645712   1.914   3.225   0.311 -0.9067  0.1117  1.0253
  189MOL   H21745713   1.626   2.856   0.277 -1.3366  1.8616  2.2630
  189MOL   C21845714   1.694   3.242   0.452  0.5572 -0.2402 -1.0999
  189MOL   C21945715   1.584   3.295   0.355 -0.6422  0.3850 -0.6881
  189MOL   C22045716   1.641   3.333   0.221  0.5410 -0.1746 -0.0628
  189MOL   C22145717   1.459   3.204   0.337  0.5532  0.4315 -0.0394
  189MOL   O22245718   1.380   3.182   0.431 -0.3019 -0.0542  0.4994
  189MOL   O22345719   1.451   3.141   0.218  0.1039 -0.4264  0.5547
  189MOL   H22445720   1.659   3.239   0.555  0.7664 -1.0887 -1.0526
  189MOL   H22545721   1.773   3.317   0.459  0.7716 -0.7567  3.2801
  189MOL   H22645722   1.662   3.249   0.155 -1.1601 -1.6875  1.2856
  189MOL   H22745723   1.738   3.381   0.235  0.8890 -0.7721 -0.4175
  189MOL   H22845724   1.586   3.402   0.156  0.1843 -0.1274  0.2926
  189MOL   H22945725   1.374   3.086   0.214 -1.3548  1.5189  0.6457
  189MOL   C23045726   1.549   3.431   0.434  0.5342  0.3371 -0.0031
  189MOL   C23145727   1.423   3.511   0.376 -0.0524  0.6708  0.0815
  189MOL   C23245728   1.308   3.513   0.471 -0.2132 -0.0864 -0.5052
  189MOL   C23345729   1.445   3.649   0.315 -0.8388  0.8545 -0.5665
  189MOL   O23445730   1.398   3.747   0.370  0.0376  0.1210  0.0084
  189MOL   O23545731   1.538   3.652   0.212  0.4151 -0.8328  0.0219
  189MOL   H23645732   1.523   3.408   0.537 -0.6764 -0.6405 -0.5049
  189MOL   H23745733   1.629   3.504   0.445 -0.7073  1.6806  0.2563
  189MOL   H23845734   1.278   3.416   0.511  0.8538 -0.3740 -0.4075
  189MOL   H23945735   1.212   3.542   0.427  0.1473  0.2741 -1.0624
  189MOL   H24045736   1.329   3.577   0.557  2.0884 -0.0611 -1.0543
  189MOL   H24145737   1.556   3.744   0.195 -2.9290 -0.2313 -0.6918
  189MOL   H24245738   1.382   3.449   0.296  2.2172 -1.3253  0.4116
  190MOL     C145739   1.894   5.089   6.892  0.0645 -0.2276 -0.0362
  190MOL     C245740   1.826   5.234   6.879  0.8936  0.3089 -0.3101
  190MOL     C345741   1.677   5.211   6.848 -0.5956 -0.0765  0.2606
  190MOL     C445742   1.815   5.298   7.011  0.0136 -0.0800  0.1061
  190MOL     O545743   1.818   5.423   7.033  0.7951 -0.1705 -1.1737
  190MOL     O645744   1.800   5.214   7.113 -0.1411 -0.2423  0.0804
  190MOL     H745745   1.993   5.096   6.937  0.2435  1.9701 -0.7388
  190MOL     H845746   1.909   5.042   6.794  0.7915  1.0984 -0.5790
  190MOL     H945747   1.630   5.308   6.830  2.5310  1.1917 -1.5270
  190MOL    H1045748   1.621   5.161   6.927 -1.9879  3.0236  1.3282
  190MOL    H1145749   1.658   5.159   6.754  0.7958 -0.2675  0.0714
  190MOL    H1245750   1.783   5.266   7.190 -0.1067  1.5770 -1.1333
  190MOL    H1345751   1.838   5.020   6.955  0.6824 -0.9267 -0.2284
  190MOL    C1445752   1.886   5.311   6.762  0.3698 -0.4134  0.4965
  190MOL    C1545753   2.043   5.311   6.751 -0.1316  0.2702 -0.1083
  190MOL    C1645754   2.114   5.327   6.891  0.2320  0.1939  0.1693
  190MOL    C1745755   2.095   5.187   6.674  0.1629 -0.3048 -0.3012
  190MOL    O1845756   2.030   5.129   6.587  0.1980  0.6118  0.0464
  190MOL    O1945757   2.216   5.149   6.716  0.0071 -0.1620 -0.3352
  190MOL    H2045758   1.842   5.277   6.669  1.5963 -1.5708  0.3116
  190MOL    H2145759   1.839   5.409   6.758  0.4797 -0.3539  0.6226
  190MOL    H2245760   2.136   5.236   6.946 -1.7758 -1.4693 -1.6668
  190MOL    H2345761   2.083   5.407   6.958  0.7940 -0.1898  0.8938
  190MOL    H2445762   2.213   5.371   6.877 -0.2055  0.7068 -1.3661
  190MOL    H2545763   2.239   5.068   6.673  0.3046 -0.5851  0.6094
  190MOL    C2645764   2.089   5.443   6.670 -0.5731 -0.1317  0.5033
  190MOL    C2745765   2.074   5.470   6.513  0.0089 -0.3261 -0.0082
  190MOL    C2845766   1.927   5.433   6.481 -0.2072  0.8438 -0.4468
  190MOL    C2945767   2.094   5.617   6.483  0.2191  0.1019 -0.1590
  190MOL    O3045768   2.009   5.692   6.442 -0.3168  0.0980  0.4646
  190MOL    O3145769   2.218   5.659   6.522 -0.3055 -0.7468  0.2867
  190MOL    H3245770   2.054   5.532   6.723 -1.3330  0.3457 -0.7825
  190MOL    H3345771   2.196   5.448   6.690 -0.8949  0.4762  2.1662
  190MOL    H3445772   1.924   5.324   6.484  1.5272  0.8368  2.6378
  190MOL    H3545773   1.919   5.461   6.376 -1.4370 -0.0188 -0.5962
  190MOL    H3645774   1.842   5.465   6.541  0.2984 -2.9608  2.4696
  190MOL    H3745775   2.246   5.742   6.488  1.9417 -1.0216  1.3471
  190MOL    C3845776   2.176   5.388   6.428 -0.3096  0.8227  0.3000
  190MOL    C3945777   2.160   5.350   6.269  0.1566 -1.3806 -0.1494
  190MOL    C4045778   2.037   5.264   6.248  0.1595  0.1945  0.3868
  190MOL    C4145779   2.135   5.483   6.184 -0.6594 -0.2110  0.3243
  190MOL    O4245780   2.029   5.522   6.147  0.5238 -0.1011  0.1807
  190MOL    O4345781   2.249   5.557   6.173  0.5137  0.2470  0.1202
  190MOL    H4445782   2.276   5.431   6.435  0.1963 -0.3508  0.2763
  190MOL    H4545783   2.199   5.297   6.483 -1.2001  0.1814 -0.3838
  190MOL    H4645784   1.941   5.315   6.240 -1.0373 -2.0871 -0.1043
  190MOL    H4745785   2.042   5.198   6.334  1.2483 -0.5194 -0.2141
  190MOL    H4845786   2.035   5.196   6.163 -3.0947  1.5921 -0.7652
  190MOL    H4945787   2.229   5.631   6.118  1.6105  0.1543 -0.4301
  190MOL    C5045788   2.285   5.279   6.209 -0.6566  0.3649 -0.2655
  190MOL    C5145789   2.363   5.159   6.269  0.3951 -0.0435 -0.1462
  190MOL    C5245790   2.471   5.209   6.374  0.5445 -0.0522  0.5348
  190MOL    C5345791   2.274   5.054   6.359 -0.8406 -0.3489 -0.1693
  190MOL    O5445792   2.300   5.025   6.477  0.0906 -0.8906 -0.4887
  190MOL    O5545793   2.173   5.002   6.290 -0.6060 -0.2022 -0.1955
  190MOL    H5645794   2.247   5.245   6.113  0.8572 -1.6641 -0.1714
  190MOL    H5745795   2.364   5.353   6.193  0.3948  0.0017  2.8804
  190MOL    H5845796   2.525   5.296   6.336  0.2025  0.0768  0.3463
  190MOL    H5945797   2.544   5.130   6.391  0.5578 -1.1411 -3.9182
  190MOL    H6045798   2.426   5.249   6.465  1.1098 -0.5769  1.0437
  190MOL    H6145799   2.111   4.950   6.337 -0.9234  0.1986 -0.1635
  190MOL    C6245800   2.429   5.071   6.162 -0.2996 -0.5397  0.7280
  190MOL    C6345801   2.543   5.121   6.055 -0.9891  0.4155  0.2227
  190MOL    C6445802   2.666   5.178   6.130 -0.3595 -0.1691  0.6307
  190MOL    C6545803   2.589   4.994   5.972  0.3086 -0.4430  0.1717
  190MOL    O6645804   2.694   4.938   5.994 -0.2340  0.6983  0.4576
  190MOL    O6745805   2.491   4.945   5.892 -0.1228 -0.2404  0.9185
  190MOL    H6845806   2.465   4.977   6.204 -2.5234 -0.5136  2.7688
  190MOL    H6945807   2.348   5.021   6.109  2.8673 -1.7452 -3.2791
  190MOL    H7045808   2.655   5.285   6.151  3.2388  0.8224 -2.0429
  190MOL    H7145809   2.758   5.175   6.072 -1.2863 -0.7335 -0.8532
  190MOL    H7245810   2.694   5.125   6.221  0.4450  1.6283  1.4537
  190MOL    H7345811   2.510   4.862   5.853  3.4978  0.6818  0.5619
  190MOL    C7445812   2.483   5.232   5.958  0.2582 -0.3251  0.1276
  190MOL    C7545813   2.556   5.300   5.835 -0.5170 -0.1538 -0.5719
  190MOL    C7645814   2.615   5.192   5.732  0.0427 -0.4153  0.0359
  190MOL    C7745815   2.454   5.382   5.759 -0.4329  0.1501  0.3692
  190MOL    O7845816   2.421   5.366   5.645 -0.2277 -0.3405  0.2556
  190MOL    O7945817   2.397   5.483   5.829  0.3496 -0.3762  0.2336
  190MOL    H8045818   2.390   5.187   5.925 -0.9309  1.3837  1.0826
  190MOL    H8145819   2.445   5.314   6.018  0.3104  1.5329 -2.3242
  190MOL    H8245820   2.708   5.143   5.761  0.4110  0.6031  0.5693
  190MOL    H8345821   2.653   5.245   5.645  1.7297  2.3073  2.3523
  190MOL    H8445822   2.532   5.124   5.710 -2.6621  2.4533  0.9596
  190MOL    H8545823   2.322   5.509   5.778  1.1398 -0.2949 -0.9096
  190MOL    C8645824   2.675   5.396   5.884  0.2802 -0.1914 -0.3356
  190MOL    C8745825   2.744   5.514   5.794 -0.2248 -0.6136  0.2044
  190MOL    C8845826   2.647   5.624   5.752  0.1747 -0.0977 -0.2493
  190MOL    C8945827   2.856   5.573   5.889 -0.2039 -0.0573  0.4973
  190MOL    O9045828   2.973   5.557   5.878 -0.3242  0.2536  0.0239
  190MOL    O9145829   2.797   5.657   5.981 -0.2789 -0.0785  0.3696
  190MOL    H9245830   2.662   5.443   5.981  1.3653 -0.0256 -0.2711
  190MOL    H9345831   2.749   5.319   5.905 -1.1191 -1.5871 -0.3624
  190MOL    H9445832   2.585   5.600   5.666 -1.0105  0.2054  0.5143
  190MOL    H9545833   2.700   5.714   5.720 -1.1741  0.9840  0.5598
  190MOL    H9645834   2.581   5.651   5.833  1.2594  1.3062  0.1855
  190MOL    H9745835   2.869   5.710   6.012  0.2028 -0.0235 -0.8259
  190MOL    C9845836   2.804   5.446   5.659 -0.3576  0.2360 -0.5279
  190MOL    C9945837   2.911   5.517   5.565  0.3007  0.5151 -0.0744
  190MOL   C10045838   2.913   5.673   5.565 -0.5614 -0.1158 -0.8752
  190MOL   C10145839   3.050   5.462   5.601 -0.0726 -0.2015 -0.6082
  190MOL   O10245840   3.068   5.373   5.680 -0.1593  0.1128 -0.6516
  190MOL   O10345841   3.149   5.529   5.537 -0.4931  0.3946  0.4706
  190MOL   H10445842   2.842   5.346   5.679  0.4326  0.1791 -2.2070
  190MOL   H10545843   2.729   5.445   5.581  0.7103  1.2133 -1.5853
  190MOL   H10645844   2.950   5.709   5.661  2.0280 -0.2861 -1.7673
  190MOL   H10745845   2.813   5.709   5.540 -0.9544 -1.7399 -1.7163
  190MOL   H10845846   2.984   5.705   5.489 -1.3280  2.9977 -0.3523
  190MOL   H10945847   3.231   5.497   5.570 -0.9121  0.7387  1.8540
  190MOL   C11045848   2.881   5.480   5.412 -0.2732 -0.6395 -0.6161
  190MOL   C11145849   2.882   5.334   5.343 -0.4358  0.8668 -0.2036
  190MOL   C11245850   2.878   5.380   5.195  0.3415  0.1686 -0.5213
  190MOL   C11345851   3.014   5.262   5.371  0.4546  0.5075  0.2688
  190MOL   O11445852   3.024   5.162   5.446 -0.4024 -0.0419  0.2439
  190MOL   O11545853   3.125   5.316   5.309  1.0119  0.3165 -0.4618
  190MOL   H11645854   2.785   5.528   5.393 -1.3919 -1.8729  1.7314
  190MOL   H11745855   2.953   5.546   5.362 -1.2979  1.7215  0.9130
  190MOL   H11845856   2.782   5.418   5.161  2.2318  2.6476 -3.3834
  190MOL   H11945857   2.897   5.295   5.128  1.7566  1.2891 -1.5691
  190MOL   H12045858   2.950   5.457   5.168  1.7576 -0.5936  0.9767
  190MOL   H12145859   3.203   5.287   5.354  0.4105 -1.2325 -0.3838
  190MOL   C12245860   2.755   5.250   5.380 -0.0108  0.3103 -0.0473
  190MOL   C12345861   2.702   5.129   5.302  0.2111 -0.5112 -0.1453
  190MOL   C12445862   2.615   5.178   5.183 -0.1793  1.0652 -0.7810
  190MOL   C12545863   2.813   5.035   5.252 -0.0223  0.4280  0.0024
  190MOL   O12645864   2.836   5.030   5.130  0.1423  0.1841  0.0491
  190MOL   O12745865   2.862   4.946   5.337 -0.2384 -0.1959 -0.2606
  190MOL   H12845866   2.775   5.211   5.480  0.2264 -0.0868 -0.2514
  190MOL   H12945867   2.669   5.317   5.385 -1.2267 -1.0217 -2.5069
  190MOL   H13045868   2.682   5.219   5.107  1.4683 -0.1522 -0.0250
  190MOL   H13145869   2.546   5.254   5.220  0.6690  1.4915 -0.0414
  190MOL   H13245870   2.574   5.102   5.116 -2.4699  0.8634  0.8075
  190MOL   H13345871   2.919   4.890   5.286 -1.0295  0.9136 -2.4478
  190MOL   C13445872   2.610   5.061   5.408  0.2489  0.4061 -0.0217
  190MOL   C13545873   2.494   4.960   5.375  0.0180  0.1811  0.2385
  190MOL   C13645874   2.451   4.887   5.507  0.2780 -0.1285  0.4284
  190MOL   C13745875   2.355   5.032   5.329 -0.3271  0.1419 -0.3647
  190MOL   O13845876   2.348   5.148   5.296  0.0645 -0.4922 -0.0261
  190MOL   O13945877   2.244   4.956   5.352 -0.2445 -0.3146 -0.1611
  190MOL   H14045878   2.661   5.016   5.494 -0.2353  0.7044  0.4296
  190MOL   H14145879   2.568   5.142   5.469 -1.1727 -0.8730  0.7354
  190MOL   H14245880   2.378   4.807   5.496 -1.6149  1.5017  0.8887
  190MOL   H14345881   2.404   4.958   5.575  1.6460  0.5994  0.6237
  190MOL   H14445882   2.536   4.849   5.563  0.3706  0.5598  0.7542
  190MOL   H14545883   2.165   5.004   5.334 -1.2307 -1.3158  1.3537
  190MOL   C14645884   2.541   4.847   5.291  0.1778 -0.0156  0.3956
  190MOL   C14745885   2.461   4.735   5.207  0.2183 -0.1009  0.1287
  190MOL   C14845886   2.348   4.665   5.283 -0.3541 -0.2226 -0.1587
  190MOL   C14945887   2.393   4.792   5.078 -0.2185 -0.1379 -0.7328
  190MOL   O15045888   2.283   4.753   5.035  0.0140 -0.0286 -0.2794
  190MOL   O15145889   2.461   4.900   5.027  0.0237  0.6604 -0.8706
  190MOL   H15245890   2.598   4.907   5.220  1.3821  0.6906  1.9341
  190MOL   H15345891   2.604   4.791   5.359 -0.4932  0.0278  1.0596
  190MOL   H15445892   2.315   4.575   5.231 -1.8381  1.1426 -1.6594
  190MOL   H15545893   2.255   4.719   5.300 -0.3083  1.1198 -3.6371
  190MOL   H15645894   2.385   4.632   5.380 -2.0786  0.6061  0.7980
  190MOL   H15745895   2.435   4.935   4.943 -0.4556  1.2036 -0.4942
  190MOL   C15845896   2.549   4.606   5.161  0.3058 -0.3277 -0.7423
  190MOL   C15945897   2.702   4.601   5.114  0.8350 -0.2805  0.0878
  190MOL   C16045898   2.727   4.714   5.009 -0.3871 -0.0642 -0.8084
  190MOL   C16145899   2.800   4.629   5.231  0.7055  1.0090 -0.0163
  190MOL   O16245900   2.906   4.688   5.211 -0.0427  0.1642 -0.4924
  190MOL   O16345901   2.759   4.585   5.351 -0.5030  0.1111  0.0467
  190MOL   H16445902   2.545   4.543   5.251  0.3447 -0.1887 -0.6429
  190MOL   H16545903   2.492   4.553   5.085  0.1974 -0.4430 -0.5833
  190MOL   H16645904   2.705   4.814   5.048  1.0781 -0.6792  1.7594
  190MOL   H16745905   2.684   4.701   4.910 -1.2584 -0.4022 -0.3849
  190MOL   H16845906   2.835   4.724   4.991 -0.3758 -1.2747 -1.4666
  190MOL   H16945907   2.836   4.579   5.404 -1.9290  1.2285  2.3369
  190MOL   C17045908   2.744   4.467   5.042 -0.2125 -0.8099 -0.2006
  190MOL   C17145909   2.737   4.331   5.111  0.2601 -0.2213 -0.0546
  190MOL   C17245910   2.617   4.309   5.208  0.2709  0.2526 -0.1111
  190MOL   C17345911   2.726   4.228   4.997  0.1264 -0.1878  0.9249
  190MOL   O17445912   2.626   4.158   4.989 -0.1113 -0.0552  0.5594
  190MOL   O17545913   2.823   4.238   4.905  0.4215  0.0165  0.0532
  190MOL   H17645914   2.679   4.465   4.954 -0.3272  0.1812 -0.1429
  190MOL   H17745915   2.844   4.485   5.002  0.7243  0.0022  2.4424
  190MOL   H17845916   2.611   4.371   5.297  1.5458  0.9966 -0.5161
  190MOL   H17945917   2.608   4.206   5.242  0.1511  0.6490  1.0763
  190MOL   H18045918   2.529   4.327   5.146  1.6979  1.9843 -1.7026
  190MOL   H18145919   2.809   4.170   4.841 -0.2549  0.9404 -0.7906
  190MOL   C18245920   2.873   4.302   5.183  0.2542 -0.2947  0.3963
  190MOL   C18345921   2.894   4.189   5.287 -0.1137 -0.4587 -0.0172
  190MOL   C18445922   2.830   4.238   5.425 -0.5221 -0.1110 -0.1124
  190MOL   C18545923   2.851   4.040   5.244 -0.4374  0.9987 -0.2614
  190MOL   O18645924   2.848   3.999   5.130  0.0310 -0.3757 -0.3610
  190MOL   O18745925   2.824   3.959   5.347 -0.0249  0.6281 -0.1462
  190MOL   H18845926   2.951   4.291   5.107 -0.2830  2.1184 -0.5591
  190MOL   H18945927   2.889   4.397   5.234 -0.0079  0.7112 -1.3627
  190MOL   H19045928   2.774   4.156   5.471 -0.4033  0.5420  1.2314
  190MOL   H19145929   2.770   4.329   5.429 -0.0578  0.3131 -2.4757
  190MOL   H19245930   2.912   4.264   5.492 -1.6090 -1.7903  1.9251
  190MOL   H19345931   2.790   3.886   5.298  2.3417 -0.2914 -0.4677
  190MOL   C19445932   3.053   4.181   5.308 -0.6947  0.3276 -0.3986
  190MOL   C19545933   3.134   4.085   5.417 -0.1160  0.1022 -0.3320
  190MOL   C19645934   3.063   4.082   5.558 -0.4118 -1.3801  0.3321
  190MOL   C19745935   3.149   3.942   5.366  0.1266 -0.6860  0.4386
  190MOL   O19845936   3.122   3.917   5.252 -0.3819  0.4551 -0.2356
  190MOL   O19945937   3.204   3.852   5.452  0.6821 -0.1725 -0.4949
  190MOL   H20045938   3.101   4.163   5.212  0.6498  0.3199  0.2596
  190MOL   H20145939   3.086   4.279   5.344  2.1397 -0.9116  0.5328
  190MOL   H20245940   3.066   4.173   5.617 -0.7562 -1.0853 -0.1027
  190MOL   H20345941   3.101   3.999   5.618  0.3296 -2.1279 -1.1228
  190MOL   H20445942   2.956   4.063   5.556 -0.9141  1.1467  1.5803
  190MOL   H20545943   3.212   3.769   5.408  2.2407  0.3316 -1.2241
  190MOL   C20645944   3.284   4.128   5.446 -0.0089 -1.0890  0.4420
  190MOL   C20745945   3.407   4.164   5.350 -0.2106 -0.1454  0.6382
  190MOL   C20845946   3.536   4.133   5.440  0.3552 -0.2447 -0.8883
  190MOL   C20945947   3.408   4.071   5.229 -0.8363  0.0354 -0.2487
  190MOL   O21045948   3.362   4.099   5.116  0.3588 -0.2704  0.5136
  190MOL   O21145949   3.458   3.950   5.255  0.3518  0.1748  0.0704
  190MOL   H21245950   3.271   4.210   5.517 -0.7583  0.3704 -1.3349
  190MOL   H21345951   3.316   4.051   5.516  1.0360 -0.1059  1.0611
  190MOL   H21445952   3.544   4.178   5.539  0.5784  1.0977 -1.5044
  190MOL   H21545953   3.629   4.145   5.385  1.2722  1.4724  0.9623
  190MOL   H21645954   3.539   4.025   5.458 -3.0789 -0.2104  0.2966
  190MOL   H21745955   3.459   3.898   5.176  1.2810  1.0623 -0.5178
  190MOL   C21845956   3.373   4.311   5.312  0.4270  0.2191 -0.1364
  190MOL   C21945957   3.481   4.406   5.253  0.1796 -0.4481  0.0946
  190MOL   C22045958   3.568   4.451   5.376 -0.0830 -0.7092  0.3718
  190MOL   C22145959   3.569   4.335   5.149  0.0883 -0.2797  0.1916
  190MOL   O22245960   3.681   4.286   5.158  0.4923  0.6789 -0.3215
  190MOL   O22345961   3.506   4.325   5.026  0.5004 -0.5156  0.1287
  190MOL   H22445962   3.285   4.300   5.248  0.3746  1.2459 -0.2425
  190MOL   H22545963   3.331   4.360   5.400  0.7309  1.0140 -0.4328
  190MOL   H22645964   3.520   4.507   5.456  0.3143 -0.4012  0.3946
  190MOL   H22745965   3.645   4.515   5.332 -0.3795 -0.5721  0.0480
  190MOL   H22845966   3.629   4.368   5.412  0.2514  0.7315  3.2036
  190MOL   H22945967   3.538   4.257   4.969 -0.0810 -0.1707 -0.6056
  190MOL   C23045968   3.411   4.533   5.196  0.3680 -0.7779  0.0815
  190MOL   C23145969   3.315   4.542   5.064  0.1114 -0.8975 -0.7564
  190MOL   C23245970   3.172   4.510   5.092  0.0906 -0.2692  0.0336
  190MOL   C23345971   3.339   4.678   4.999 -0.4432 -0.7808 -0.3147
  190MOL   O23445972   3.356   4.699   4.878  0.2236 -0.0092 -0.5925
  190MOL   O23545973   3.323   4.779   5.090 -0.8030 -0.4944 -0.2786
  190MOL   H23645974   3.343   4.579   5.268  0.9940 -1.0822  0.8679
  190MOL   H23745975   3.490   4.609   5.192  0.6661 -1.1593 -1.9882
  190MOL   H23845976   3.096   4.569   5.040 -0.6437 -1.4541 -0.2499
  190MOL   H23945977   3.144   4.512   5.197 -1.8476  0.3325 -0.4754
  190MOL   H24045978   3.153   4.406   5.067 -0.2249 -0.5055  1.2337
  190MOL   H24145979   3.324   4.862   5.046  1.0607 -1.0193 -1.2787
  190MOL   H24245980   3.338   4.469   4.986 -2.2645 -1.1570 -1.2746
  191MOL     C145981   5.051   3.560   3.909  0.0915 -0.1959 -0.7213
  191MOL     C245982   5.001   3.546   3.767  0.0174  0.6091  0.5650
  191MOL     C345983   4.911   3.666   3.729  0.2672 -0.3810  0.7342
  191MOL     C445984   5.120   3.538   3.675 -0.1134 -0.4907  0.2429
  191MOL     O545985   5.228   3.579   3.707 -0.8584 -0.6176 -0.1596
  191MOL     O645986   5.081   3.510   3.544  0.3656  0.0904  0.3436
  191MOL     H745987   4.975   3.548   3.987  0.2698  0.9870 -0.3651
  191MOL     H845988   5.105   3.653   3.924 -1.3841  0.6775 -0.7419
  191MOL     H945989   4.835   3.637   3.656  1.3140  0.2199 -0.6218
  191MOL    H1045990   4.969   3.752   3.697 -1.7792  1.7543  2.5963
  191MOL    H1145991   4.842   3.697   3.807  0.5665  0.0026  0.8429
  191MOL    H1245992   5.151   3.510   3.481  1.1405  1.9811  1.1662
  191MOL    H1345993   5.125   3.481   3.918 -1.7861 -1.7678  1.7233
  191MOL    C1445994   4.896   3.430   3.748  0.0017  0.1801 -0.2041
  191MOL    C1545995   4.925   3.274   3.760 -0.7220  0.8382  0.1050
  191MOL    C1645996   4.780   3.222   3.778  0.6199 -0.6288  0.0932
  191MOL    C1745997   4.985   3.222   3.628  0.4217  0.1828 -0.2860
  191MOL    O1845998   5.107   3.213   3.611 -0.2393 -0.2664  0.5394
  191MOL    O1945999   4.891   3.186   3.530  0.6826  0.2828 -0.1517
  191MOL    H2046000   4.827   3.453   3.830  1.3581  2.3061  0.3774
  191MOL    H2146001   4.837   3.445   3.658 -1.8314 -1.6539  0.6264
  191MOL    H2246002   4.731   3.263   3.866 -2.2989  0.2385 -1.8364
  191MOL    H2346003   4.774   3.115   3.794 -0.6645 -0.4849  0.6544
  191MOL    H2446004   4.710   3.242   3.697  2.3610  0.4190 -1.1985
  191MOL    H2546005   4.802   3.190   3.559  1.2933  0.7160  1.6906
  191MOL    C2646006   5.011   3.239   3.892  0.4634  0.0152 -0.1748
  191MOL    C2746007   4.999   3.108   3.972 -0.1674 -0.1182 -0.5414
  191MOL    C2846008   4.866   3.099   4.059  0.0603  0.0546  0.3462
  191MOL    C2946009   5.012   2.992   3.872  0.2873 -0.4871  0.9233
  191MOL    O3046010   4.930   2.900   3.878 -0.0419 -0.2742  0.3748
  191MOL    O3146011   5.123   2.990   3.791 -0.1148  0.0271  0.1816
  191MOL    H3246012   5.116   3.250   3.867  0.5107  2.0914  0.8768
  191MOL    H3346013   4.982   3.324   3.954  1.4271  0.1201  0.1419
  191MOL    H3446014   4.830   3.197   4.089  0.2408  0.4801 -0.7900
  191MOL    H3546015   4.869   3.047   4.155 -1.5286 -0.2724  0.2369
  191MOL    H3646016   4.784   3.055   4.002 -0.7353  1.3817  0.4661
  191MOL    H3746017   5.135   2.902   3.759 -0.4725  0.0889 -0.1249
  191MOL    C3846018   5.127   3.089   4.066 -0.8738  0.0935  0.0101
  191MOL    C3946019   5.164   3.166   4.200  0.8714 -0.2246  0.4423
  191MOL    C4046020   5.120   3.312   4.195  0.1504  0.4133 -0.5033
  191MOL    C4146021   5.092   3.095   4.310  0.1065  0.6481  0.2772
  191MOL    O4246022   4.994   3.140   4.368  0.3058  0.4206 -0.4578
  191MOL    O4346023   5.142   2.971   4.335 -0.6463 -0.6336 -0.4750
  191MOL    H4446024   5.140   2.985   4.096 -1.1646 -0.3814 -1.4203
  191MOL    H4546025   5.213   3.103   4.000 -0.8436 -0.2427 -0.0275
  191MOL    H4646026   5.107   3.353   4.295 -0.7647 -0.3090 -0.3149
  191MOL    H4746027   5.022   3.325   4.149 -0.8268 -1.3087  1.0334
  191MOL    H4846028   5.187   3.376   4.138  1.4417 -0.8803 -0.4817
  191MOL    H4946029   5.098   2.927   4.405 -0.1418  0.0563  0.2780
  191MOL    C5046030   5.322   3.153   4.209  0.5832  0.6786  0.3032
  191MOL    C5146031   5.415   3.196   4.330 -0.6415  0.1328 -0.3039
  191MOL    C5246032   5.406   3.351   4.341 -0.0417  0.3687  0.4708
  191MOL    C5346033   5.374   3.126   4.457 -0.3112 -0.0368 -0.4237
  191MOL    O5446034   5.409   3.017   4.499  0.1952  0.3067  0.2764
  191MOL    O5546035   5.280   3.203   4.530  0.5005 -0.3556 -0.5453
  191MOL    H5646036   5.343   3.048   4.190  0.9485  0.8504 -0.2782
  191MOL    H5746037   5.357   3.218   4.128  0.3345  0.0492 -0.3153
  191MOL    H5846038   5.493   3.399   4.386  1.3061 -2.8603  1.4102
  191MOL    H5946039   5.306   3.385   4.370  0.4137  1.7262  0.5170
  191MOL    H6046040   5.415   3.390   4.239 -1.4624  1.9702  0.9250
  191MOL    H6146041   5.257   3.146   4.603 -0.4188 -0.1238 -0.6503
  191MOL    C6246042   5.565   3.159   4.301 -0.0146  0.3587  0.3567
  191MOL    C6346043   5.696   3.195   4.388 -0.2064  0.1940  0.4922
  191MOL    C6446044   5.785   3.066   4.379  0.2250 -0.0296  0.7456
  191MOL    C6546045   5.761   3.312   4.320  0.4846 -0.9682  1.7513
  191MOL    O6646046   5.700   3.418   4.304 -0.2174 -0.1842  0.3940
  191MOL    O6746047   5.897   3.298   4.290 -0.4563 -0.0229  0.4928
  191MOL    H6846048   5.567   3.053   4.277 -2.2445  0.4330 -0.2887
  191MOL    H6946049   5.577   3.204   4.202  1.6173 -1.7713 -0.4368
  191MOL    H7046050   5.728   2.974   4.392 -0.1868 -0.0902 -1.3136
  191MOL    H7146051   5.859   3.064   4.459  1.5964 -0.2107 -0.4935
  191MOL    H7246052   5.847   3.047   4.291 -1.4520  0.5752 -0.5876
  191MOL    H7346053   5.932   3.215   4.319 -0.3797 -0.6800 -1.4021
  191MOL    C7446054   5.668   3.218   4.542  0.1808 -0.0597  0.4423
  191MOL    C7546055   5.765   3.297   4.649  0.1574  0.4667  0.1033
  191MOL    C7646056   5.916   3.263   4.648  0.7748  0.4317 -0.3562
  191MOL    C7746057   5.762   3.452   4.627 -0.0927 -0.6544  0.6050
  191MOL    O7846058   5.857   3.525   4.602  0.0390 -0.1495  0.0361
  191MOL    O7946059   5.635   3.496   4.622 -0.1720 -0.1520 -0.4141
  191MOL    H8046060   5.575   3.273   4.556 -1.9531 -3.3061 -0.4107
  191MOL    H8146061   5.648   3.117   4.578  0.4465 -0.1841  0.2416
  191MOL    H8246062   5.924   3.154   4.648  0.2930  0.3950 -0.5723
  191MOL    H8346063   5.971   3.311   4.729  0.6789 -0.0131 -0.0179
  191MOL    H8446064   5.965   3.297   4.558  1.8908 -0.3956 -0.0738
  191MOL    H8546065   5.626   3.589   4.611  0.3439  0.0831  1.0245
  191MOL    C8646066   5.702   3.266   4.795 -0.5655 -0.0830  0.7216
  191MOL    C8746067   5.759   3.304   4.939 -0.1306 -0.5081  0.0503
  191MOL    C8846068   5.852   3.190   4.979 -0.0172  0.3421 -0.1717
  191MOL    C8946069   5.829   3.442   4.956 -0.1751 -0.1843 -0.7768
  191MOL    O9046070   5.789   3.543   4.892  0.0063  0.6692  0.0708
  191MOL    O9146071   5.932   3.443   5.046 -0.9452 -0.2042  0.0941
  191MOL    H9246072   5.602   3.309   4.789  0.3336  2.3218  2.2247
  191MOL    H9346073   5.683   3.159   4.790 -0.5633 -0.0766  0.6008
  191MOL    H9446074   5.881   3.204   5.083 -1.5614  1.0625  0.1672
  191MOL    H9546075   5.949   3.188   4.931 -0.2282 -1.2307 -0.5697
  191MOL    H9646076   5.805   3.091   4.980  1.9969 -0.6555 -1.0651
  191MOL    H9746077   5.946   3.535   5.060  0.8781 -0.4205 -0.2161
  191MOL    C9846078   5.640   3.283   5.047 -0.0591  0.6326  0.6986
  191MOL    C9946079   5.543   3.396   5.099  0.5211  0.0571  0.1901
  191MOL   C10046080   5.433   3.321   5.172 -0.0754 -0.0144  0.9286
  191MOL   C10146081   5.622   3.474   5.204 -0.0197  0.6788  0.1811
  191MOL   O10246082   5.673   3.586   5.187 -0.6084 -0.1995  0.3970
  191MOL   O10346083   5.648   3.398   5.315  0.1219  0.2031 -0.2182
  191MOL   H10446084   5.574   3.212   4.997 -1.5389  0.5550  2.7000
  191MOL   H10546085   5.679   3.231   5.134  1.9827 -1.4145 -1.3445
  191MOL   H10646086   5.472   3.240   5.234 -0.7200 -1.6889 -0.7916
  191MOL   H10746087   5.363   3.276   5.101 -0.1269 -1.0825  1.6432
  191MOL   H10846088   5.371   3.381   5.239 -1.1304 -0.8147  0.6839
  191MOL   H10946089   5.721   3.434   5.362  1.4248  0.9726 -2.7519
  191MOL   C11046090   5.485   3.477   4.979 -0.5769 -0.2135  0.4615
  191MOL   C11146091   5.402   3.614   4.980  0.4776 -0.2466  0.2337
  191MOL   C11246092   5.263   3.590   5.046 -0.0838 -0.0999  0.5948
  191MOL   C11346093   5.467   3.735   5.043 -0.3784 -0.2721  0.0898
  191MOL   O11446094   5.415   3.804   5.133  0.3349  0.3290  0.6924
  191MOL   O11546095   5.587   3.768   4.980 -0.2178 -0.1341  0.1997
  191MOL   H11646096   5.578   3.509   4.933 -1.2636  1.2029  0.0438
  191MOL   H11746097   5.427   3.402   4.925  2.2995 -0.4842 -2.3646
  191MOL   H11846098   5.189   3.670   5.045 -0.7869 -0.7528  0.6469
  191MOL   H11946099   5.296   3.577   5.149 -2.9613  0.7360  1.6635
  191MOL   H12046100   5.218   3.493   5.025  1.4956 -0.6228 -0.4537
  191MOL   H12146101   5.616   3.706   4.915  1.1584 -0.7386  1.3687
  191MOL   C12246102   5.375   3.654   4.826 -0.4050  0.1478 -0.4789
  191MOL   C12346103   5.268   3.593   4.737 -0.3356  0.2834  0.1725
  191MOL   C12446104   5.267   3.435   4.746 -0.1401 -0.1315 -0.2017
  191MOL   C12546105   5.133   3.651   4.762  0.9560  0.9406  0.2835
  191MOL   O12646106   5.114   3.756   4.828 -0.1734 -0.6625  0.4971
  191MOL   O12746107   5.042   3.592   4.688 -0.1790 -0.0393 -0.2575
  191MOL   H12846108   5.367   3.762   4.827 -1.4267  0.0731  2.3469
  191MOL   H12946109   5.467   3.633   4.772 -0.3527 -2.2982  0.5230
  191MOL   H13046110   5.185   3.398   4.685  0.0119  2.5367 -2.1300
  191MOL   H13146111   5.237   3.397   4.843  1.2032 -0.0524  0.2559
  191MOL   H13246112   5.362   3.393   4.714  0.3257  1.7688 -1.4677
  191MOL   H13346113   4.956   3.632   4.696  0.1477  0.4714  0.8711
  191MOL   C13446114   5.300   3.612   4.582 -0.2553  0.0067  0.1066
  191MOL   C13546115   5.320   3.746   4.510 -0.0370  0.1585  0.5320
  191MOL   C13646116   5.197   3.835   4.512 -0.5386  0.4195 -0.4851
  191MOL   C13746117   5.440   3.825   4.567  0.5313  0.1003 -0.6106
  191MOL   O13846118   5.427   3.934   4.631 -0.3627  0.3290 -0.0962
  191MOL   O13946119   5.550   3.757   4.573 -0.2185 -0.1765  0.0431
  191MOL   H14046120   5.386   3.548   4.563 -0.1271  0.7621 -1.9137
  191MOL   H14146121   5.229   3.545   4.534 -1.1828  1.3173 -0.3480
  191MOL   H14246122   5.227   3.916   4.445  2.7683 -0.5235 -0.2143
  191MOL   H14346123   5.172   3.877   4.610  0.1075 -0.9987  0.2958
  191MOL   H14446124   5.112   3.777   4.476 -0.5250  0.9722 -1.4282
  191MOL   H14546125   5.620   3.815   4.601 -1.2633  2.0732 -1.8289
  191MOL   C14646126   5.340   3.698   4.358  0.1063  0.1328  0.2559
  191MOL   C14746127   5.331   3.784   4.225 -0.2284 -0.1315  0.2877
  191MOL   C14846128   5.360   3.685   4.113 -0.2698 -0.1297  0.5136
  191MOL   C14946129   5.189   3.840   4.199 -0.1101  0.6955  0.0879
  191MOL   O15046130   5.157   3.961   4.199 -0.2420  0.2800 -0.4071
  191MOL   O15146131   5.093   3.742   4.202 -0.2703  0.4120  0.1256
  191MOL   H15246132   5.442   3.660   4.361  0.1717  0.2618 -0.2316
  191MOL   H15346133   5.270   3.616   4.340 -1.1513  1.0925  0.6943
  191MOL   H15446134   5.447   3.624   4.137  0.0671 -0.3252 -1.1529
  191MOL   H15546135   5.364   3.741   4.020  0.1924  0.1816  0.7205
  191MOL   H15646136   5.280   3.611   4.105  0.8426 -1.4188  1.0438
  191MOL   H15746137   5.002   3.770   4.203 -0.8018 -1.2175 -0.5400
  191MOL   C15846138   5.444   3.900   4.239 -0.6079 -0.3023 -0.2988
  191MOL   C15946139   5.514   3.974   4.119  0.0303  0.7178  0.1786
  191MOL   C16046140   5.396   4.021   4.024 -0.3321  0.6412 -0.6633
  191MOL   C16146141   5.578   4.097   4.177  0.2666 -0.4319  0.5066
  191MOL   O16246142   5.591   4.124   4.293  0.7662 -0.4976 -1.0364
  191MOL   O16346143   5.631   4.174   4.077  0.0939  0.2724  0.2698
  191MOL   H16446144   5.392   3.979   4.292  1.0360  0.4327  0.2519
  191MOL   H16546145   5.523   3.862   4.305 -1.1457 -0.5264  0.2202
  191MOL   H16646146   5.333   3.946   3.977  0.4450 -0.7071  0.4023
  191MOL   H16746147   5.439   4.063   3.933 -0.9755  0.5153 -1.0251
  191MOL   H16846148   5.332   4.097   4.069 -2.2423  0.1678 -2.5121
  191MOL   H16946149   5.676   4.252   4.104  0.0323  0.3940  0.0199
  191MOL   C17046150   5.616   3.877   4.033  0.3864  0.4262 -0.3775
  191MOL   C17146151   5.768   3.841   4.073  0.2974 -0.4928 -0.5655
  191MOL   C17246152   5.855   3.975   4.083 -0.2449 -0.2664  1.0090
  191MOL   C17346153   5.778   3.762   4.209 -0.1646  0.2865 -0.8375
  191MOL   O17446154   5.868   3.775   4.289  0.0317  0.2470  0.0653
  191MOL   O17546155   5.688   3.664   4.218 -0.1302 -0.2474  0.4687
  191MOL   H17646156   5.581   3.781   3.996 -1.6052  0.7237  0.6708
  191MOL   H17746157   5.628   3.935   3.941  0.1406 -2.3529 -2.2125
  191MOL   H17846158   5.962   3.961   4.073 -0.4111 -1.2836  0.5012
  191MOL   H17946159   5.825   4.034   4.169  0.2969  0.9550  0.3756
  191MOL   H18046160   5.835   4.039   3.997 -1.1308 -1.9306 -0.0440
  191MOL   H18146161   5.713   3.598   4.281  2.3883 -1.3198 -1.5896
  191MOL   C18246162   5.827   3.775   3.935  0.7041 -0.4393  0.2326
  191MOL   C18346163   5.839   3.623   3.894 -0.2382  0.3011  0.2890
  191MOL   C18446164   5.896   3.631   3.749 -0.2010 -0.2554 -0.5497
  191MOL   C18546165   5.944   3.547   3.985  0.1635  0.3342  0.2119
  191MOL   O18646166   6.052   3.510   3.947 -0.1806  0.2827 -0.1186
  191MOL   O18746167   5.899   3.523   4.110 -0.0681  0.4636  0.1630
  191MOL   H18846168   5.803   3.825   3.841  1.5429 -0.4825 -0.0002
  191MOL   H18946169   5.934   3.796   3.937  0.7927 -0.6178 -1.7403
  191MOL   H19046170   5.941   3.537   3.714 -0.8501 -0.2493 -1.4177
  191MOL   H19146171   5.974   3.707   3.738  0.3468 -0.6501  0.5857
  191MOL   H19246172   5.811   3.654   3.685 -2.0954  0.3203  2.1425
  191MOL   H19346173   5.966   3.495   4.172  0.2315 -1.1662 -0.8529
  191MOL   C19446174   5.696   3.552   3.889  0.6885 -0.5628 -0.0114
  191MOL   C19546175   5.664   3.406   3.835  0.8704  0.4393  0.9790
  191MOL   C19646176   5.758   3.305   3.899 -0.6890  0.9006 -0.9307
  191MOL   C19746177   5.517   3.380   3.883  0.5899  0.3997  0.7942
  191MOL   O19846178   5.470   3.269   3.917 -0.1897  0.2077 -0.0827
  191MOL   O19946179   5.435   3.492   3.877  0.5878  0.7045  0.4976
  191MOL   H20046180   5.663   3.555   3.992 -1.5186  0.1973 -0.7107
  191MOL   H20146181   5.630   3.614   3.829  0.4371 -0.6247  0.2044
  191MOL   H20246182   5.858   3.305   3.855  0.3841  1.7432  1.4251
  191MOL   H20346183   5.736   3.198   3.904 -0.0095  0.8286  0.9286
  191MOL   H20446184   5.763   3.331   4.005  0.4615 -2.4877 -0.0886
  191MOL   H20546185   5.347   3.460   3.887  1.0811 -0.9274 -0.1140
  191MOL   C20646186   5.696   3.393   3.682 -0.2735 -0.5469  0.5030
  191MOL   C20746187   5.626   3.286   3.588 -0.3044 -0.1328 -0.1444
  191MOL   C20846188   5.655   3.146   3.633  0.5826  0.5347 -0.3304
  191MOL   C20946189   5.478   3.317   3.572 -0.4001  0.4533  0.3019
  191MOL   O21046190   5.437   3.433   3.551  1.0295 -0.0492 -0.6716
  191MOL   O21146191   5.398   3.211   3.595 -0.1984 -0.0030 -0.5234
  191MOL   H21246192   5.661   3.486   3.636 -0.5725  0.1020  1.9990
  191MOL   H21346193   5.803   3.386   3.664 -0.1877  0.2605  0.6733
  191MOL   H21446194   5.758   3.115   3.616  0.4561  0.0468 -0.2249
  191MOL   H21546195   5.589   3.069   3.594  0.0237  0.7652  0.1500
  191MOL   H21646196   5.642   3.134   3.741 -0.1935 -1.7042 -0.6525
  191MOL   H21746197   5.310   3.243   3.588 -0.0214  0.3918 -0.9986
  191MOL   C21846198   5.685   3.310   3.444  0.4712  0.4584  0.0442
  191MOL   C21946199   5.651   3.224   3.310  0.5219  0.2739 -0.0289
  191MOL   C22046200   5.717   3.083   3.328  0.0871 -0.3365 -0.5568
  191MOL   C22146201   5.503   3.217   3.273 -0.3576  0.3592 -1.0461
  191MOL   O22246202   5.438   3.117   3.287  0.2106 -0.3879  0.2984
  191MOL   O22346203   5.454   3.340   3.240 -0.1331  0.3116  0.5512
  191MOL   H22446204   5.671   3.414   3.416 -1.1362  0.4794  0.8536
  191MOL   H22546205   5.792   3.295   3.458  0.4850  1.0166  0.5448
  191MOL   H22646206   5.739   3.036   3.232  0.5305  1.0635 -1.1615
  191MOL   H22746207   5.650   3.010   3.373 -0.8403  1.5187  1.1364
  191MOL   H22846208   5.806   3.091   3.391 -0.5725 -0.7440  0.4391
  191MOL   H22946209   5.369   3.341   3.199  0.5646  0.3629 -0.9390
  191MOL   C23046210   5.724   3.298   3.196  0.0223  0.2164  0.5470
  191MOL   C23146211   5.726   3.245   3.045  0.0397  0.0844 -0.0209
  191MOL   C23246212   5.583   3.234   2.970 -0.1730 -0.1833  0.2959
  191MOL   C23346213   5.831   3.315   2.952 -0.2037  0.0525  0.0522
  191MOL   O23446214   5.805   3.336   2.832 -0.6974 -0.1363  0.4936
  191MOL   O23546215   5.947   3.342   3.011 -0.6464  0.1534 -0.6646
  191MOL   H23646216   5.685   3.400   3.187 -2.5562 -0.8035 -0.1880
  191MOL   H23746217   5.828   3.298   3.229 -0.2292 -0.9890  1.3422
  191MOL   H23846218   5.529   3.320   3.007 -0.9982 -0.9846  0.9719
  191MOL   H23946219   5.539   3.135   2.986  2.4491 -1.6051 -0.8391
  191MOL   H24046220   5.590   3.237   2.861  0.0243  1.4231  0.3470
  191MOL   H24146221   6.011   3.395   2.967  0.4235 -1.6912 -1.3558
  191MOL   H24246222   5.758   3.141   3.054  1.3532  0.5325  0.7852
  192MOL     C146223   5.063   7.290   6.891 -0.3333  0.0859  0.7737
  192MOL     C246224   5.074   7.412   6.996 -0.0083  0.2966 -0.6141
  192MOL     C346225   5.212   7.468   6.997  0.3850 -0.1943 -0.3953
  192MOL     C446226   4.974   7.520   6.946 -0.2399 -0.1661  0.1839
  192MOL     O546227   4.869   7.543   7.004  0.3255 -0.5939 -0.1882
  192MOL     O646228   5.010   7.580   6.832  0.1777  0.6310  0.3638
  192MOL     H746229   5.138   7.211   6.894  2.6082  2.7928  1.3416
  192MOL     H846230   5.078   7.315   6.786 -0.4184  0.3685  0.8272
  192MOL     H946231   5.227   7.563   7.048 -0.2653 -0.3674  0.1264
  192MOL    H1046232   5.258   7.478   6.899 -2.2634  1.4175 -1.5410
  192MOL    H1146233   5.279   7.397   7.045  0.0424  0.0389  0.4385
  192MOL    H1246234   4.944   7.644   6.811 -1.2617 -0.4966  1.3820
  192MOL    H1346235   4.961   7.252   6.892 -1.1494  1.9072 -3.1396
  192MOL    C1446236   5.042   7.367   7.139  0.8758 -0.4855 -0.2420
  192MOL    C1546237   5.077   7.439   7.276 -0.5511 -0.2494 -0.0457
  192MOL    C1646238   4.980   7.375   7.377  0.4488  0.2533 -0.1908
  192MOL    C1746239   5.218   7.382   7.312 -0.4705  0.2915 -0.0948
  192MOL    O1846240   5.232   7.269   7.366 -0.6432  0.1285  0.4450
  192MOL    O1946241   5.324   7.461   7.278 -0.0206  0.1752 -0.0697
  192MOL    H2046242   4.935   7.343   7.135  1.0684 -1.9068  2.1160
  192MOL    H2146243   5.090   7.269   7.139  0.1785 -0.8471  1.1797
  192MOL    H2246244   4.981   7.266   7.370 -1.8325  0.0480  2.1232
  192MOL    H2346245   4.881   7.414   7.355 -0.2015 -2.8101 -3.2313
  192MOL    H2446246   5.002   7.399   7.481  1.0800  0.2774 -0.3278
  192MOL    H2546247   5.404   7.422   7.310 -0.4250 -0.5734  0.0401
  192MOL    C2646248   5.060   7.596   7.276  0.3711  0.2438 -0.4813
  192MOL    C2746249   5.061   7.693   7.400 -0.0615  0.7186  0.0448
  192MOL    C2846250   4.932   7.666   7.481  0.3867 -0.2546 -0.3401
  192MOL    C2946251   5.181   7.673   7.500 -0.0851  0.3480 -0.8455
  192MOL    O3046252   5.271   7.755   7.509  0.2114  0.1735 -0.0450
  192MOL    O3146253   5.176   7.554   7.561 -0.1718 -0.2804  0.5511
  192MOL    H3246254   5.122   7.638   7.197  1.2493 -0.8781 -0.3980
  192MOL    H3346255   4.959   7.610   7.237  0.3647 -0.6829 -0.8100
  192MOL    H3446256   4.916   7.752   7.547  0.2925 -0.6526  0.1544
  192MOL    H3546257   4.945   7.585   7.553  2.0229  0.1850 -0.1000
  192MOL    H3646258   4.853   7.648   7.408  1.9892  2.0121 -2.7558
  192MOL    H3746259   5.256   7.541   7.611 -0.7901 -2.2614  1.0713
  192MOL    C3846260   5.055   0.075   7.343  0.6208 -0.2802  0.3353
  192MOL    C3946261   5.144   0.132   7.227  0.3099  0.7174 -0.2622
  192MOL    C4046262   5.287   0.072   7.241 -0.6813  0.4653  0.1853
  192MOL    C4146263   5.093   0.106   7.082  0.1104 -0.7555  0.0016
  192MOL    O4246264   4.985   0.055   7.065 -0.4053  0.0472 -0.5517
  192MOL    O4346265   5.173   0.149   6.984 -0.8146  0.3424  0.2565
  192MOL    H4446266   4.951   0.089   7.316  1.2728  2.2158 -1.0710
  192MOL    H4546267   5.050   0.146   7.427  0.7660 -0.3659  0.4173
  192MOL    H4646268   5.335   0.120   7.326 -0.2395 -0.3481  0.3941
  192MOL    H4746269   5.343   0.102   7.152 -0.7048  2.5210  0.8549
  192MOL    H4846270   5.299   7.732   7.254 -0.3897  0.5739  0.8183
  192MOL    H4946271   5.128   0.137   6.902 -0.4422  0.6235  0.0094
  192MOL    C5046272   5.167   0.287   7.250  0.0426  0.3459  0.4280
  192MOL    C5146273   5.060   0.404   7.228 -0.6793 -0.2033  0.2711
  192MOL    C5246274   4.918   0.357   7.244 -0.1776 -0.6538 -0.3878
  192MOL    C5346275   5.076   0.520   7.335  0.3802  0.1251  0.1520
  192MOL    O5446276   4.980   0.589   7.370 -0.2184  0.2781  0.2801
  192MOL    O5546277   5.198   0.531   7.381  0.0368 -0.0506  0.4686
  192MOL    H5646278   5.199   0.294   7.354  0.5645 -0.0261  0.2942
  192MOL    H5746279   5.262   0.309   7.201 -0.1544  0.1556 -0.0446
  192MOL    H5846280   4.840   0.433   7.250  0.5496  0.1896 -1.4253
  192MOL    H5946281   4.912   0.296   7.334 -0.4438 -1.0231 -0.6559
  192MOL    H6046282   4.881   0.293   7.165 -1.2755 -0.6895  0.1471
  192MOL    H6146283   5.201   0.609   7.435  0.3429  0.9935 -1.0391
  192MOL    C6246284   5.096   0.464   7.082  0.5811 -0.0508  0.0022
  192MOL    C6346285   5.020   0.590   7.017  0.3716  0.5338  0.5160
  192MOL    C6446286   4.868   0.579   7.013  0.6008  0.6952 -0.6598
  192MOL    C6546287   5.050   0.729   7.074  0.1603  0.4241  0.4822
  192MOL    O6646288   5.131   0.747   7.159 -0.1513 -0.2966 -0.0725
  192MOL    O6746289   5.005   0.836   7.000  0.2998 -0.1837 -0.1076
  192MOL    H6846290   5.203   0.484   7.091  0.7295 -0.3462 -1.0794
  192MOL    H6946291   5.079   0.385   7.009  0.4666 -1.4583  1.5294
  192MOL    H7046292   4.835   0.582   7.117  1.2266  3.4437 -0.5002
  192MOL    H7146293   4.839   0.482   6.973 -0.5746  0.0454  1.6412
  192MOL    H7246294   4.816   0.656   6.957 -0.3218  1.3452  1.0698
  192MOL    H7346295   5.059   0.911   7.018 -0.1964  0.5659 -1.6349
  192MOL    C7446296   5.052   0.591   6.861 -0.6704 -0.4925  0.6463
  192MOL    C7546297   5.199   0.605   6.790 -0.2947  0.5702 -0.0375
  192MOL    C7646298   5.295   0.712   6.862  0.2710 -0.3219 -0.1381
  192MOL    C7746299   5.267   0.468   6.801  0.2573  0.1012 -1.1513
  192MOL    O7846300   5.373   0.454   6.853 -0.1602  0.6163  0.5444
  192MOL    O7946301   5.197   0.363   6.739 -0.1715 -0.4419  0.2909
  192MOL    H8046302   5.020   0.495   6.821  3.9328 -2.1096  0.5607
  192MOL    H8146303   4.983   0.662   6.816 -1.2961 -2.5281 -1.7179
  192MOL    H8246304   5.297   0.683   6.968 -0.7896  1.3673  0.3680
  192MOL    H8346305   5.259   0.815   6.866 -3.4035 -1.5316  0.0327
  192MOL    H8446306   5.394   0.717   6.817  0.1371  1.0730 -0.2853
  192MOL    H8546307   5.246   0.282   6.739 -0.7427 -0.7895 -0.3573
  192MOL    C8646308   5.161   0.641   6.644  0.2645 -0.4590  0.0490
  192MOL    C8746309   5.258   0.717   6.545  0.1161  0.5186 -0.1166
  192MOL    C8846310   5.268   0.869   6.580  0.0932  0.4108 -1.1744
  192MOL    C8946311   5.396   0.645   6.539  0.1092  0.5683  0.5615
  192MOL    O9046312   5.503   0.701   6.575  0.2150  0.1610 -0.7234
  192MOL    O9146313   5.384   0.516   6.495 -0.1602 -0.0599  0.0092
  192MOL    H9246314   5.137   0.545   6.598  0.3044  0.4327 -1.8467
  192MOL    H9346315   5.067   0.697   6.641  1.2350  1.3008  1.4390
  192MOL    H9446316   5.352   0.895   6.645 -0.5790  2.7740 -1.1926
  192MOL    H9546317   5.181   0.881   6.645  1.5146  0.9867  0.6717
  192MOL    H9646318   5.262   0.945   6.502 -3.4433  1.7337  0.2724
  192MOL    H9746319   5.474   0.487   6.499  0.1425  0.7851 -0.7382
  192MOL    C9846320   5.180   0.711   6.411  0.7109  0.5029  0.3531
  192MOL    C9946321   5.235   0.731   6.261  0.3870 -0.4665  0.0951
  192MOL   C10046322   5.315   0.866   6.262 -0.4715  0.2486 -0.0170
  192MOL   C10146323   5.329   0.618   6.209  0.2196  0.3783  0.1190
  192MOL   O10246324   5.437   0.639   6.161  0.3069 -0.0498 -0.1496
  192MOL   O10346325   5.264   0.493   6.201 -0.4348 -0.6852 -0.3092
  192MOL   H10446326   5.115   0.623   6.411  0.5166  0.6487  1.2045
  192MOL   H10546327   5.095   0.775   6.434 -0.0886 -0.3769 -0.1006
  192MOL   H10646328   5.392   0.856   6.338  1.7645  0.5292 -2.2018
  192MOL   H10746329   5.253   0.954   6.277  0.0645  1.1912 -3.0031
  192MOL   H10846330   5.376   0.882   6.173  0.6919  0.4340  0.8020
  192MOL   H10946331   5.311   0.439   6.140  0.5442 -0.5062  0.2738
  192MOL   C11046332   5.110   0.737   6.164  0.7212  0.8016  0.0571
  192MOL   C11146333   5.119   0.787   6.011  0.1821 -0.5297  0.1744
  192MOL   C11246334   5.245   0.749   5.938 -0.3504  0.1975 -0.2508
  192MOL   C11346335   4.989   0.721   5.952 -0.0965 -0.3033 -0.2136
  192MOL   O11446336   4.983   0.657   5.847  0.2241 -0.4322  0.6940
  192MOL   O11546337   4.884   0.756   6.027  0.2809 -0.3688  0.5490
  192MOL   H11646338   5.060   0.640   6.167  1.5096  0.3595 -1.1390
  192MOL   H11746339   5.046   0.813   6.210  1.0528  0.7965  0.5258
  192MOL   H11846340   5.332   0.798   5.982 -1.9063  1.6197  1.3195
  192MOL   H11946341   5.243   0.772   5.831  1.3213 -1.4710 -0.6724
  192MOL   H12046342   5.266   0.645   5.963  1.3310  0.7118  0.5455
  192MOL   H12146343   4.802   0.736   5.985  0.2825  1.4462 -0.3459
  192MOL   C12246344   5.112   0.946   6.011  0.4595  0.8531  0.1898
  192MOL   C12346345   5.148   1.040   5.896 -0.5385 -0.0389 -0.4006
  192MOL   C12446346   5.302   1.062   5.884  0.1922 -0.1057  0.4640
  192MOL   C12546347   5.092   1.005   5.752 -0.2016 -0.2369 -0.4086
  192MOL   O12646348   4.994   0.939   5.724  0.2624 -0.4622  0.3418
  192MOL   O12746349   5.167   1.081   5.662 -0.1362 -0.2548 -0.1743
  192MOL   H12846350   5.006   0.969   6.026 -0.0551 -1.0936 -0.3010
  192MOL   H12946351   5.165   0.987   6.097  2.1396  1.2433 -1.0154
  192MOL   H13046352   5.353   0.982   5.829  1.6326  1.7042 -0.8991
  192MOL   H13146353   5.349   1.073   5.982 -1.5283  0.6122  1.2107
  192MOL   H13246354   5.324   1.146   5.817  2.6683 -1.4342 -0.4656
  192MOL   H13346355   5.140   1.059   5.574 -1.5297  2.4255 -0.4586
  192MOL   C13446356   5.101   1.186   5.938  0.4398  0.4849 -0.4744
  192MOL   C13546357   4.954   1.229   5.986 -0.2881 -0.3406 -0.0503
  192MOL   C13646358   4.838   1.166   5.898  0.0861 -0.3472  0.3473
  192MOL   C13746359   4.936   1.196   6.139  0.0003 -0.6359  0.1228
  192MOL   O13846360   5.028   1.154   6.209 -0.2215  0.1139  0.1002
  192MOL   O13946361   4.815   1.227   6.188 -0.0592 -0.5157 -0.6851
  192MOL   H14046362   5.174   1.219   6.011  0.5439  1.2901 -0.9354
  192MOL   H14146363   5.129   1.253   5.857  0.4006 -0.4207 -1.2478
  192MOL   H14246364   4.853   1.178   5.790  3.1026  2.2698  0.9805
  192MOL   H14346365   4.743   1.202   5.938 -0.2271  0.0800 -0.7431
  192MOL   H14446366   4.839   1.058   5.914 -3.2264 -0.6629 -1.1099
  192MOL   H14546367   4.797   1.187   6.272  0.0899 -1.7281 -1.2157
  192MOL   C14646368   4.933   1.383   5.968 -0.1563  0.1454  0.7301
  192MOL   C14746369   5.024   1.493   6.037 -0.4905 -0.0519 -0.0229
  192MOL   C14846370   5.067   1.462   6.177  0.3853 -0.1211  0.7515
  192MOL   C14946371   5.152   1.508   5.955 -0.4200  0.6097  0.3454
  192MOL   O15046372   5.268   1.506   6.002  0.1581  0.6686  0.7612
  192MOL   O15146373   5.133   1.547   5.827  0.1173 -0.3344  0.5223
  192MOL   H15246374   4.940   1.402   5.861  3.4404  0.7983  0.9963
  192MOL   H15346375   4.830   1.386   6.004 -0.4552 -0.7429 -0.0445
  192MOL   H15446376   5.119   1.550   6.217  1.8493 -0.7403  0.2424
  192MOL   H15546377   5.134   1.376   6.178  0.4321 -0.0835  0.9503
  192MOL   H15646378   4.987   1.463   6.251 -0.2432 -1.5732  0.1021
  192MOL   H15746379   5.219   1.570   5.794  0.4329 -1.7568  0.3426
  192MOL   C15846380   4.944   1.628   6.020 -0.4120  0.2412 -0.4922
  192MOL   C15946381   4.846   1.686   6.135 -0.2669 -0.6210  0.2068
  192MOL   C16046382   4.733   1.592   6.172  0.6469  0.5729  0.4677
  192MOL   C16146383   4.926   1.729   6.256 -0.3509  0.3920  1.0076
  192MOL   O16246384   4.928   1.658   6.359 -0.1203  1.1116 -0.2280
  192MOL   O16346385   4.991   1.849   6.246 -0.4467 -0.5729 -0.4598
  192MOL   H16446386   5.012   1.707   5.989 -1.0248  0.5273 -1.1394
  192MOL   H16546387   4.898   1.619   5.921 -0.9139  1.6674 -0.3971
  192MOL   H16646388   4.674   1.634   6.253  0.9148  0.3561  0.7806
  192MOL   H16746389   4.767   1.497   6.213 -1.8873 -1.2408 -1.4883
  192MOL   H16846390   4.673   1.557   6.088  1.4839 -0.6574  0.3677
  192MOL   H16946391   5.037   1.866   6.326  0.5638  0.4203 -1.2435
  192MOL   C17046392   4.785   1.819   6.072  0.0515 -0.0358 -0.1348
  192MOL   C17146393   4.669   1.911   6.133  0.1825  0.8819 -0.4299
  192MOL   C17246394   4.693   1.934   6.283  0.3116  0.3290 -0.0588
  192MOL   C17346395   4.673   2.046   6.055 -0.5501  0.2101 -0.1981
  192MOL   O17446396   4.685   2.158   6.103 -0.2082  0.9934 -0.4868
  192MOL   O17546397   4.663   2.022   5.921  0.9035  0.2503  0.1375
  192MOL   H17646398   4.864   1.882   6.033  0.0850 -1.0521 -1.8054
  192MOL   H17746399   4.737   1.772   5.985  1.5087  1.8532 -2.0067
  192MOL   H17846400   4.694   1.846   6.347 -2.7759  1.2951  1.3980
  192MOL   H17946401   4.628   2.012   6.322 -1.7240 -1.2361 -0.2675
  192MOL   H18046402   4.780   1.998   6.299 -2.1417  3.4721  1.4599
  192MOL   H18146403   4.684   2.091   5.860  1.6104 -1.0359 -1.1177
  192MOL   C18246404   4.533   1.840   6.109 -0.2994 -0.0687  0.1148
  192MOL   C18346405   4.396   1.859   6.179  0.0622 -0.3864  0.4348
  192MOL   C18446406   4.294   1.784   6.086  0.0322 -0.5772 -0.0596
  192MOL   C18546407   4.397   1.785   6.321 -0.4319 -0.1513  0.3361
  192MOL   O18646408   4.370   1.665   6.345 -0.5631  0.0544  0.2570
  192MOL   O18746409   4.441   1.863   6.424  0.1786  0.5814  0.1565
  192MOL   H18846410   4.524   1.831   6.000 -1.2247 -1.9623  0.3171
  192MOL   H18946411   4.537   1.731   6.119  0.0606 -0.2301 -1.5774
  192MOL   H19046412   4.213   1.742   6.145  0.4509 -0.9926  0.2260
  192MOL   H19146413   4.338   1.702   6.029 -2.9422 -1.7894 -0.7091
  192MOL   H19246414   4.245   1.847   6.012  0.5772 -1.1564 -0.9278
  192MOL   H19346415   4.446   1.808   6.501 -2.1014  0.7340  0.4402
  192MOL   C19446416   4.372   2.016   6.182  0.2225  0.2099 -0.3032
  192MOL   C19546417   4.248   2.080   6.265  0.1284  0.2228 -0.0694
  192MOL   C19646418   4.119   1.992   6.268  0.4632  0.2501  0.1808
  192MOL   C19746419   4.297   2.106   6.410 -0.0927 -0.7445  0.5217
  192MOL   O19846420   4.253   2.048   6.510 -0.1462 -0.3372  0.0397
  192MOL   O19946421   4.391   2.208   6.413  0.2200  0.3476  0.4240
  192MOL   H20046422   4.465   2.068   6.206  0.4379 -0.2299 -0.1786
  192MOL   H20146423   4.345   2.043   6.080 -0.5277  1.1791  0.1382
  192MOL   H20246424   4.071   1.980   6.171 -2.4503 -1.4879  1.7692
  192MOL   H20346425   4.054   2.039   6.341 -0.5954 -0.9175  0.0107
  192MOL   H20446426   4.140   1.901   6.323 -1.6200 -0.0685  0.4887
  192MOL   H20546427   4.420   2.206   6.503 -0.9043  1.2072  0.8150
  192MOL   C20646428   4.227   2.217   6.185  0.7675  0.6671 -0.0202
  192MOL   C20746429   4.128   2.329   6.241  0.3075 -0.1040 -0.2271
  192MOL   C20846430   4.024   2.287   6.356  0.4655  0.5176 -0.5899
  192MOL   C20946431   4.222   2.448   6.294 -0.1999  0.2016  0.1637
  192MOL   O21046432   4.222   2.495   6.410  0.4039 -0.1164  0.5400
  192MOL   O21146433   4.298   2.496   6.190  0.2981  0.0650 -0.3594
  192MOL   H21246434   4.328   2.257   6.174  1.7370 -0.7454  3.1276
  192MOL   H21346435   4.194   2.186   6.086  1.4513 -0.1304 -0.0031
  192MOL   H21446436   4.074   2.257   6.448  1.1967 -0.0697 -1.1762
  192MOL   H21546437   3.947   2.213   6.336  0.3712  0.0481  1.3921
  192MOL   H21646438   3.968   2.373   6.393  1.8059  1.5949 -1.0058
  192MOL   H21746439   4.363   2.555   6.224 -0.4271 -0.1280  1.4216
  192MOL   C21846440   4.050   2.405   6.117  0.5015 -0.4566  0.3117
  192MOL   C21946441   3.917   2.358   6.046  0.8394  0.4038  0.6320
  192MOL   C22046442   3.943   2.216   5.995 -0.0434 -0.2026  0.4776
  192MOL   C22146443   3.799   2.353   6.147 -0.1329 -0.7287  0.1319
  192MOL   O22246444   3.728   2.254   6.160 -0.1188 -0.9003  0.1745
  192MOL   O22346445   3.787   2.461   6.230 -0.1518  0.2290 -0.5058
  192MOL   H22446446   4.025   2.507   6.147  0.4407 -0.2830 -0.3190
  192MOL   H22546447   4.125   2.414   6.039 -0.9237 -0.8744 -1.1374
  192MOL   H22646448   3.945   2.146   6.079 -2.2535 -1.6008 -0.5919
  192MOL   H22746449   4.033   2.205   5.934 -1.0994 -0.9395 -0.9868
  192MOL   H22846450   3.857   2.177   5.940 -0.8640  0.1805  1.4817
  192MOL   H22946451   3.719   2.446   6.294  1.7983  1.0986  1.8749
  192MOL   C23046452   3.898   2.460   5.929 -0.6432 -0.0339 -0.2819
  192MOL   C23146453   3.776   2.448   5.849 -0.4529  0.7215 -0.1043
  192MOL   C23246454   3.670   2.563   5.887 -0.0223  0.1911 -0.3816
  192MOL   C23346455   3.800   2.463   5.696 -0.2191  0.3143  0.1960
  192MOL   O23446456   3.883   2.537   5.648  0.1695  0.0912  0.5146
  192MOL   O23546457   3.717   2.382   5.626 -0.2404 -0.2619  0.2873
  192MOL   H23646458   3.902   2.566   5.956  1.0828 -0.1558  0.0278
  192MOL   H23746459   3.990   2.465   5.871  0.1188 -0.1540  0.8765
  192MOL   H23846460   3.668   2.605   5.988  1.4264  0.0017 -0.2761
  192MOL   H23946461   3.566   2.532   5.877 -0.6343  2.2442 -0.6166
  192MOL   H24046462   3.681   2.658   5.835 -1.3543  0.0248 -0.9891
  192MOL   H24146463   3.725   2.402   5.534 -1.1709  0.1553  0.2868
  192MOL   H24246464   3.719   2.356   5.862 -1.0535  1.0170 -0.6507
  193MOL     C146465   1.021   1.636   7.394  0.1376  0.3375  1.0335
  193MOL     C246466   1.003   1.748   7.493 -0.3737  0.4965 -0.2842
  193MOL     C346467   0.916   1.865   7.441  0.2419  0.6903  0.1179
  193MOL     C446468   0.937   1.683   7.626 -0.1952 -0.6050  0.0598
  193MOL     O546469   0.823   1.705   7.663 -0.4177 -0.0316  0.2258
  193MOL     O646470   1.012   1.592   7.690 -0.4957 -0.1087 -0.5359
  193MOL     H746471   1.019   1.663   7.288 -0.7504 -0.0273  0.9507
  193MOL     H846472   0.943   1.559   7.395 -0.0972  0.5947  2.6870
  193MOL     H946473   0.918   1.951   7.508  2.0413 -0.7453  1.9910
  193MOL    H1046474   0.812   1.834   7.430  0.9510 -1.8590  0.1870
  193MOL    H1146475   0.941   1.900   7.341  1.0254 -0.3090 -0.0451
  193MOL    H1246476   0.971   1.541   7.758  0.7744 -0.5297 -0.0788
  193MOL    H1346477   1.113   1.586   7.423 -0.0967  0.7358  2.5096
  193MOL    C1446478   1.145   1.804   7.539 -0.1024  0.2730  0.3051
  193MOL    C1546479   1.251   1.882   7.446 -0.1078  0.0758  0.2548
  193MOL    C1646480   1.259   1.810   7.310 -0.9045 -0.7680 -0.5473
  193MOL    C1746481   1.199   2.027   7.422 -0.0223 -0.8556 -0.1635
  193MOL    O1846482   1.156   2.097   7.510 -0.5909 -0.2499 -0.1906
  193MOL    O1946483   1.202   2.075   7.294 -0.5483 -0.0265  0.4686
  193MOL    H2046484   1.137   1.873   7.623 -0.1041  2.4551 -1.4278
  193MOL    H2146485   1.203   1.717   7.571  1.0612  0.3773 -1.4544
  193MOL    H2246486   1.294   1.709   7.330  0.6606 -0.2522 -0.6074
  193MOL    H2346487   1.324   1.859   7.237 -1.0936 -0.2818 -0.3868
  193MOL    H2446488   1.164   1.795   7.258  0.3457 -1.3321 -2.7689
  193MOL    H2546489   1.165   2.159   7.275 -0.1724 -0.1301 -0.7755
  193MOL    C2646490   1.391   1.883   7.523  0.5285  0.0255  0.2641
  193MOL    C2746491   1.532   1.938   7.484 -0.3446 -0.2183 -0.4294
  193MOL    C2846492   1.633   1.895   7.589  0.1953 -0.0628  0.4781
  193MOL    C2946493   1.565   1.866   7.350  0.2535  0.9076 -0.1194
  193MOL    O3046494   1.595   1.922   7.248 -0.1602 -0.2180 -0.3510
  193MOL    O3146495   1.563   1.732   7.368  0.9415  0.1592  0.0759
  193MOL    H3246496   1.367   1.917   7.624  1.8249 -2.3324  1.3874
  193MOL    H3346497   1.404   1.778   7.548 -0.0940 -0.7146 -2.4391
  193MOL    H3446498   1.732   1.937   7.571 -0.3429 -0.0521 -2.7270
  193MOL    H3546499   1.661   1.790   7.593 -1.3169 -0.4302  1.9777
  193MOL    H3646500   1.599   1.918   7.690  1.6941  0.6316  0.8409
  193MOL    H3746501   1.561   1.693   7.282  1.7589 -1.3673  0.7346
  193MOL    C3846502   1.526   2.098   7.467  0.1265  0.0659  0.9962
  193MOL    C3946503   1.534   2.203   7.586 -0.0514  0.1001  0.5372
  193MOL    C4046504   1.426   2.173   7.695  0.2354  0.6753 -0.3187
  193MOL    C4146505   1.671   2.200   7.655  0.1866  0.4489  0.4360
  193MOL    O4246506   1.684   2.189   0.005  0.8379  0.6323 -0.1793
  193MOL    O4346507   1.778   2.222   7.577  0.3263 -0.0653 -0.9098
  193MOL    H4446508   1.608   2.129   7.402 -0.1894  2.7124  1.8288
  193MOL    H4546509   1.447   2.116   7.395  1.4907 -0.3555 -0.6376
  193MOL    H4646510   1.436   2.070   7.731  1.3423  0.4396 -1.2658
  193MOL    H4746511   1.323   2.177   7.660  1.0262  0.2411 -2.7784
  193MOL    H4846512   1.436   2.244   0.010 -1.5213 -0.9334  1.3419
  193MOL    H4946513   1.848   2.214   7.640 -0.3064  1.1532 -0.0158
  193MOL    C5046514   1.493   2.341   7.521  0.1532  0.6008  0.4190
  193MOL    C5146515   1.465   2.481   7.592  0.0404  0.2164  0.3303
  193MOL    C5246516   1.416   2.587   7.481  0.2577 -0.3419  0.3598
  193MOL    C5346517   1.336   2.462   7.677 -0.3355 -0.3139 -0.2984
  193MOL    O5446518   1.328   2.475   0.028  0.0914  0.3869 -0.8726
  193MOL    O5546519   1.226   2.449   7.599 -0.5982  0.2176  0.0665
  193MOL    H5646520   1.569   2.358   7.445 -1.5850  0.9652 -1.2875
  193MOL    H5746521   1.398   2.325   7.469 -0.6617 -3.3191  2.9136
  193MOL    H5846522   1.335   2.651   7.517  1.6028  0.7874  1.4379
  193MOL    H5946523   1.381   2.539   7.390  2.3735 -1.0378 -0.1078
  193MOL    H6046524   1.488   2.659   7.444  1.0488 -0.6262  1.3092
  193MOL    H6146525   1.144   2.441   7.645 -0.7751  3.9388  0.5888
  193MOL    C6246526   1.597   2.533   7.658  0.5052 -0.4524  0.5453
  193MOL    C6346527   1.599   2.650   7.767 -0.8149 -0.3694 -0.8404
  193MOL    C6446528   1.492   2.757   7.738  0.2111 -0.4365  0.0317
  193MOL    C6546529   1.566   2.590   0.141  0.2360 -0.3445  1.1156
  193MOL    O6646530   1.565   2.470   0.176 -0.2033  0.1163 -0.8069
  193MOL    O6746531   1.560   2.684   0.240 -0.3553 -0.2824  0.0982
  193MOL    H6846532   1.653   2.448   7.695  2.4346  0.3611 -0.4258
  193MOL    H6946533   1.652   2.576   7.574 -0.0119 -1.3563 -0.2804
  193MOL    H7046534   1.511   2.851   0.022  0.6875  0.0571 -1.0351
  193MOL    H7146535   1.392   2.721   7.764  1.2012 -2.8275  0.7001
  193MOL    H7246536   1.484   2.779   7.631  1.1082 -1.6470 -0.3003
  193MOL    H7346537   1.533   2.623   0.308  0.4174 -0.2184  0.4684
  193MOL    C7446538   1.734   2.725   7.759  0.0077  0.4910 -0.4054
  193MOL    C7546539   1.878   2.673   0.007 -0.0531 -0.1840  0.0265
  193MOL    C7646540   1.960   2.801   0.030  0.4303 -0.0108 -0.0906
  193MOL    C7746541   1.886   2.587   0.133  0.9463 -0.3324  0.1022
  193MOL    O7846542   1.908   2.624   0.249 -0.0661  0.1897 -0.1372
  193MOL    O7946543   1.854   2.455   0.096  0.1963  0.3754 -0.4409
  193MOL    H8046544   1.734   2.792   7.673  0.7384 -0.8015 -1.4322
  193MOL    H8146545   1.717   2.805   0.064 -0.4892  0.2911 -0.2989
  193MOL    H8246546   2.066   2.778   0.029  0.8031  1.6096 -1.2809
  193MOL    H8346547   1.943   2.851   0.125  1.4116  0.2502 -0.0435
  193MOL    H8446548   1.934   2.867   7.714  1.0679  0.1680 -0.1507
  193MOL    H8546549   1.835   2.400   0.171 -1.8343  0.3340 -0.9615
  193MOL    C8646550   1.916   2.605   7.637  0.2223  0.1225 -0.1345
  193MOL    C8746551   2.067   2.568   7.591  0.2487  0.4078  0.1945
  193MOL    C8846552   2.140   2.686   7.521 -0.1527 -0.0743 -0.7148
  193MOL    C8946553   2.147   2.520   7.720  0.5894 -0.2106 -0.4050
  193MOL    O9046554   2.134   2.417   0.009  0.0357 -0.0624  0.0004
  193MOL    O9146555   2.233   2.617   7.755  0.1582  0.1374 -0.0363
  193MOL    H9246556   1.861   2.512   7.633  0.1059  0.2078 -0.5727
  193MOL    H9346557   1.883   2.673   7.558 -0.4202  0.0010  0.0314
  193MOL    H9446558   2.243   2.653   7.504  0.2204 -0.1585  1.5551
  193MOL    H9546559   2.144   2.773   7.587 -0.2632 -0.0880 -0.6921
  193MOL    H9646560   2.106   2.721   7.424  0.7674 -0.3665 -1.1501
  193MOL    H9746561   2.257   2.593   0.077  0.8389  1.2788  0.0999
  193MOL    C9846562   2.069   2.445   7.489 -0.0101 -0.3345 -0.7595
  193MOL    C9946563   2.018   2.442   7.335  0.0711  0.0433  0.1514
  193MOL   C10046564   1.879   2.502   7.325  0.2905  0.6787  0.3751
  193MOL   C10146565   2.111   2.530   7.246 -0.0193 -0.7126 -0.9617
  193MOL   O10246566   2.071   2.605   7.153 -0.2380  0.2152 -0.2990
  193MOL   O10346567   2.240   2.527   7.286  0.3637 -0.6521 -0.4598
  193MOL   H10446568   2.165   2.396   7.500  0.1778  0.0032 -0.8942
  193MOL   H10546569   1.993   2.380   7.534  0.4013 -0.5104 -0.3240
  193MOL   H10646570   1.813   2.480   7.409  0.5814  0.2208  0.4869
  193MOL   H10746571   1.827   2.474   7.232  0.1273  0.2780  0.5852
  193MOL   H10846572   1.879   2.611   7.328 -0.5426  0.6611  1.5698
  193MOL   H10946573   2.290   2.590   7.237 -0.6386 -0.3080 -1.0698
  193MOL   C11046574   2.019   2.294   7.289  0.0498 -0.4639 -0.2648
  193MOL   C11146575   2.048   2.240   7.139  0.2540  0.8802 -0.4301
  193MOL   C11246576   1.962   2.316   7.043 -0.3232  0.3582 -0.0699
  193MOL   C11346577   2.195   2.257   7.096  0.1908 -0.2902  0.5670
  193MOL   O11446578   2.225   2.287   6.979  0.1550  0.3761 -0.0239
  193MOL   O11546579   2.295   2.242   7.189 -0.6362  0.7814 -0.3892
  193MOL   H11646580   2.086   2.235   7.352  0.5129  1.3541  0.9606
  193MOL   H11746581   1.918   2.258   7.308 -0.0601  0.7951  1.6222
  193MOL   H11846582   1.856   2.306   7.068 -0.0827 -0.4431  0.6423
  193MOL   H11946583   1.969   2.265   6.947 -1.0549  0.0772  0.0171
  193MOL   H12046584   1.989   2.419   7.019  1.0295  0.3127  1.1482
  193MOL   H12146585   2.272   2.225   7.279  0.2481 -0.1770 -0.3381
  193MOL   C12246586   1.995   2.093   7.110 -0.2867  0.5892 -0.4119
  193MOL   C12346587   2.049   1.955   7.171 -0.1392  0.1352  0.0421
  193MOL   C12446588   2.210   1.946   7.158  0.1426  0.2903 -0.1202
  193MOL   C12546589   2.013   1.954   7.319  0.5645 -0.1569  0.3429
  193MOL   O12646590   1.903   1.932   7.364 -0.3946 -0.1328  0.5535
  193MOL   O12746591   2.121   1.999   7.390 -0.2448 -0.3622 -0.5707
  193MOL   H12846592   1.887   2.095   7.123 -0.2182  0.2597  0.2219
  193MOL   H12946593   1.997   2.075   7.002  3.6924 -0.7100 -0.1937
  193MOL   H13046594   2.250   1.860   7.211 -1.0618  1.4692  2.8292
  193MOL   H13146595   2.271   2.025   7.203  0.6522  0.2943 -0.8118
  193MOL   H13246596   2.249   1.939   7.056 -0.1146  2.3141 -0.3834
  193MOL   H13346597   2.092   2.017   7.478  0.7771  0.3448 -0.3615
  193MOL   C13446598   1.975   1.836   7.094 -0.1268 -0.6616 -0.0217
  193MOL   C13546599   1.997   1.684   7.123 -0.3816  0.7245  0.5967
  193MOL   C13646600   2.129   1.631   7.055 -0.0385  0.7322 -0.6865
  193MOL   C13746601   2.004   1.630   7.267  0.7234  0.5791 -0.3671
  193MOL   O13846602   1.917   1.569   7.323 -0.2494 -0.0895  0.1836
  193MOL   O13946603   2.123   1.661   7.326  0.1746 -0.2324  0.1258
  193MOL   H14046604   1.867   1.852   7.094  0.3318  2.8350  0.4072
  193MOL   H14146605   2.004   1.853   6.991 -1.7101  2.0674 -0.0612
  193MOL   H14246606   2.149   1.667   6.954  1.4383 -0.2583 -0.7579
  193MOL   H14346607   2.130   1.522   7.054  0.6028  0.7291 -0.3030
  193MOL   H14446608   2.223   1.665   7.098 -0.1855 -1.6495  1.6554
  193MOL   H14546609   2.114   1.613   7.407 -3.8851  0.2496  0.0595
  193MOL   C14646610   1.866   1.605   7.067 -0.1708 -0.1711  0.4930
  193MOL   C14746611   1.815   1.613   6.919  0.7841  0.0401 -0.1096
  193MOL   C14846612   1.756   1.751   6.878  0.2516 -0.0336 -0.1116
  193MOL   C14946613   1.938   1.588   6.823  0.3230 -0.3457 -0.0961
  193MOL   O15046614   1.988   1.671   6.747  0.4201  0.3747  0.2587
  193MOL   O15146615   1.999   1.467   6.840 -0.0146  0.2999 -0.6861
  193MOL   H15246616   1.878   1.498   7.084 -1.0176 -0.3104  0.2041
  193MOL   H15346617   1.774   1.637   7.116 -0.3181 -0.0226  0.1154
  193MOL   H15446618   1.816   1.841   6.891 -1.7506  1.3781 -0.3935
  193MOL   H15546619   1.682   1.779   6.953  1.1231  1.7077  0.1214
  193MOL   H15646620   1.713   1.757   6.778 -0.0366 -0.9569 -0.0470
  193MOL   H15746621   2.069   1.467   6.777  0.2806  1.9541 -0.3908
  193MOL   C15846622   1.716   1.492   6.894  0.0429 -0.1969  0.0988
  193MOL   C15946623   1.590   1.465   6.993 -0.0125 -0.1029  0.4178
  193MOL   C16046624   1.632   1.403   7.135 -0.0065  0.1210  0.1613
  193MOL   C16146625   1.509   1.587   7.018  0.3557 -0.0984 -0.0301
  193MOL   O16246626   1.499   1.638   7.132 -0.3127  0.3519 -0.5962
  193MOL   O16346627   1.460   1.657   6.909  0.0872  0.4608  0.3797
  193MOL   H16446628   1.687   1.506   6.790 -1.7490  1.3933  0.7837
  193MOL   H16546629   1.771   1.398   6.888  2.8733  1.3890  0.0236
  193MOL   H16646630   1.709   1.327   7.121  0.8725  1.0179  0.0489
  193MOL   H16746631   1.549   1.363   7.193 -0.6937  0.5279 -0.5326
  193MOL   H16846632   1.665   1.481   7.203  0.5242  0.6573 -0.7026
  193MOL   H16946633   1.405   1.730   6.931  2.9130  2.5725  0.6607
  193MOL   C17046634   1.501   1.355   6.914  0.0946 -0.1042  0.2161
  193MOL   C17146635   1.376   1.271   6.963 -0.4152 -0.1093  0.3437
  193MOL   C17246636   1.269   1.375   7.019  0.0945  0.0909  0.0440
  193MOL   C17346637   1.315   1.208   6.832  0.0655  0.7080 -0.3672
  193MOL   O17446638   1.199   1.231   6.799  0.0069  0.0607  0.4400
  193MOL   O17546639   1.400   1.130   6.764 -0.2288  0.6198 -0.1948
  193MOL   H17646640   1.479   1.400   6.818  0.6777  0.1687  0.2087
  193MOL   H17746641   1.575   1.280   6.885 -2.3238 -2.4654 -0.0471
  193MOL   H17846642   1.251   1.442   6.935  1.2985 -0.3699 -0.6025
  193MOL   H17946643   1.309   1.430   7.104  3.7747 -1.1712 -0.7445
  193MOL   H18046644   1.181   1.318   7.047 -0.3869  0.6190 -0.3910
  193MOL   H18146645   1.364   1.079   6.693 -0.1154  0.8176 -0.3958
  193MOL   C18246646   1.432   1.160   7.058  0.2165 -0.2169 -0.0874
  193MOL   C18346647   1.355   1.095   7.179  0.3214 -0.2476 -0.3080
  193MOL   C18446648   1.302   1.208   7.276  0.4594  0.1438  0.0534
  193MOL   C18546649   1.241   1.011   7.122 -0.3125  0.2672 -0.2765
  193MOL   O18646650   1.236   0.960   7.010  0.0062  0.2728 -0.1499
  193MOL   O18746651   1.133   0.991   7.212 -0.7042  0.1964  0.4196
  193MOL   H18846652   1.465   1.073   7.001 -0.3278 -0.8037  0.4899
  193MOL   H18946653   1.533   1.187   7.089 -0.2548 -0.2524  1.5429
  193MOL   H19046654   1.200   1.236   7.251  1.1534  1.7237 -1.1102
  193MOL   H19146655   1.362   1.297   7.257  0.5971 -0.0348 -0.3686
  193MOL   H19246656   1.322   1.173   7.377 -0.9745  1.2923  0.7401
  193MOL   H19346657   1.075   0.933   7.166  0.6589 -2.8708  2.3670
  193MOL   C19446658   1.474   1.014   7.252 -0.0212  0.4638  0.6519
  193MOL   C19546659   1.458   0.890   7.351  0.1052  0.4063  0.5069
  193MOL   C19646660   1.599   0.849   7.389  0.3641  0.3605  0.0171
  193MOL   C19746661   1.390   0.934   7.482  0.5116 -0.2520 -0.3065
  193MOL   O19846662   1.440   0.952   7.592  0.2128 -0.1912  0.2179
  193MOL   O19946663   1.252   0.943   7.468 -0.2543 -0.1170  0.7134
  193MOL   H20046664   1.543   0.974   7.178  0.9133 -1.2182  2.3863
  193MOL   H20146665   1.540   1.078   7.311 -0.2010  0.5251  0.7878
  193MOL   H20246666   1.605   0.758   7.449 -0.0898  0.1085 -0.3199
  193MOL   H20346667   1.645   0.926   7.451 -1.4638 -0.5779  2.5819
  193MOL   H20446668   1.655   0.831   7.297 -0.2194 -1.9971  0.0846
  193MOL   H20546669   1.218   0.950   7.381 -0.5605 -1.2065  0.7358
  193MOL   C20646670   1.392   0.770   7.272 -0.3615  0.3427 -0.5754
  193MOL   C20746671   1.396   0.622   7.321  0.3829 -0.0992 -0.4281
  193MOL   C20846672   1.531   0.551   7.278  0.0301 -0.6443  0.5168
  193MOL   C20946673   1.375   0.597   7.473 -0.4369  0.1033  0.0705
  193MOL   O21046674   1.448   0.520   7.540 -0.0933  0.5170  0.2218
  193MOL   O21146675   1.264   0.660   7.516 -0.6698 -0.1116  0.2358
  193MOL   H21246676   1.287   0.795   7.260 -0.1752  2.3120  1.5442
  193MOL   H21346677   1.432   0.776   7.171  1.0027 -1.4141 -0.1703
  193MOL   H21446678   1.542   0.572   7.172  2.8525  2.1612  1.3033
  193MOL   H21546679   1.537   0.444   7.300  0.8029 -0.9767 -1.2204
  193MOL   H21646680   1.620   0.592   7.325  0.3799 -1.1992  0.3438
  193MOL   H21746681   1.245   0.642   7.607  1.6696 -2.4687  0.3274
  193MOL   C21846682   1.264   0.551   7.256 -0.4537 -0.2400 -0.0514
  193MOL   C21946683   1.248   0.512   7.102 -0.0519  0.7240 -0.1529
  193MOL   C22046684   1.255   0.630   7.006 -0.2387  0.8747  0.3246
  193MOL   C22146685   1.357   0.415   7.051  0.8076  0.1392 -0.8022
  193MOL   O22246686   1.411   0.420   6.941  0.1550  0.0717  0.0906
  193MOL   O22346687   1.373   0.318   7.142  0.3536 -0.2412 -0.5763
  193MOL   H22446688   1.243   0.460   7.312 -1.2571 -0.7914 -1.2328
  193MOL   H22546689   1.181   0.613   7.290 -0.1186  0.3229 -0.2453
  193MOL   H22646690   1.242   0.601   6.902  0.1115 -0.7536  0.7300
  193MOL   H22746691   1.359   0.663   7.003 -0.2057  0.7854  0.4952
  193MOL   H22846692   1.180   0.707   7.029 -1.1029  0.3799 -0.8145
  193MOL   H22946693   1.418   0.250   7.095  0.2644 -0.8541  0.2009
  193MOL   C23046694   1.103   0.443   7.089  0.1022 -0.0642 -0.4143
  193MOL   C23146695   1.066   0.362   6.959 -0.0897 -0.2171 -0.9493
  193MOL   C23246696   0.963   0.246   6.989 -0.8695 -0.0775 -0.2769
  193MOL   C23346697   1.001   0.449   6.853  1.0708  0.2600  0.1524
  193MOL   O23446698   0.942   0.549   6.878  0.0521  1.0408 -0.4829
  193MOL   O23546699   1.001   0.381   6.737  0.8914  0.2459 -0.4184
  193MOL   H23646700   1.082   0.372   7.169 -0.4902 -0.2383 -0.7312
  193MOL   H23746701   1.027   0.520   7.099 -0.2918 -0.5684  0.5399
  193MOL   H23846702   0.871   0.290   7.027 -0.9274  1.1844 -1.8206
  193MOL   H23946703   1.008   0.179   7.063 -0.0949 -1.0248 -1.5910
  193MOL   H24046704   0.931   0.184   6.906  2.1212 -2.0350 -0.0189
  193MOL   H24146705   1.037   0.294   6.746 -3.0908 -1.2698  2.2417
  193MOL   H24246706   1.153   0.326   6.904  0.2981 -0.2750 -0.3022
  194MOL     C146707   7.035   6.701   3.300  0.1459  0.0511 -0.3515
  194MOL     C246708   7.115   6.831   3.296  0.2894  0.4602 -0.4992
  194MOL     C346709   7.096   6.902   3.432  0.3487  0.0766 -0.1491
  194MOL     C446710   7.271   6.798   3.276  0.6146 -0.3523 -0.3751
  194MOL     O546711   7.314   6.682   3.261  0.1350  0.0182 -0.3146
  194MOL     O646712   7.353   6.913   3.285 -0.5942 -0.0401  0.4356
  194MOL     H746713   7.031   6.652   3.203 -3.2493  1.6921 -1.1210
  194MOL     H846714   6.936   6.721   3.341  0.0931 -0.5910 -0.1667
  194MOL     H946715   7.138   6.858   3.522  1.2210 -0.0238 -0.6062
  194MOL    H1046716   6.992   6.934   3.444  0.3163 -0.2136  0.3427
  194MOL    H1146717   7.150   6.997   3.428  1.6912 -0.5364  2.8272
  194MOL    H1246718   7.443   6.893   3.266 -0.7360  0.8326 -1.2590
  194MOL    H1346719   7.074   6.625   3.367  0.7765  0.5848 -0.1047
  194MOL    C1446720   7.071   6.927   3.179 -0.1741  0.0744  0.2817
  194MOL    C1546721   7.061   6.891   3.026  0.4091 -0.6763 -0.0800
  194MOL    C1646722   7.188   6.811   2.971 -0.3168 -0.4587 -0.1481
  194MOL    C1746723   6.935   6.808   2.988  0.4446  0.0545  0.1334
  194MOL    O1846724   6.827   6.809   3.045  0.2866  0.1963 -0.5091
  194MOL    O1946725   6.949   6.746   2.869  0.0485  0.7198 -0.0217
  194MOL    H2046726   6.974   6.967   3.208 -0.1916 -0.5340  1.0700
  194MOL    H2146727   7.141   7.010   3.176  0.0843 -0.1802 -0.7402
  194MOL    H2246728   7.284   6.863   2.972 -0.9017  0.6363 -0.2076
  194MOL    H2346729   7.187   6.795   2.863  0.0235  1.1658 -0.4010
  194MOL    H2446730   7.208   6.713   3.015  1.5627  0.3458  0.8549
  194MOL    H2546731   6.873   6.702   2.833  0.0669  1.6390 -1.1766
  194MOL    C2646732   7.055   7.026   2.944  0.4329 -0.5160  0.0717
  194MOL    C2746733   6.971   7.154   2.967 -0.2431 -0.3189  0.2792
  194MOL    C2846734   6.974   7.226   2.826  0.8272  0.2550  0.1635
  194MOL    C2946735   6.823   7.116   2.997 -0.9813  0.3009  0.2247
  194MOL    O3046736   6.770   7.123   3.110 -0.1049  0.1590 -0.3138
  194MOL    O3146737   6.751   7.081   2.889  0.9030 -0.0122  0.3633
  194MOL    H3246738   7.158   7.060   2.953 -0.8620  3.8339 -0.4126
  194MOL    H3346739   7.039   6.999   2.840 -1.7054  4.3388 -0.9738
  194MOL    H3446740   6.896   7.301   2.815  1.2426  0.5205 -1.0454
  194MOL    H3546741   6.949   7.161   2.743  0.0685 -0.6379  1.0736
  194MOL    H3646742   7.069   7.276   2.804  1.3825 -0.6353  0.4818
  194MOL    H3746743   6.661   7.076   2.916  1.2809  0.0532  1.6323
  194MOL    C3846744   7.026   7.246   3.084  0.9601  0.2869  0.4226
  194MOL    C3946745   7.046   7.404   3.069 -0.4987 -0.1690 -0.3686
  194MOL    C4046746   7.156   7.437   2.970 -0.2100 -0.1034 -0.0160
  194MOL    C4146747   6.910   7.475   3.033 -0.0169  0.9058 -0.8535
  194MOL    O4246748   6.804   7.434   3.072  0.6579  0.0479  0.1574
  194MOL    O4346749   6.932   7.588   2.966  0.1059  0.0094  0.5429
  194MOL    H4446750   6.968   7.227   3.174  1.0362 -1.8531  0.0483
  194MOL    H4546751   7.126   7.210   3.111  0.6967 -3.0438 -2.7222
  194MOL    H4646752   7.126   7.442   2.865 -1.8552 -0.7858  0.3920
  194MOL    H4746753   7.240   7.367   2.970  0.3704  0.6002 -0.3531
  194MOL    H4846754   7.204   7.532   2.991 -0.2706 -0.2960  1.0632
  194MOL    H4946755   6.856   7.643   2.954  0.0138 -0.5141 -1.3654
  194MOL    C5046756   7.092   7.460   3.213 -0.3733 -0.0232  0.2934
  194MOL    C5146757   7.232   7.441   3.283  0.1710 -0.4160  0.0291
  194MOL    C5246758   7.274   7.287   3.302 -0.2574  0.8607 -0.4235
  194MOL    C5346759   7.344   7.524   3.212  0.0554  0.0685 -0.0310
  194MOL    O5446760   7.327   7.646   3.198 -0.1052  0.2257  0.5113
  194MOL    O5546761   7.453   7.448   3.180  0.0653  0.3729 -0.2864
  194MOL    H5646762   7.076   7.568   3.207  1.1626  0.0721 -3.4763
  194MOL    H5746763   7.013   7.426   3.280 -0.3795 -3.4897 -1.3621
  194MOL    H5846764   7.371   7.270   3.348  0.4028  2.0437 -1.3669
  194MOL    H5946765   7.300   7.241   3.206 -0.6085 -1.2885  0.4749
  194MOL    H6046766   7.205   7.226   3.360  1.3731 -0.5948  0.0414
  194MOL    H6146767   7.516   7.504   3.140  1.1851 -0.5323  0.1716
  194MOL    C6246768   7.205   7.503   3.418 -0.1960 -0.5139 -0.1374
  194MOL    C6346769   7.302   7.494   3.541 -0.1152  0.6080 -0.1536
  194MOL    C6446770   7.257   7.602   3.638 -0.1080 -0.4133 -0.6996
  194MOL    C6546771   7.285   7.352   3.609 -0.0506 -0.5030  1.0438
  194MOL    O6646772   7.378   7.270   3.620 -0.2379 -0.2837  0.0578
  194MOL    O6746773   7.157   7.323   3.626  0.2150 -0.0500  0.4701
  194MOL    H6846774   7.186   7.610   3.410 -0.4420 -0.3104  2.5982
  194MOL    H6946775   7.108   7.472   3.458 -1.5579  0.3955 -2.5997
  194MOL    H7046776   7.157   7.637   3.615 -0.3590 -0.7489 -0.1057
  194MOL    H7146777   7.317   7.693   3.643  2.9025 -2.3325 -0.1462
  194MOL    H7246778   7.253   7.577   3.744  0.5397  1.1065 -0.2955
  194MOL    H7346779   7.107   7.403   3.627  0.0816 -0.1085 -0.5810
  194MOL    C7446780   7.454   7.522   3.516 -0.2778 -0.3946  0.1817
  194MOL    C7546781   7.564   7.558   3.623 -0.2015 -0.5363 -0.4716
  194MOL    C7646782   7.515   7.533   3.771  1.0286  0.6308  0.2718
  194MOL    C7746783   7.681   7.458   3.615  0.3670 -0.0519  0.2014
  194MOL    O7846784   0.028   7.496   3.602  0.1287  0.0841 -0.0502
  194MOL    O7946785   7.644   7.328   3.616 -0.4762  0.2553 -0.1582
  194MOL    H8046786   7.501   7.451   3.448  1.0858  1.3104 -0.7050
  194MOL    H8146787   7.455   7.606   3.445 -2.5639 -1.5004 -1.2285
  194MOL    H8246788   7.459   7.616   3.814  3.1049  1.4205  1.5368
  194MOL    H8346789   7.598   7.523   3.841  0.8468 -1.5765  0.1915
  194MOL    H8446790   7.453   7.444   3.784 -0.3917  1.6412  0.4887
  194MOL    H8546791   7.551   7.316   3.627 -0.2607 -1.1095  0.3788
  194MOL    C8646792   7.611   7.714   3.627 -0.3077  0.0572 -0.4230
  194MOL    C8746793   7.645   0.032   3.499  0.3725  0.2788  0.1246
  194MOL    C8846794   7.766   0.127   3.528 -0.1109  0.1394  0.0001
  194MOL    C8946795   7.695   7.699   3.382  0.9306  0.8345 -0.4776
  194MOL    O9046796   7.633   7.666   3.278  0.4519  0.3357 -0.2536
  194MOL    O9146797   0.053   7.655   3.395 -0.8250  0.2396 -0.3357
  194MOL    H9246798   7.540   0.009   3.681  0.1583 -2.6165  3.4594
  194MOL    H9346799   7.693   7.717   3.699  2.4847 -0.2725 -3.4714
  194MOL    H9446800   7.740   0.214   3.587  2.4246  2.0140 -1.5139
  194MOL    H9546801   0.056   0.155   3.439 -0.5094 -3.8004 -1.5834
  194MOL    H9646802   0.081   0.082   3.584  0.8843  3.3038  1.1790
  194MOL    H9746803   0.077   7.601   3.321  1.6888  1.5757 -0.5784
  194MOL    C9846804   7.517   0.109   3.460 -0.3129  0.5239  0.1046
  194MOL    C9946805   7.521   0.237   3.363  0.8734 -0.6474 -0.0103
  194MOL   C10046806   7.371   0.255   3.344 -0.5433 -0.0115  0.4638
  194MOL   C10146807   7.584   0.360   3.436 -0.7637  0.0668 -0.6422
  194MOL   O10246808   7.533   0.427   3.515  0.0324 -0.7696 -1.0736
  194MOL   O10346809   7.713   0.384   3.393 -0.1292 -0.2939 -0.0017
  194MOL   H10446810   7.449   0.036   3.415 -0.1774  1.2512 -1.2864
  194MOL   H10546811   7.454   0.139   3.544 -2.4655  0.4108 -1.4243
  194MOL   H10646812   7.310   0.247   3.435  0.9979  0.5811  1.5710
  194MOL   H10746813   7.328   0.190   3.268 -0.7251  0.1054  0.4655
  194MOL   H10846814   7.342   0.352   3.302  0.1751  0.4420  1.0069
  194MOL   H10946815   7.735   0.469   3.427 -0.3892 -0.2455  0.0488
  194MOL   C11046816   7.589   0.198   3.231  0.8074  0.4041  0.2177
  194MOL   C11146817   7.599   0.292   3.101  0.6163  0.5646 -0.5368
  194MOL   C11246818   7.514   0.422   3.104 -0.3211 -0.9891  0.3064
  194MOL   C11346819   7.748   0.343   3.089 -0.1320 -0.2314 -0.3770
  194MOL   O11446820   0.014   0.460   3.124  0.0497  0.1897  0.3585
  194MOL   O11546821   0.078   0.251   3.055  0.3631 -0.1344  0.4282
  194MOL   H11646822   7.688   0.169   3.266  2.0765  0.2293 -3.3490
  194MOL   H11746823   7.543   0.103   3.204  2.3744 -0.6773  1.2830
  194MOL   H11846824   7.559   0.496   3.038 -4.3209  2.1701  0.8766
  194MOL   H11946825   7.507   0.478   3.198  2.7185  2.0098 -1.1665
  194MOL   H12046826   7.414   0.398   3.067 -0.0286 -2.2031  0.3104
  194MOL   H12146827   0.154   0.302   3.078 -0.4451  1.3618 -0.1438
  194MOL   C12246828   7.582   0.217   2.969 -0.2338  0.2916  0.2693
  194MOL   C12346829   7.448   0.175   2.899 -0.8046 -0.2197  0.1966
  194MOL   C12446830   7.337   0.134   2.999  0.2251  0.2342 -0.1580
  194MOL   C12546831   7.392   0.295   2.820 -0.6749 -0.0746 -0.0409
  194MOL   O12646832   7.461   0.386   2.783  0.2512  0.3462 -0.3053
  194MOL   O12746833   7.266   0.284   2.786  0.0761  0.2983 -0.4888
  194MOL   H12846834   7.648   0.252   2.889  0.9029 -1.5552  0.3624
  194MOL   H12946835   7.610   0.117   3.002 -1.0591  0.2183  0.7630
  194MOL   H13046836   7.387   0.062   3.063  1.2113  1.0652  0.0140
  194MOL   H13146837   7.251   0.076   2.966 -0.3455  0.9529  0.0678
  194MOL   H13246838   7.316   0.222   3.060  0.4464 -0.2598  0.6404
  194MOL   H13346839   7.219   0.205   2.810 -1.9086  1.3892 -0.6484
  194MOL   C13446840   7.450   0.046   2.801  0.2171 -0.1998  1.1325
  194MOL   C13546841   7.577   0.004   2.712  0.9458 -0.4802 -0.1532
  194MOL   C13646842   7.612   0.121   2.616 -0.7609  0.4736 -0.2680
  194MOL   C13746843   7.690   7.743   2.807  0.3353  0.2753  0.6088
  194MOL   O13846844   7.690   7.682   2.917 -0.4526  0.5835  0.3348
  194MOL   O13946845   0.041   0.027   2.758  0.7353 -0.6062 -0.3169
  194MOL   H14046846   7.417   7.726   2.858  0.2696  0.6669  2.5307
  194MOL   H14146847   7.373   0.061   2.725  1.7028 -1.3463 -0.6452
  194MOL   H14246848   7.536   0.155   2.545  0.5800  1.1830 -1.3870
  194MOL   H14346849   7.690   0.091   2.546 -0.8502 -0.1752 -0.0907
  194MOL   H14446850   7.649   0.214   2.661 -0.0557  0.7547 -1.4026
  194MOL   H14546851   0.110   7.764   2.815  0.3574 -1.4568 -0.3054
  194MOL   C14646852   7.548   7.656   2.614  0.8966 -0.1432  0.7855
  194MOL   C14746853   7.469   7.523   2.641 -0.2166  0.0045  0.0442
  194MOL   C14846854   7.512   7.412   2.540  0.3107  0.1233 -0.2295
  194MOL   C14946855   7.522   7.464   2.778 -0.1023 -0.5936  0.0070
  194MOL   O15046856   7.454   7.445   2.875 -0.3457 -0.3461  0.0009
  194MOL   O15146857   7.654   7.441   2.773 -0.2646  0.1781  0.0917
  194MOL   H15246858   7.504   7.693   2.521  0.4463 -0.1551  0.9963
  194MOL   H15346859   7.651   7.646   2.578  0.6686  0.2894  0.0051
  194MOL   H15446860   7.614   7.374   2.538  0.5790  0.8320 -3.1494
  194MOL   H15546861   7.487   7.454   2.442 -3.0072 -0.6020  0.2493
  194MOL   H15646862   7.451   7.321   2.550  3.2320 -1.7461  1.1445
  194MOL   H15746863   7.679   7.406   2.857 -1.0163 -2.1356 -0.5852
  194MOL   C15846864   7.315   7.531   2.650 -0.6288 -0.6418 -0.1620
  194MOL   C15946865   7.219   7.548   2.518 -0.8982 -0.7719 -0.4123
  194MOL   C16046866   7.275   7.649   2.418  0.3006 -0.2347 -0.1603
  194MOL   C16146867   7.209   7.403   2.455 -0.1822 -0.3498  0.2139
  194MOL   O16246868   7.245   7.378   2.340 -0.4644 -0.4216  0.1612
  194MOL   O16346869   7.174   7.302   2.540  0.0272  0.1242 -0.5440
  194MOL   H16446870   7.269   7.452   2.709  0.7934 -2.1823 -1.0979
  194MOL   H16546871   7.298   7.620   2.711 -1.9359  0.2673 -1.7756
  194MOL   H16646872   7.362   7.608   2.367  0.0671 -1.6656  0.5636
  194MOL   H16746873   7.305   7.746   2.458 -0.5625  0.6586 -1.6461
  194MOL   H16846874   7.199   7.671   2.343  0.0749  1.1890  0.4709
  194MOL   H16946875   7.180   7.220   2.495  0.0417 -2.0023  3.1247
  194MOL   C17046876   7.074   7.583   2.573 -0.2133  0.0726  0.9449
  194MOL   C17146877   6.955   7.634   2.486 -0.1407  0.6353 -0.4998
  194MOL   C17246878   6.926   7.546   2.370  0.5807  0.3139  0.3953
  194MOL   C17346879   6.836   7.632   2.585 -0.1084 -0.1298 -0.3190
  194MOL   O17446880   6.840   7.645   2.712 -0.7775 -0.2173  0.0476
  194MOL   O17546881   6.715   7.615   2.520  0.1256  0.1948  0.0863
  194MOL   H17646882   7.054   7.494   2.633  0.7034  0.3858  1.7158
  194MOL   H17746883   7.100   7.667   2.636  1.0014  0.6135 -0.2415
  194MOL   H17846884   7.014   7.545   2.305  0.1820 -1.9802 -0.1488
  194MOL   H17946885   6.851   7.587   2.302 -0.3420 -0.2341  1.0810
  194MOL   H18046886   6.903   7.442   2.393  1.4432 -0.5235 -2.2859
  194MOL   H18146887   6.642   7.634   2.578  1.1999 -2.1322  2.3212
  194MOL   C18246888   6.996   0.017   2.437  0.0981  0.2464 -0.3787
  194MOL   C18346889   6.908   0.150   2.443 -0.0722 -0.0446  0.3767
  194MOL   C18446890   6.761   0.121   2.394  0.0642 -0.2903  1.0349
  194MOL   C18546891   6.907   0.207   2.588  1.1957 -0.7668  0.2744
  194MOL   O18646892   6.983   0.170   2.676 -0.1527 -0.0625 -0.2450
  194MOL   O18746893   6.817   0.306   2.596 -0.0604  0.3075 -0.5288
  194MOL   H18846894   7.090   0.047   2.484  1.6608 -5.3224  0.5161
  194MOL   H18946895   7.019   7.766   2.332 -0.3871  2.6197 -0.9084
  194MOL   H19046896   6.708   0.209   2.357  0.0406 -1.5862 -2.1593
  194MOL   H19146897   6.703   0.076   2.474 -1.0378  1.0445  0.9999
  194MOL   H19246898   6.761   0.049   2.312 -0.5254  1.3264 -0.4137
  194MOL   H19346899   6.818   0.349   2.680  0.2103 -0.6481 -0.0425
  194MOL   C19446900   6.962   0.274   2.351 -0.7263  0.2587 -0.5876
  194MOL   C19546901   7.091   0.350   2.353 -0.5618 -0.2599  0.3526
  194MOL   C19646902   7.109   0.421   2.489  0.2445 -0.0218 -0.0369
  194MOL   C19746903   7.207   0.252   2.336  0.2682  0.9909  0.1132
  194MOL   O19846904   7.221   0.173   2.242  0.5725 -0.1764  0.9630
  194MOL   O19946905   7.301   0.256   2.436  0.4384  0.4302 -0.0286
  194MOL   H20046906   6.958   0.233   2.250  0.1262  0.0981 -0.5614
  194MOL   H20146907   6.879   0.345   2.349 -1.3137 -0.3893  0.4774
  194MOL   H20246908   7.137   0.354   2.569  1.0867  0.2321 -0.1201
  194MOL   H20346909   7.019   0.482   2.502 -0.4467 -0.9042 -0.5609
  194MOL   H20446910   7.192   0.491   2.495  1.0656 -1.1180  1.7148
  194MOL   H20546911   7.360   0.184   2.420 -1.6030 -0.4001 -4.4164
  194MOL   C20646912   7.082   0.450   2.234 -0.2491  1.5327 -0.1593
  194MOL   C20746913   7.176   0.576   2.213  0.1070 -0.4670  0.9407
  194MOL   C20846914   7.143   0.687   2.314  0.1832 -0.3666 -0.0922
  194MOL   C20946915   7.323   0.531   2.223 -0.7903  0.0634  0.3896
  194MOL   O21046916   7.378   0.461   2.137 -0.2026 -0.4138  0.6319
  194MOL   O21146917   7.397   0.560   2.331  0.1938 -0.4294  0.0916
  194MOL   H21246918   7.083   0.388   2.145 -1.2727 -0.5382  1.2111
  194MOL   H21346919   6.981   0.492   2.234 -0.4297  1.1124  0.6658
  194MOL   H21446920   7.210   0.682   2.400  0.0308  0.6675  0.0873
  194MOL   H21546921   7.042   0.671   2.351  0.2280  0.7788  0.5415
  194MOL   H21646922   7.155   0.787   2.273 -1.5059 -0.8376 -1.8204
  194MOL   H21746923   7.484   0.525   2.324  0.6923  0.4542  1.6800
  194MOL   C21846924   7.161   0.620   2.066  0.0967  0.0597  0.6747
  194MOL   C21946925   7.024   0.645   1.991 -0.6180 -0.0784 -0.7402
  194MOL   C22046926   6.961   0.513   1.942  0.1104 -0.0473 -0.1383
  194MOL   C22146927   6.923   0.717   2.084  0.5358  0.5064  0.3900
  194MOL   O22246928   6.814   0.664   2.108  0.5173 -0.3048 -0.1749
  194MOL   O22346929   6.953   0.840   2.126 -0.6505 -0.6741  0.1668
  194MOL   H22446930   7.209   0.718   2.064  0.4439 -0.1333 -0.7995
  194MOL   H22546931   7.219   0.558   1.998 -1.2065 -1.1568  0.6376
  194MOL   H22646932   6.876   0.529   1.876  0.3773  0.7974 -0.2817
  194MOL   H22746933   6.922   0.447   2.020  1.1827 -0.2648  0.2139
  194MOL   H22846934   7.031   0.451   1.885 -0.4181 -1.1224  0.3626
  194MOL   H22946935   6.884   0.861   2.187  0.6955 -0.5159  1.6642
  194MOL   C23046936   7.063   0.725   1.865  0.9141 -0.1287  0.3050
  194MOL   C23146937   6.938   0.760   1.772  0.4126 -0.0728  0.2149
  194MOL   C23246938   6.929   0.909   1.768  0.1134  0.0571  0.3734
  194MOL   C23346939   6.962   0.713   1.626 -0.4724  0.8637  0.8941
  194MOL   O23446940   7.005   0.786   1.536 -0.0390  0.3526  0.0939
  194MOL   O23546941   6.933   0.586   1.613  0.3106  0.3315  0.1514
  194MOL   H23646942   7.114   0.819   1.885 -0.8984  1.2302 -1.3497
  194MOL   H23746943   7.138   0.666   1.811  2.5140  1.7266  0.4334
  194MOL   H23846944   6.833   0.948   1.733  0.3303  2.3830  2.2411
  194MOL   H23946945   7.004   0.964   1.711  2.0548 -1.3138  1.5192
  194MOL   H24046946   6.937   0.937   1.873 -3.8434  1.0715  0.4738
  194MOL   H24146947   6.960   0.562   1.525 -1.5415 -1.1382 -0.0438
  194MOL   H24246948   6.840   0.727   1.806 -0.3371  1.4974 -0.3708
  195MOL     C146949   3.610   6.199   3.980 -0.0953  0.1680 -0.0806
  195MOL     C246950   3.722   6.157   4.078 -0.5415 -0.4700 -0.3879
  195MOL     C346951   3.852   6.194   4.004 -0.4205  0.0171  0.1206
  195MOL     C446952   3.705   6.237   4.210  0.0174  0.1997  0.0441
  195MOL     O546953   3.613   6.315   4.225 -0.1613  0.0755 -0.8715
  195MOL     O646954   3.803   6.227   4.301  0.0160 -0.1529 -0.3465
  195MOL     H746955   3.613   6.307   3.968  2.3454  0.2902  1.2009
  195MOL     H846956   3.511   6.170   4.013  0.0545 -2.1080 -1.5061
  195MOL     H946957   3.867   6.132   3.916  0.4576  1.4369 -0.7407
  195MOL    H1046958   3.945   6.200   4.061  0.5323 -0.1906 -1.3913
  195MOL    H1146959   3.854   6.298   3.972  3.4677  0.5670  1.8110
  195MOL    H1246960   3.854   6.155   4.268 -1.0544 -0.9429 -0.3058
  195MOL    H1346961   3.631   6.174   3.876  2.1865  1.5504  0.0125
  195MOL    C1446962   3.719   6.002   4.106  0.1296  0.5552  0.3958
  195MOL    C1546963   3.602   5.906   4.152  0.1950  0.1973 -0.3838
  195MOL    C1646964   3.535   5.969   4.276 -0.1092 -0.3776  0.1416
  195MOL    C1746965   3.508   5.879   4.030  0.3587 -0.0945  0.0555
  195MOL    O1846966   3.543   5.888   3.909  0.0621  0.5881  0.3737
  195MOL    O1946967   3.385   5.855   4.071  0.1654  0.3774 -0.2828
  195MOL    H2046968   3.760   5.958   4.014 -0.1595 -1.5245  1.2363
  195MOL    H2146969   3.809   5.987   4.165  0.6375  1.6550 -0.0807
  195MOL    H2246970   3.600   6.004   4.355 -0.4309 -0.9243  0.6504
  195MOL    H2346971   3.457   5.900   4.309 -1.9067  1.6624  0.3253
  195MOL    H2446972   3.473   6.056   4.256  0.2540 -0.1883 -0.1655
  195MOL    H2546973   3.317   5.830   4.010  0.8799 -3.1945  0.2680
  195MOL    C2646974   3.655   5.772   4.217  0.2342 -0.8624 -0.0572
  195MOL    C2746975   3.761   5.670   4.146 -0.5857  0.2151 -0.9388
  195MOL    C2846976   3.719   5.650   3.997  0.0440  0.5821 -0.1831
  195MOL    C2946977   3.909   5.726   4.157  0.2017 -0.6636 -0.5394
  195MOL    O3046978   3.960   5.735   4.269  0.1496  0.3744  0.3720
  195MOL    O3146979   3.944   5.795   4.044  0.1010  0.2633  0.5913
  195MOL    H3246980   3.692   5.785   4.319 -1.6762 -2.0188  0.8092
  195MOL    H3346981   3.568   5.708   4.229 -0.4037  0.3044  1.7477
  195MOL    H3446982   3.796   5.587   3.952  0.4053 -0.3614  1.7066
  195MOL    H3546983   3.725   5.741   3.938 -1.1647  2.0983  1.9684
  195MOL    H3646984   3.619   5.606   3.988  0.6555 -0.5957 -1.4879
  195MOL    H3746985   4.029   5.834   4.062  0.2329  0.1588  0.2013
  195MOL    C3846986   3.759   5.532   4.233  0.1525 -0.4154 -0.0559
  195MOL    C3946987   3.834   5.400   4.202 -0.1814 -0.1880  0.3512
  195MOL    C4046988   3.988   5.432   4.184 -0.1403  0.6970 -0.5335
  195MOL    C4146989   3.824   5.303   4.326  0.1912  0.0657 -0.6519
  195MOL    O4246990   3.918   5.247   4.382  0.0039  0.0825 -0.0799
  195MOL    O4346991   3.694   5.291   4.364  0.0013 -0.3083 -0.0489
  195MOL    H4446992   3.788   5.568   4.332  0.1157 -3.0442  0.9255
  195MOL    H4546993   3.654   5.505   4.248  0.1332  0.1653  0.8713
  195MOL    H4646994   4.034   5.497   4.258  0.1108 -0.8925  0.7315
  195MOL    H4746995   4.004   5.492   4.094  1.8219  0.0334 -0.6422
  195MOL    H4846996   4.051   5.343   4.185  0.0241  0.8238  0.7182
  195MOL    H4946997   3.691   5.233   4.438 -0.9511  0.2005  0.3202
  195MOL    C5046998   3.771   5.328   4.073  0.1457  0.0098  0.2119
  195MOL    C5146999   3.791   5.175   4.032 -0.5555  0.3339  0.0175
  195MOL    C5247000   3.720   5.078   4.124  0.5483 -0.2965  0.2010
  195MOL    C5347001   3.718   5.163   3.890 -1.0072 -0.8364  0.1785
  195MOL    O5447002   3.659   5.063   3.850 -0.0086 -0.9298 -0.0820
  195MOL    O5547003   3.740   5.270   3.811  0.0677 -0.1984 -0.1269
  195MOL    H5647004   3.665   5.353   4.075  0.1755  0.2321 -0.8103
  195MOL    H5747005   3.816   5.381   3.990  0.0439 -0.4414 -0.1332
  195MOL    H5847006   3.700   4.982   4.076 -1.1027  0.1458 -0.0205
  195MOL    H5947007   3.622   5.106   4.162 -1.0193 -1.1472 -3.0690
  195MOL    H6047008   3.783   5.061   4.211  1.1603 -1.3332 -0.4349
  195MOL    H6147009   3.706   5.257   3.724 -0.1969  1.9871 -0.3850
  195MOL    C6247010   3.942   5.153   4.010 -0.2919  0.3092 -0.0930
  195MOL    C6347011   4.013   5.031   3.950  0.2007 -0.5136 -0.5259
  195MOL    C6447012   3.997   4.916   4.036 -0.2122 -0.4616  0.2165
  195MOL    C6547013   3.964   5.004   3.808 -0.4404  0.9290 -0.2606
  195MOL    O6647014   3.911   4.900   3.771  0.0035  0.1044  0.0961
  195MOL    O6747015   3.992   5.109   3.721  0.2715 -0.5400  0.0591
  195MOL    H6847016   3.981   5.245   3.966  0.0646 -0.6071 -1.7568
  195MOL    H6947017   3.979   5.154   4.112 -0.2744  0.0137 -0.0953
  195MOL    H7047018   4.051   4.929   4.129  1.3800  1.4338 -0.9238
  195MOL    H7147019   4.046   4.829   3.992 -0.0436 -0.2810  0.0491
  195MOL    H7247020   3.891   4.896   4.055 -0.5709  1.7231  0.6417
  195MOL    H7347021   3.952   5.095   3.637  1.6482  0.6845 -0.8068
  195MOL    C7447022   4.162   5.084   3.946  0.7887 -0.3451 -0.0851
  195MOL    C7547023   4.295   5.010   3.899 -0.7337 -0.2281  0.3971
  195MOL    C7647024   4.265   4.914   3.782  0.0243  0.2299  0.1470
  195MOL    C7747025   4.395   5.123   3.854 -0.8000 -0.0915  0.1939
  195MOL    O7847026   4.443   5.207   3.925 -0.5597  0.3174 -0.1010
  195MOL    O7947027   4.433   5.106   3.727 -0.5290 -0.3168  0.1921
  195MOL    H8047028   4.166   5.176   3.888 -0.7839 -0.8568 -1.0211
  195MOL    H8147029   4.182   5.119   4.048  1.8090  0.6473 -0.6136
  195MOL    H8247030   4.212   4.823   3.811 -1.6434  1.0103 -0.4174
  195MOL    H8347031   4.347   4.879   3.718 -0.2889 -0.7094  0.2495
  195MOL    H8447032   4.204   4.963   3.707  0.0616 -1.3308 -0.9340
  195MOL    H8547033   4.509   5.162   3.716 -0.7731 -0.3574 -1.7867
  195MOL    C8647034   4.368   4.927   4.013  0.2477 -0.4127  0.0914
  195MOL    C8747035   4.520   4.878   4.013  0.4589 -0.3366 -0.5294
  195MOL    C8847036   4.506   4.757   4.107 -0.1737  0.2390  0.5794
  195MOL    C8947037   4.556   4.828   3.873 -0.8575 -0.3851 -0.1660
  195MOL    O9047038   4.629   4.895   3.798  0.9112 -0.8766  0.4676
  195MOL    O9147039   4.509   4.706   3.838  0.0957 -0.3088 -0.2669
  195MOL    H9247040   4.344   4.971   4.109  1.5685 -2.3057  1.3162
  195MOL    H9347041   4.307   4.838   4.022  1.0185 -1.1195 -1.4210
  195MOL    H9447042   4.603   4.710   4.125  0.5326  1.2358 -0.5311
  195MOL    H9547043   4.441   4.679   4.068  1.7018 -1.6032  1.0406
  195MOL    H9647044   4.462   4.801   4.196 -1.1697  1.8306 -0.6857
  195MOL    H9747045   4.531   4.696   3.747  2.2197 -1.2248  0.3108
  195MOL    C9847046   4.609   4.988   4.070  0.0658  0.5962 -0.4784
  195MOL    C9947047   4.742   4.962   4.155 -0.1940  0.2864  0.1730
  195MOL   C10047048   4.707   4.917   4.300 -0.4565 -0.6426 -0.2381
  195MOL   C10147049   4.829   4.852   4.090  0.9574  0.1158 -0.3646
  195MOL   O10247050   4.823   4.815   3.975  0.1810 -0.6756 -0.2536
  195MOL   O10347051   4.912   4.808   4.183  0.0194  0.5893 -0.4469
  195MOL   H10447052   4.654   5.045   3.989 -0.2134  1.1758 -0.2286
  195MOL   H10547053   4.554   5.062   4.129  0.0872 -0.4001  0.8234
  195MOL   H10647054   4.778   4.944   4.378  0.5062  2.4877 -2.0766
  195MOL   H10747055   4.686   4.812   4.318 -0.5027 -0.6355 -0.2493
  195MOL   H10847056   4.614   4.968   4.326  0.0969  0.2583  0.0155
  195MOL   H10947057   4.966   4.745   4.138 -0.6625  1.5527 -2.6589
  195MOL   C11047058   4.821   5.096   4.176 -0.2884  0.1176  0.2374
  195MOL   C11147059   4.971   5.123   4.219  0.0829  0.3453 -0.3734
  195MOL   C11247060   5.011   5.056   4.348 -0.0403 -0.4228  0.6821
  195MOL   C11347061   5.067   5.089   4.101 -0.4123  0.2846 -0.7217
  195MOL   O11447062   5.041   5.058   3.985  0.6376  0.6067 -0.0875
  195MOL   O11547063   5.197   5.105   4.133  0.7010 -0.2906 -0.3085
  195MOL   H11647064   4.811   5.138   4.076 -0.0310 -1.6769 -0.5627
  195MOL   H11747065   4.752   5.151   4.241 -1.5990 -1.7384  0.4765
  195MOL   H11847066   4.941   5.058   4.431 -0.2800  2.0988  0.4684
  195MOL   H11947067   5.114   5.084   4.373  0.2815 -0.8540 -0.1254
  195MOL   H12047068   5.025   4.949   4.334 -1.3296 -0.2157 -2.4001
  195MOL   H12147069   5.239   5.090   4.050  0.3189 -0.0548 -0.5440
  195MOL   C12247070   4.993   5.276   4.261 -0.2187  0.8868  0.0797
  195MOL   C12347071   4.959   5.407   4.186  0.0263 -1.5052 -0.1654
  195MOL   C12447072   4.988   5.521   4.295 -1.2637 -0.7801 -0.0067
  195MOL   C12547073   5.055   5.430   4.062 -0.0850 -0.3182 -0.1728
  195MOL   O12647074   5.031   5.410   3.944 -0.1151  0.0299 -0.3013
  195MOL   O12747075   5.182   5.451   4.104 -0.1796  0.7373 -0.0166
  195MOL   H12847076   4.948   5.286   4.360  2.8825  0.0528  1.6338
  195MOL   H12947077   5.101   5.284   4.273 -0.3159 -0.2745  2.0081
  195MOL   H13047078   4.997   5.619   4.249 -1.2828 -0.0225  1.5802
  195MOL   H13147079   5.074   5.493   4.355 -1.7884 -2.3463  0.0453
  195MOL   H13247080   4.900   5.528   4.359 -2.8256 -1.0586 -2.0675
  195MOL   H13347081   5.222   5.472   4.021 -2.8707 -2.7861 -2.3928
  195MOL   C13447082   4.813   5.421   4.144  0.2604 -0.1032 -0.4038
  195MOL   C13547083   4.739   5.553   4.102  0.1279  0.0372  0.4343
  195MOL   C13647084   4.824   5.648   4.010  0.2865 -0.1239  0.1528
  195MOL   C13747085   4.618   5.512   4.014 -0.6260  0.3399 -0.4925
  195MOL   O13847086   4.576   5.576   3.910 -0.3798  0.1709 -0.1034
  195MOL   O13947087   4.564   5.394   4.060 -0.2828 -0.5301  0.1571
  195MOL   H14047088   4.802   5.352   4.060  0.6793 -2.5399  1.5015
  195MOL   H14147089   4.756   5.372   4.223  0.5634 -1.6514 -1.1291
  195MOL   H14247090   4.779   5.748   4.009 -0.1769 -0.2434  3.3127
  195MOL   H14347091   4.821   5.616   3.906  1.4112  0.3267 -0.0300
  195MOL   H14447092   4.930   5.666   4.029  0.8429 -0.6027 -2.3059
  195MOL   H14547093   4.497   5.358   4.003 -0.4158  2.0017 -1.3439
  195MOL   C14647094   4.693   5.630   4.230  0.1435  0.5251 -0.3511
  195MOL   C14747095   4.567   5.718   4.251 -0.9187  0.4421  0.9139
  195MOL   C14847096   4.439   5.629   4.259 -0.9611 -0.1169  0.2565
  195MOL   C14947097   4.589   5.774   4.393  0.1325 -0.2695 -0.5038
  195MOL   O15047098   4.524   5.733   4.491 -0.0303  0.2953  0.5246
  195MOL   O15147099   4.685   5.870   4.399 -0.6152 -0.4331  0.2809
  195MOL   H15247100   4.677   5.545   4.297 -1.0232 -0.0977 -1.3953
  195MOL   H15347101   4.775   5.696   4.260 -0.8585  1.5567  0.1534
  195MOL   H15447102   4.404   5.580   4.169 -2.0800  0.7967  0.1777
  195MOL   H15547103   4.353   5.684   4.296 -1.5367 -0.1128 -1.0662
  195MOL   H15647104   4.461   5.546   4.326 -3.2597 -1.8967 -1.1235
  195MOL   H15747105   4.700   5.903   4.486  1.3432 -1.6280  0.4094
  195MOL   C15847106   4.556   5.838   4.141  0.3278 -1.3958 -0.3059
  195MOL   C15947107   4.428   5.933   4.123  0.6949 -0.4333  0.5440
  195MOL   C16047108   4.476   6.043   4.031 -0.4423 -0.8517 -0.2558
  195MOL   C16147109   4.308   5.857   4.057 -0.2982  0.5946 -0.2310
  195MOL   O16247110   4.195   5.900   4.072  0.2275 -0.2278 -0.1144
  195MOL   O16347111   4.343   5.755   3.971  0.6883  0.0262 -0.2552
  195MOL   H16447112   4.645   5.901   4.140 -0.4277 -0.2835 -2.1608
  195MOL   H16547113   4.574   5.785   4.047  1.0381 -0.7843 -0.5206
  195MOL   H16647114   4.408   6.118   3.991  1.1205  0.9724  0.4613
  195MOL   H16747115   4.521   6.002   3.941 -1.5577 -0.1476 -1.1480
  195MOL   H16847116   4.550   6.102   4.085 -1.0738 -0.6049  0.3459
  195MOL   H16947117   4.437   5.759   3.978  0.7108 -1.1857  0.2357
  195MOL   C17047118   4.388   5.997   4.256 -0.4351 -0.0226 -0.1820
  195MOL   C17147119   4.277   6.106   4.290  0.4517  0.7297 -0.6283
  195MOL   C17247120   4.254   6.212   4.180 -0.4249  0.4806 -0.0225
  195MOL   C17347121   4.146   6.030   4.317  0.8139 -0.2085 -0.3505
  195MOL   O17447122   4.038   6.064   4.277 -0.3431  0.0730  0.7403
  195MOL   O17547123   4.164   5.913   4.388  0.2471 -0.2288 -0.0638
  195MOL   H17647124   4.376   5.910   4.320  0.8916 -0.4875 -0.5515
  195MOL   H17747125   4.482   6.034   4.295  0.4782 -2.1990 -0.2504
  195MOL   H17847126   4.177   6.285   4.205  1.9325  2.6360  1.2014
  195MOL   H17947127   4.230   6.168   4.084 -0.3319  2.4492 -0.9730
  195MOL   H18047128   4.346   6.269   4.163 -0.0876  0.3810  1.4006
  195MOL   H18147129   4.084   5.864   4.394 -0.0808  0.4412  1.2118
  195MOL   C18247130   4.320   6.179   4.424 -0.9266  0.8029 -0.2189
  195MOL   C18347131   4.235   6.261   4.529  0.1123 -0.0075 -0.1126
  195MOL   C18447132   4.146   6.372   4.461  0.3782 -0.1303 -0.7659
  195MOL   C18547133   4.145   6.174   4.616 -0.4912 -0.0521  0.8025
  195MOL   O18647134   4.055   6.223   4.680  0.3440  0.0062  0.2198
  195MOL   O18747135   4.187   6.049   4.636  0.1662  0.2495  0.3810
  195MOL   H18847136   4.362   6.099   4.485 -0.2155  2.4306  1.4577
  195MOL   H18947137   4.402   6.242   4.390  0.3407 -0.1516  1.0344
  195MOL   H19047138   4.075   6.329   4.390 -0.2198  0.5180 -0.5591
  195MOL   H19147139   4.208   6.436   4.397  1.5198 -1.8970 -1.4602
  195MOL   H19247140   4.074   6.426   4.522  1.6783  1.1031 -0.2897
  195MOL   H19347141   4.147   6.019   4.717  1.0808  3.5230  2.1318
  195MOL   C19447142   4.350   6.333   4.619  0.0756  0.7864  0.0776
  195MOL   C19547143   4.336   6.410   4.761  0.2564 -0.3297 -0.3220
  195MOL   C19647144   4.466   6.498   4.784 -0.8986 -0.3971  0.1713
  195MOL   C19747145   4.219   6.502   4.750  0.3661 -0.3531 -0.6928
  195MOL   O19847146   4.118   6.483   4.816 -0.5714  0.1218 -0.6345
  195MOL   O19947147   4.234   6.603   4.658 -0.6912 -0.2605  0.2653
  195MOL   H20047148   4.427   6.256   4.620 -1.0136 -0.3232  0.1081
  195MOL   H20147149   4.388   6.412   4.553 -1.9148  0.7981 -1.1209
  195MOL   H20247150   4.497   6.534   4.686  0.2013  1.3893  1.1420
  195MOL   H20347151   4.550   6.443   4.825 -0.7427  1.3389  2.2442
  195MOL   H20447152   4.453   6.587   4.845 -1.4873  0.4002 -1.0795
  195MOL   H20547153   4.150   6.645   4.647  0.2215  0.7047 -4.3324
  195MOL   C20647154   4.315   6.301   4.880  0.1596 -0.2606 -0.1348
  195MOL   C20747155   4.331   6.336   5.036  0.1816 -0.2971 -0.2784
  195MOL   C20847156   4.295   6.484   5.067  0.2959  0.5883 -0.5522
  195MOL   C20947157   4.223   6.249   5.113 -0.9681 -0.1432  0.3074
  195MOL   O21047158   4.177   6.146   5.059  0.0619  0.9030 -0.2875
  195MOL   O21147159   4.195   6.290   5.237 -0.4451 -0.5058  0.0394
  195MOL   H21247160   4.214   6.264   4.864  0.0332  0.3425 -0.7685
  195MOL   H21347161   4.379   6.221   4.845  0.3718  0.9345 -2.5618
  195MOL   H21447162   4.192   6.509   5.046 -0.7440 -1.0365  2.2839
  195MOL   H21547163   4.360   6.559   5.022 -0.2491  1.3797 -0.0176
  195MOL   H21647164   4.312   6.501   5.174  1.5914  0.7605 -0.7775
  195MOL   H21747165   4.126   6.242   5.278 -0.8712  0.3669  0.3548
  195MOL   C21847166   4.478   6.320   5.081  0.4114 -0.1652 -0.0735
  195MOL   C21947167   4.538   6.193   5.162  0.1151 -0.6748  0.3137
  195MOL   C22047168   4.679   6.242   5.201  0.5680 -0.5063  0.6509
  195MOL   C22147169   4.464   6.175   5.299 -0.0716 -0.1203  0.8482
  195MOL   O22247170   4.394   6.078   5.322 -0.0934 -0.1020  0.1859
  195MOL   O22347171   4.484   6.275   5.399  0.1134  0.0251  0.1625
  195MOL   H22447172   4.545   6.339   4.998 -1.1458  2.2650 -0.8397
  195MOL   H22547173   4.490   6.398   5.156  0.9754 -0.8979  0.6047
  195MOL   H22647174   4.729   6.165   5.259  1.2780 -1.5880 -1.3637
  195MOL   H22747175   4.686   6.339   5.250  0.4150  0.0364 -0.3851
  195MOL   H22847176   4.727   6.239   5.103 -2.2217  0.4162 -0.8140
  195MOL   H22947177   4.418   6.279   5.466  0.2922  1.4020  0.2709
  195MOL   C23047178   4.537   6.065   5.079 -0.1362 -0.3099  0.2887
  195MOL   C23147179   4.611   5.937   5.131 -0.0044  0.3864  0.5249
  195MOL   C23247180   4.554   5.814   5.070  0.5372 -0.9240  0.6981
  195MOL   C23347181   4.759   5.945   5.114 -0.1843  0.1386 -0.5969
  195MOL   O23447182   4.818   5.980   5.015 -0.3070  0.6956 -0.1760
  195MOL   O23547183   4.823   5.881   5.214 -0.6571  0.0412  0.3247
  195MOL   H23647184   4.432   6.041   5.069  0.2531 -0.8823 -2.9146
  195MOL   H23747185   4.579   6.095   4.983 -1.1858  2.3828  0.6400
  195MOL   H23847186   4.452   5.788   5.097  0.1063 -1.3245 -1.2322
  195MOL   H23947187   4.616   5.725   5.081  2.4976  0.2766 -0.4197
  195MOL   H24047188   4.551   5.823   4.961  1.3416 -0.9357  0.6676
  195MOL   H24147189   4.757   5.869   5.281 -0.5666  0.0179  0.4100
  195MOL   H24247190   4.576   5.921   5.233 -2.7490 -0.0459 -0.4121
  196MOL     C147191   0.875   0.212   4.255 -0.0734 -0.4979  0.5962
  196MOL     C247192   0.938   0.335   4.330 -0.2951 -0.3950 -0.0488
  196MOL     C347193   1.064   0.279   4.403 -0.6662  0.6401  0.2336
  196MOL     C447194   0.997   0.436   4.225  0.6147  0.0265  0.0925
  196MOL     O547195   1.020   0.404   4.106 -0.0129 -0.3377 -0.1452
  196MOL     O647196   1.019   0.558   4.289 -0.1009 -0.0899  0.1155
  196MOL     H747197   0.801   0.238   4.178 -1.2060 -1.4295  1.3689
  196MOL     H847198   0.852   0.130   4.322 -1.6359 -1.9726 -1.6681
  196MOL     H947199   1.047   0.184   4.453  1.0605 -0.0157 -0.4004
  196MOL    H1047200   1.101   0.363   4.463 -4.2123  1.6738  1.1307
  196MOL    H1147201   1.147   0.258   4.336 -1.2377  0.6940 -0.4929
  196MOL    H1247202   1.053   0.629   4.238  0.5431 -0.4093  0.1012
  196MOL    H1347203   0.961   0.172   4.201  1.8916  0.9305  2.5748
  196MOL    C1447204   0.831   0.399   4.429  0.4743 -0.5211  0.4379
  196MOL    C1547205   0.690   0.451   4.374  0.0124  0.9061 -0.1763
  196MOL    C1647206   0.684   0.504   4.232 -0.3786 -0.3831 -0.3344
  196MOL    C1747207   0.585   0.331   4.373  0.1449  0.2022 -0.1951
  196MOL    O1847208   0.601   0.214   4.413 -0.4571  0.7092  0.4835
  196MOL    O1947209   0.473   0.369   4.302 -0.2422 -0.2555 -0.3282
  196MOL    H2047210   0.827   0.323   4.507 -1.0534 -0.7552  0.1359
  196MOL    H2147211   0.880   0.479   4.484  0.4328 -0.2422  0.0680
  196MOL    H2247212   0.771   0.570   4.226  0.2588 -0.8567  3.0666
  196MOL    H2347213   0.593   0.561   4.213  0.0436  0.0367 -1.1584
  196MOL    H2447214   0.687   0.424   4.158 -1.2636 -0.8129  0.0919
  196MOL    H2547215   0.428   0.290   4.275  1.9936 -0.8975 -2.3097
  196MOL    C2647216   0.652   0.574   4.463 -0.0699  0.6804 -0.2494
  196MOL    C2747217   0.594   0.560   4.609  0.4803  0.0824  0.0197
  196MOL    C2847218   0.455   0.501   4.610 -0.6194 -0.0595  0.0346
  196MOL    C2947219   0.683   0.486   4.703 -0.3137 -0.2265  0.4843
  196MOL    O3047220   0.805   0.494   4.706 -0.1283  0.2480  0.2840
  196MOL    O3147221   0.612   0.411   4.797 -0.7048 -0.1821  0.3474
  196MOL    H3247222   0.735   0.644   4.463 -0.3285  0.9886  0.1602
  196MOL    H3347223   0.577   0.632   4.409  0.3709  1.0360 -0.4914
  196MOL    H3447224   0.458   0.393   4.595 -1.0339 -0.1181  0.3550
  196MOL    H3547225   0.388   0.545   4.537 -0.8184  0.5009  0.5449
  196MOL    H3647226   0.395   0.516   4.700 -1.4190  3.0036 -0.9317
  196MOL    H3747227   0.670   0.374   4.861 -0.6492  2.3138  1.7915
  196MOL    C3847228   0.568   0.707   4.659 -0.3935 -0.2408 -0.3181
  196MOL    C3947229   0.581   0.758   4.813  0.4274  0.6965 -0.2221
  196MOL    C4047230   0.719   0.734   4.882  0.1481  0.1334 -0.3544
  196MOL    C4147231   0.549   0.910   4.807  0.2663 -0.7891  0.3348
  196MOL    O4247232   0.634   0.992   4.832 -0.2657  0.1792 -0.0939
  196MOL    O4347233   0.416   0.946   4.791 -0.3180 -0.0886  0.4501
  196MOL    H4447234   0.639   0.774   4.611 -1.1614 -0.7339 -2.1493
  196MOL    H4547235   0.469   0.743   4.633 -0.3896  1.5328  1.9920
  196MOL    H4647236   0.790   0.760   4.804  2.8633 -0.3508  1.9100
  196MOL    H4747237   0.732   0.632   4.916 -0.7592  1.0773  2.9980
  196MOL    H4847238   0.737   0.794   4.971 -1.7501  0.5244 -0.2000
  196MOL    H4947239   0.401   1.039   4.800 -3.2049 -0.4540  0.0418
  196MOL    C5047240   0.467   0.698   4.901  0.0755 -0.0687 -0.0715
  196MOL    C5147241   0.435   0.732   5.054  0.3665  0.7930  0.1364
  196MOL    C5247242   0.504   0.617   5.138 -0.1376  0.1212  0.1130
  196MOL    C5347243   0.497   0.865   5.106  0.6744 -0.2796  0.0724
  196MOL    O5447244   0.454   0.978   5.099 -0.4542  0.2644 -0.3113
  196MOL    O5547245   0.622   0.854   5.151  0.9444  0.1894 -0.2126
  196MOL    H5647246   0.376   0.703   4.842 -1.3916  1.9615  2.2328
  196MOL    H5747247   0.478   0.590   4.895 -2.4363 -0.2462 -1.8640
  196MOL    H5847248   0.487   0.637   5.244 -0.3520  0.0703  0.0893
  196MOL    H5947249   0.610   0.608   5.115 -0.1341 -1.3801  0.6683
  196MOL    H6047250   0.455   0.519   5.136 -2.2474  1.1071  1.3400
  196MOL    H6147251   0.637   0.944   5.178 -0.2178  0.3628 -0.1533
  196MOL    C6247252   0.277   0.726   5.060 -0.5396  0.8404  0.2668
  196MOL    C6347253   0.188   0.708   5.191 -0.2225 -1.1465  0.3144
  196MOL    C6447254   0.193   0.563   5.237  0.1577  0.2778 -0.4468
  196MOL    C6547255   0.229   0.812   5.300  0.1947  0.7316 -0.2734
  196MOL    O6647256   0.253   0.777   5.416 -0.1819 -0.3199 -0.0912
  196MOL    O6747257   0.237   0.936   5.256 -0.0844 -0.5339  0.1484
  196MOL    H6847258   0.239   0.809   4.999 -2.4037 -0.2479 -0.1012
  196MOL    H6947259   0.242   0.643   4.999 -0.5782  0.3410  0.9685
  196MOL    H7047260   0.293   0.536   5.270  0.6328 -0.9746 -2.8656
  196MOL    H7147261   0.161   0.489   5.163  0.2485 -0.5033  0.2792
  196MOL    H7247262   0.133   0.539   5.326  2.6680 -0.8867  0.9848
  196MOL    H7347263   0.277   0.994   5.319 -1.0131 -1.0084  1.1939
  196MOL    C7447264   0.037   0.735   5.150 -0.3092  0.4655 -0.1624
  196MOL    C7547265   7.677   0.768   5.242 -0.0871 -0.0696  0.1629
  196MOL    C7647266   7.572   0.797   5.138 -0.2487  1.0780 -0.0777
  196MOL    C7747267   7.641   0.634   5.318  0.0625 -0.8841 -0.0616
  196MOL    O7847268   7.634   0.625   5.441 -0.3867 -0.4943  0.2060
  196MOL    O7947269   7.604   0.534   5.231 -0.0256 -0.0718 -0.1401
  196MOL    H8047270   0.046   0.830   5.099 -0.3448 -0.4320 -1.8774
  196MOL    H8147271   0.023   0.650   5.083 -0.1406 -1.6144  2.3213
  196MOL    H8247272   7.473   0.761   5.167  0.8767 -1.8014  0.3486
  196MOL    H8347273   7.594   0.742   5.047  0.9149 -1.4975  1.6836
  196MOL    H8447274   7.554   0.902   5.112 -1.9342  0.5702 -1.0077
  196MOL    H8547275   7.576   0.454   5.273  0.5440 -0.4176 -0.3968
  196MOL    C8647276   7.704   0.897   5.338 -0.4417 -0.2723  0.0394
  196MOL    C8747277   7.605   1.019   5.362  0.0000  0.7919 -0.4953
  196MOL    C8847278   7.610   1.112   5.244 -0.4347  0.6180 -0.1383
  196MOL    C8947279   7.465   0.963   5.395  0.7534 -0.1964 -0.1274
  196MOL    O9047280   7.366   1.002   5.329 -0.9995  0.0957  0.4723
  196MOL    O9147281   7.463   0.857   5.477 -0.5873  0.1266 -0.1383
  196MOL    H9247282   7.736   0.848   5.430 -0.3012  0.4513  0.3755
  196MOL    H9347283   0.017   0.963   5.304  0.6122 -2.1373 -1.2472
  196MOL    H9447284   7.672   1.073   5.163  0.9996  0.8650  0.8156
  196MOL    H9547285   7.649   1.211   5.269  0.9419 -0.0806  0.5320
  196MOL    H9647286   7.510   1.131   5.206 -0.2947  1.3051 -0.1776
  196MOL    H9747287   7.546   0.825   5.510  0.2914 -0.2117 -2.5605
  196MOL    C9847288   7.664   1.102   5.490  0.3410 -0.1900  0.5113
  196MOL    C9947289   7.580   1.206   5.576  0.3131 -0.0892  0.8257
  196MOL   C10047290   7.516   1.325   5.491 -0.1699  0.7725 -0.7515
  196MOL   C10147291   7.481   1.134   5.662  0.8646  0.2277  0.2890
  196MOL   O10247292   7.502   1.035   5.720 -0.3875 -0.3371  0.3488
  196MOL   O10347293   7.358   1.199   5.670  0.6797  0.2194 -0.3538
  196MOL   H10447294   7.699   1.022   5.555  1.7948  1.3536  1.6738
  196MOL   H10547295   7.756   1.154   5.461 -0.9344  1.7051 -0.2829
  196MOL   H10647296   7.444   1.295   5.416 -0.0419  1.1172 -1.0173
  196MOL   H10747297   7.594   1.362   5.424  1.5673 -0.9914  0.2342
  196MOL   H10847298   7.462   1.396   5.553  1.2685  1.0393  0.2162
  196MOL   H10947299   7.304   1.146   5.728 -0.5056  0.5547 -1.1345
  196MOL   C11047300   7.687   1.281   5.668 -0.2814 -0.1448 -0.5066
  196MOL   C11147301   7.661   1.346   5.811  0.2787  0.4052  0.3378
  196MOL   C11247302   7.533   1.437   5.814  0.1384  0.3647 -0.5362
  196MOL   C11347303   7.660   1.232   5.913 -0.5200  0.8777 -0.2959
  196MOL   O11447304   7.758   1.152   5.923  0.2761 -0.0351  0.4727
  196MOL   O11547305   7.546   1.222   5.983  0.5916  0.3596  0.0964
  196MOL   H11647306   7.767   1.211   5.693 -0.0521 -0.6015 -2.4097
  196MOL   H11747307   7.753   1.344   5.608 -0.4736  0.1349 -0.4259
  196MOL   H11847308   7.511   1.489   5.907 -1.6244  0.3304 -0.9191
  196MOL   H11947309   7.442   1.382   5.793  1.8620 -2.0947 -1.8688
  196MOL   H12047310   7.529   1.512   5.735 -1.3666 -1.3293 -2.0775
  196MOL   H12147311   7.565   1.161   6.053  3.0785 -0.4548 -1.2337
  196MOL   C12247312   0.021   1.430   5.852  0.2186 -0.2133 -0.0881
  196MOL   C12347313   0.050   1.576   5.805  0.0587 -0.2744 -0.0369
  196MOL   C12447314   0.196   1.601   5.866  0.9754  0.4131 -0.3301
  196MOL   C12547315   0.050   1.588   5.649 -0.3519 -0.3495 -0.3305
  196MOL   O12647316   0.156   1.587   5.587 -0.3560 -0.0994 -0.5435
  196MOL   O12747317   7.698   1.584   5.588 -0.0990  0.4213 -0.3604
  196MOL   H12847318   0.016   1.452   5.959 -0.3181 -3.3031  0.5748
  196MOL   H12947319   0.111   1.371   5.841  1.5756  1.7873  0.0602
  196MOL   H13047320   0.201   1.609   5.974 -0.2507  2.3636 -0.3971
  196MOL   H13147321   0.230   1.699   5.833 -0.1554  0.8792 -0.1378
  196MOL   H13247322   0.269   1.525   5.840 -0.2957 -1.4396  1.4245
  196MOL   H13347323   7.719   1.620   5.503 -0.6947  1.1248 -0.2152
  196MOL   C13447324   7.727   1.688   5.864 -0.4239  0.7364 -0.2225
  196MOL   C13547325   7.764   1.843   5.876  0.4309  0.3425 -0.3077
  196MOL   C13647326   7.623   1.912   5.916 -0.4747  0.3548  0.2480
  196MOL   C13747327   0.096   1.876   5.994  0.8060 -0.2637  0.8073
  196MOL   O13847328   0.208   1.926   5.981  0.7817 -0.3797  0.6968
  196MOL   O13947329   0.047   1.834   6.111 -0.4876  0.4049  0.3217
  196MOL   H14047330   7.631   1.680   5.814 -0.8329 -0.8307  0.7576
  196MOL   H14147331   7.687   1.665   5.963 -0.4782 -0.1887 -0.4517
  196MOL   H14247332   7.558   1.906   5.830  1.3535  2.6529 -1.3463
  196MOL   H14347333   7.642   2.012   5.954  2.4900 -0.1283  0.2292
  196MOL   H14447334   7.583   1.851   5.997  1.1048 -1.0428  0.0303
  196MOL   H14547335   0.102   1.848   6.187 -1.8654  1.9304  1.0534
  196MOL   C14647336   0.049   1.912   5.743 -0.5987  1.4089  0.4817
  196MOL   C14747337   0.046   2.059   5.699  0.6035  0.1571 -0.2409
  196MOL   C14847338   0.086   2.158   5.812 -0.2339  0.3053 -1.0253
  196MOL   C14947339   0.146   2.103   5.587 -0.0528 -0.0767 -0.0439
  196MOL   O15047340   0.129   2.197   5.508 -0.0322  0.0277  0.5141
  196MOL   O15147341   0.256   2.023   5.591 -0.1389  0.1020 -0.1786
  196MOL   H15247342   0.152   1.883   5.724 -0.7633  0.7397  0.6139
  196MOL   H15347343   7.749   1.868   5.670 -0.7810  1.6667  0.4934
  196MOL   H15447344   0.042   2.131   5.909 -1.6554  1.1332 -1.4101
  196MOL   H15547345   0.067   2.262   5.783  0.3866  1.5548  2.6997
  196MOL   H15647346   0.193   2.140   5.822 -0.4375 -0.4525 -0.0251
  196MOL   H15747347   0.321   2.043   5.525  1.1318 -0.3119  0.9100
  196MOL   C15847348   7.666   2.105   5.648 -0.8197 -0.9231  0.3531
  196MOL   C15947349   7.601   2.066   5.504 -0.0018 -0.4350 -0.1579
  196MOL   C16047350   7.596   2.193   5.417 -0.4995 -0.2152 -0.7985
  196MOL   C16147351   7.681   1.954   5.432  0.2759 -0.1964 -1.2444
  196MOL   O16247352   7.668   1.832   5.449 -0.1698 -0.3747 -0.5020
  196MOL   O16347353   0.013   1.996   5.350 -0.1231 -0.1896  0.6888
  196MOL   H16447354   7.587   2.077   5.718 -1.5179  0.7526  0.2646
  196MOL   H16547355   7.665   2.214   5.649  0.2159 -0.8791 -1.7594
  196MOL   H16647356   7.688   2.250   5.409 -0.9482  1.1380  2.8673
  196MOL   H16747357   7.525   2.263   5.463 -0.0304  0.1190 -0.5730
  196MOL   H16847358   7.553   2.174   5.319  0.2879 -3.2619 -0.6012
  196MOL   H16947359   0.018   2.090   5.361 -3.3789  0.2471 -0.8922
  196MOL   C17047360   7.450   2.018   5.536 -0.5403 -0.0675 -0.1710
  196MOL   C17147361   7.333   1.983   5.430 -0.1414  0.1659 -0.8471
  196MOL   C17247362   7.268   2.120   5.399  0.2060  0.0572 -0.3987
  196MOL   C17347363   7.380   1.927   5.301 -0.5607 -0.2831  0.0551
  196MOL   O17447364   7.449   1.997   5.228  0.0443 -0.1955  0.9904
  196MOL   O17547365   7.326   1.812   5.260 -0.4157 -0.1564  0.7555
  196MOL   H17647366   7.479   1.922   5.579  0.3986  0.1372 -0.3318
  196MOL   H17747367   7.414   2.084   5.614  0.6111  0.8449 -0.3987
  196MOL   H17847368   7.166   2.116   5.361 -0.6674 -0.2613  1.8977
  196MOL   H17947369   7.328   2.175   5.327 -0.3193 -1.2584 -1.8463
  196MOL   H18047370   7.264   2.184   5.488  3.3724 -0.4504  0.1701
  196MOL   H18147371   7.364   1.775   5.182 -0.5689 -0.1703  0.6893
  196MOL   C18247372   7.217   1.899   5.497  0.0617  0.7276 -0.0313
  196MOL   C18347373   7.245   1.772   5.598  0.0385 -0.0935  0.0154
  196MOL   C18447374   7.364   1.679   5.549 -0.4952 -0.0216 -0.3059
  196MOL   C18547375   7.273   1.827   5.738  0.5511 -0.0965  0.7446
  196MOL   O18647376   7.259   1.947   5.774  0.3152  0.2808  0.2239
  196MOL   O18747377   7.310   1.731   5.820  0.3881  0.1072  0.2244
  196MOL   H18847378   7.147   1.964   5.549 -2.4294 -3.2159  1.7780
  196MOL   H18947379   7.159   1.859   5.413  2.0559 -1.0138 -0.6424
  196MOL   H19047380   7.456   1.730   5.522 -1.3474  1.5080 -0.3890
  196MOL   H19147381   7.332   1.627   5.459 -1.2589  2.0243 -1.2419
  196MOL   H19247382   7.396   1.599   5.616 -0.9144  0.9684  1.1133
  196MOL   H19347383   7.340   1.778   5.896 -1.1619  0.2233  0.7885
  196MOL   C19447384   7.113   1.682   5.600  0.0973 -0.5946  0.4583
  196MOL   C19547385   6.964   1.692   5.662  0.3093  0.2307 -0.6469
  196MOL   C19647386   6.989   1.697   5.813  0.3800 -0.2843 -0.3864
  196MOL   C19747387   6.895   1.823   5.624 -0.5310 -0.0141 -0.2568
  196MOL   O19847388   6.904   1.868   5.510 -0.0769 -0.1429 -0.3205
  196MOL   O19947389   6.809   1.874   5.716 -0.7426 -0.3849  0.2538
  196MOL   H20047390   7.085   1.673   5.495  0.5710 -0.1782  0.2984
  196MOL   H20147391   7.144   1.578   5.613 -1.5087 -0.9938  1.2372
  196MOL   H20247392   6.902   1.687   5.878  1.0606 -1.8677  0.3218
  196MOL   H20347393   7.023   1.796   5.844 -0.8503 -0.3363  1.1776
  196MOL   H20447394   7.056   1.620   5.852  0.1012 -0.7328 -0.7938
  196MOL   H20547395   6.750   1.929   5.667 -1.9156 -0.7143  1.2460
  196MOL   C20647396   6.889   1.551   5.625  0.4260  0.0849 -0.7729
  196MOL   C20747397   6.734   1.515   5.635 -0.3595  0.3727  0.2301
  196MOL   C20847398   6.683   1.528   5.780  0.5541 -0.1566  0.3235
  196MOL   C20947399   6.650   1.606   5.534  0.0254 -0.0648  0.1307
  196MOL   O21047400   6.550   1.668   5.566 -0.0488  0.2426 -0.3896
  196MOL   O21147401   6.690   1.591   5.408 -0.2824 -0.2619 -0.0716
  196MOL   H21247402   6.913   1.540   5.519 -0.4714 -1.8452 -0.8021
  196MOL   H21347403   6.941   1.473   5.680  0.8405 -0.1369 -1.4784
  196MOL   H21447404   6.728   1.454   5.847  0.7146 -0.4270 -0.0805
  196MOL   H21547405   6.576   1.520   5.797  0.9994 -3.9122  1.9023
  196MOL   H21647406   6.720   1.622   5.820 -1.8999  0.1633  1.9357
  196MOL   H21747407   6.643   1.647   5.348 -0.2768  0.0046  0.1762
  196MOL   C21847408   6.730   1.358   5.587  0.2379 -0.4485  0.0142
  196MOL   C21947409   6.596   1.285   5.539 -0.8816 -0.0808 -0.6254
  196MOL   C22047410   6.547   1.330   5.400 -0.2704 -0.3388 -0.8693
  196MOL   C22147411   6.632   1.138   5.540 -0.2887  0.4372 -0.2093
  196MOL   O22247412   6.667   1.083   5.637 -0.0012  0.5846 -0.4043
  196MOL   O22347413   6.628   1.080   5.418 -1.2341 -0.0946 -0.0094
  196MOL   H22447414   6.778   1.362   5.490 -1.4487 -0.2099 -0.8276
  196MOL   H22547415   6.782   1.300   5.664 -0.5657 -0.1566  0.7923
  196MOL   H22647416   6.502   1.429   5.395  1.1712  0.5001  1.8129
  196MOL   H22747417   6.473   1.261   5.359  0.9205 -1.2936 -1.4264
  196MOL   H22847418   6.621   1.338   5.322  1.2793  0.3053  0.6318
  196MOL   H22947419   6.661   0.992   5.420  1.4829  0.9237  3.3887
  196MOL   C23047420   6.483   1.298   5.646 -0.1005  0.1712 -0.0413
  196MOL   C23147421   6.345   1.224   5.623  0.3170 -0.1174 -0.3503
  196MOL   C23247422   6.308   1.134   5.736  0.8803 -0.2922 -0.1265
  196MOL   C23347423   6.226   1.316   5.588  0.1694  0.1535 -0.4540
  196MOL   O23447424   6.201   1.418   5.647  0.1920 -0.7189  0.3462
  196MOL   O23547425   6.154   1.268   5.483  0.2206  0.1040 -0.3444
  196MOL   H23647426   6.519   1.257   5.741 -1.0623 -0.7412 -0.0692
  196MOL   H23747427   6.462   1.404   5.663  0.3990  0.3937 -0.8118
  196MOL   H23847428   6.212   1.084   5.724  0.5952  0.7381 -2.4596
  196MOL   H23947429   6.305   1.177   5.837  3.2458 -1.9994  0.7350
  196MOL   H24047430   6.373   1.047   5.743  0.1498 -0.8960 -0.8522
  196MOL   H24147431   6.083   1.326   5.463 -0.9561 -0.5497  1.7178
  196MOL   H24247432   6.362   1.158   5.538  0.9979 -0.8926  0.3872
  197MOL     C147433   5.622   4.620   4.772 -0.3449  0.4756  0.2548
  197MOL     C247434   5.618   4.471   4.827 -0.7200  0.4166  0.1419
  197MOL     C347435   5.669   4.377   4.710  0.2379  0.1542 -0.0190
  197MOL     C447436   5.722   4.467   4.944 -0.1940  0.3795 -0.0802
  197MOL     O547437   5.780   4.367   4.976 -0.2956  0.1091  0.1823
  197MOL     O647438   5.723   4.585   5.013 -0.2631  0.2126 -0.2392
  197MOL     H747439   5.559   4.677   4.841 -0.4613 -0.1374  0.6664
  197MOL     H847440   5.561   4.626   4.682  0.7157 -1.6852 -0.6491
  197MOL     H947441   5.601   4.363   4.627 -0.7827  2.5219  0.3918
  197MOL    H1047442   5.701   4.283   4.755  1.4558  0.4575 -0.2104
  197MOL    H1147443   5.757   4.417   4.659 -0.6541 -0.6152 -2.2111
  197MOL    H1247444   5.783   4.575   5.085  1.2296  0.5605 -1.4129
  197MOL    H1347445   5.720   4.659   4.747 -0.1683 -0.2247 -0.1507
  197MOL    C1447446   5.469   4.446   4.861 -0.0938 -0.5963  0.3909
  197MOL    C1547447   5.411   4.318   4.928 -0.0158 -0.1466  0.3599
  197MOL    C1647448   5.260   4.306   4.923  0.4318  0.2211 -0.3243
  197MOL    C1747449   5.447   4.199   4.839  0.0331  0.4487 -1.0146
  197MOL    O1847450   5.513   4.107   4.878 -0.1141 -0.4898  0.3981
  197MOL    O1947451   5.389   4.198   4.712  0.0885 -0.3962 -0.2737
  197MOL    H2047452   5.447   4.531   4.927 -3.7881 -0.4906 -0.8842
  197MOL    H2147453   5.409   4.461   4.772  0.2953 -3.6076 -0.4208
  197MOL    H2247454   5.215   4.209   4.945  0.8759 -0.3413 -1.8635
  197MOL    H2347455   5.206   4.351   4.840 -2.8733  1.6450  2.4180
  197MOL    H2447456   5.223   4.370   5.003 -0.4969  0.9691 -1.3382
  197MOL    H2547457   5.407   4.113   4.677 -0.4110  0.3867 -2.4741
  197MOL    C2647458   5.465   4.290   5.076 -0.4976  0.0381 -0.4407
  197MOL    C2747459   5.399   4.352   5.208 -0.0300  0.5079  0.4249
  197MOL    C2847460   5.509   4.336   5.314  1.2110  0.4229  0.6246
  197MOL    C2947461   5.389   4.501   5.194  0.4589  0.3701 -0.4736
  197MOL    O3047462   5.278   4.558   5.187 -0.8137  0.6066 -0.1206
  197MOL    O3147463   5.507   4.567   5.184  0.6076  0.3415  0.3199
  197MOL    H3247464   5.468   4.183   5.097 -1.9303 -0.2318 -1.4928
  197MOL    H3347465   5.573   4.298   5.073 -0.3733 -0.2049  1.9858
  197MOL    H3447466   5.522   4.231   5.338  0.0950  1.0304  4.1970
  197MOL    H3547467   5.475   4.386   5.405 -1.0715  0.3166 -0.1356
  197MOL    H3647468   5.604   4.383   5.286  1.9020 -1.0031  0.5048
  197MOL    H3747469   5.500   4.659   5.162 -0.2871  0.3863  0.7443
  197MOL    C3847470   5.271   4.260   5.236 -0.5721 -0.1376 -0.1122
  197MOL    C3947471   5.155   4.293   5.331 -0.2956 -0.1575  0.3361
  197MOL    C4047472   5.211   4.353   5.461  0.7344 -0.4186 -0.2664
  197MOL    C4147473   5.060   4.395   5.270  0.0871 -0.0113 -0.4401
  197MOL    O4247474   5.052   4.423   5.152  0.1427 -0.2223  0.3301
  197MOL    O4347475   4.981   4.463   5.359 -0.1489 -0.3941  0.0363
  197MOL    H4447476   5.233   4.208   5.148  2.3131 -1.7610 -0.4439
  197MOL    H4547477   5.316   4.175   5.287 -1.6756 -0.8228 -0.2648
  197MOL    H4647478   5.229   4.460   5.471 -1.1180 -0.0871 -0.2595
  197MOL    H4747479   5.290   4.284   5.492  0.7053  0.2980  1.4653
  197MOL    H4847480   5.138   4.333   5.539  0.1303  0.7070 -0.5397
  197MOL    H4947481   4.926   4.522   5.310 -0.4136 -0.7819 -0.1379
  197MOL    C5047482   5.079   4.156   5.366 -0.5856  0.4806 -0.4950
  197MOL    C5147483   5.026   4.056   5.261 -0.2429 -0.2468  0.1481
  197MOL    C5247484   4.944   4.120   5.145 -0.0849 -0.0798 -0.2123
  197MOL    C5347485   5.136   3.977   5.189 -0.2865  0.1246  0.0967
  197MOL    O5447486   5.139   3.946   5.070  0.0801 -0.0235 -0.8094
  197MOL    O5547487   5.232   3.940   5.273  0.4746  0.5898 -0.0599
  197MOL    H5647488   5.151   4.110   5.433 -2.7839 -1.3759  0.6716
  197MOL    H5747489   4.989   4.174   5.426 -0.1258  0.0064  0.3454
  197MOL    H5847490   4.858   4.176   5.181 -0.2206 -0.4691  0.0621
  197MOL    H5947491   4.910   4.043   5.075  0.1445 -0.6715  0.3184
  197MOL    H6047492   5.006   4.185   5.083 -0.1846 -1.0179 -1.3199
  197MOL    H6147493   5.298   3.891   5.228  0.2921  0.4348 -0.1613
  197MOL    C6247494   4.916   3.961   5.313  0.4383 -0.4219 -1.0510
  197MOL    C6347495   4.940   3.850   5.429 -0.3815  0.0629  0.0612
  197MOL    C6447496   5.035   3.896   5.540 -0.1245 -0.1444 -0.2010
  197MOL    C6547497   4.794   3.837   5.490 -0.7674  0.6081  0.2674
  197MOL    O6647498   4.713   3.750   5.460  0.4438  0.2442 -0.9681
  197MOL    O6747499   4.765   3.934   5.578 -0.0847  0.4890 -0.5986
  197MOL    H6847500   4.822   4.015   5.326  0.0968 -1.9316  3.8451
  197MOL    H6947501   4.891   3.897   5.229  1.1471 -0.4025 -1.2795
  197MOL    H7047502   5.037   3.843   5.635  0.0258  0.9379  0.4087
  197MOL    H7147503   5.025   4.000   5.571  0.0884 -0.5111  1.1102
  197MOL    H7247504   5.134   3.885   5.496  1.5958 -0.1652  3.4834
  197MOL    H7347505   4.680   3.921   5.617  0.1489 -0.5809 -0.4349
  197MOL    C7447506   4.982   3.711   5.365 -0.0202  0.6058  0.4066
  197MOL    C7547507   5.027   3.581   5.447  0.6859  0.4992  0.4235
  197MOL    C7647508   5.020   3.467   5.339 -0.0142 -1.2919 -0.4526
  197MOL    C7747509   5.177   3.599   5.488  0.0422 -0.3961  0.4053
  197MOL    O7847510   5.268   3.566   5.417  0.1972  0.5332 -0.4527
  197MOL    O7947511   5.193   3.644   5.612  0.0205 -0.3895  0.1673
  197MOL    H8047512   4.898   3.675   5.306  0.8249 -2.0628  0.7342
  197MOL    H8147513   5.059   3.731   5.291  0.9511 -0.6421  1.0635
  197MOL    H8247514   5.059   3.494   5.241  0.4991 -2.0806 -0.4746
  197MOL    H8347515   4.919   3.429   5.328 -0.5885  0.2621 -0.6021
  197MOL    H8447516   5.068   3.371   5.361 -0.5928 -1.2228  1.1327
  197MOL    H8547517   5.282   3.619   5.629 -0.5888 -3.0299 -0.3702
  197MOL    C8647518   4.939   3.538   5.575  0.5024  0.3114  0.5387
  197MOL    C8747519   4.950   3.407   5.666 -0.4136 -0.1858  0.4907
  197MOL    C8847520   4.834   3.416   5.774 -0.3370  0.2746  0.8353
  197MOL    C8947521   4.924   3.289   5.571 -0.2274 -0.3750 -0.5450
  197MOL    O9047522   5.012   3.210   5.540 -0.0312 -0.1536  0.1258
  197MOL    O9147523   4.798   3.278   5.531 -0.3321 -0.0586  0.1698
  197MOL    H9247524   4.935   3.626   5.639  0.3490  0.9693 -0.3721
  197MOL    H9347525   4.835   3.537   5.542  1.2678 -0.6131 -1.9046
  197MOL    H9447526   4.830   3.318   5.822  2.9605 -0.2369  0.2331
  197MOL    H9547527   4.739   3.436   5.725  1.4648  3.0989 -1.7394
  197MOL    H9647528   4.850   3.489   5.854  3.9949  0.1699  0.2289
  197MOL    H9747529   4.745   3.349   5.565  1.6081  1.4829  0.0412
  197MOL    C9847530   5.094   3.384   5.740 -0.1968  0.2467 -0.4152
  197MOL    C9947531   5.135   3.288   5.861 -0.4926  0.0823  0.0892
  197MOL   C10047532   5.113   3.368   5.993 -0.9466 -0.0291  0.3524
  197MOL   C10147533   5.057   3.155   5.883  0.6913 -0.6409  0.5313
  197MOL   O10247534   5.026   3.104   5.994 -0.0301  0.2113 -0.1731
  197MOL   O10347535   5.034   3.099   5.766  0.2256 -0.2634 -0.4193
  197MOL   H10447536   5.163   3.361   5.659 -0.5907 -0.9481 -0.4199
  197MOL   H10547537   5.137   3.477   5.778  2.0660 -1.4794  1.4261
  197MOL   H10647538   5.164   3.465   5.985 -1.7808  0.2941 -1.2159
  197MOL   H10747539   5.157   3.314   6.077 -0.3823 -1.3737 -0.7855
  197MOL   H10847540   5.006   3.384   6.004 -0.7189  2.8074 -1.0156
  197MOL   H10947541   5.070   3.133   5.685  0.2200  1.5980  0.3396
  197MOL   C11047542   5.287   3.262   5.851 -0.3378  0.0370 -0.6823
  197MOL   C11147543   5.377   3.158   5.767 -0.2851  0.3213  0.2042
  197MOL   C11247544   5.321   3.138   5.623 -0.0716  0.1450 -0.5437
  197MOL   C11347545   5.514   3.224   5.768  0.5408  0.0371 -0.3100
  197MOL   O11447546   5.571   3.274   5.673 -0.0639 -0.2456 -0.5319
  197MOL   O11547547   5.555   3.237   5.901 -0.1298 -0.0121  0.0794
  197MOL   H11647548   5.325   3.362   5.828 -0.2890  0.2655  0.3477
  197MOL   H11747549   5.320   3.259   5.955  1.3241  1.2893 -1.1458
  197MOL   H11847550   5.400   3.099   5.558  0.5944  0.3120  0.1565
  197MOL   H11947551   5.294   3.224   5.562 -1.4510 -0.5883 -0.9833
  197MOL   H12047552   5.234   3.072   5.623 -0.1335  0.2247 -0.0246
  197MOL   H12147553   5.628   3.295   5.919 -0.3311 -0.2048  1.6284
  197MOL   C12247554   5.371   3.024   5.843 -0.0565  0.6340  0.3885
  197MOL   C12347555   5.467   2.898   5.823 -0.3298  0.7870  0.6445
  197MOL   C12447556   5.608   2.932   5.889  0.8330 -0.0896 -0.3113
  197MOL   C12547557   5.397   2.778   5.899  0.4612  0.4277 -0.8997
  197MOL   O12647558   5.286   2.743   5.866 -0.0152 -0.4251  0.4847
  197MOL   O12747559   5.453   2.728   6.012  0.1347 -0.0643  0.1005
  197MOL   H12847560   5.381   3.038   5.950  1.4494 -2.2272  0.6777
  197MOL   H12947561   5.272   2.982   5.822  0.1951 -0.5264  1.4324
  197MOL   H13047562   5.605   2.992   5.980 -0.7817  0.9092 -1.0101
  197MOL   H13147563   5.672   2.985   5.819  0.0588 -1.1409 -1.8445
  197MOL   H13247564   5.674   2.853   5.926  1.2842  0.1822 -0.5346
  197MOL   H13347565   5.395   2.657   6.032 -1.5563  0.8982 -1.3097
  197MOL   C13447566   5.488   2.867   5.675 -0.2255  0.4791 -0.3884
  197MOL   C13547567   5.564   2.738   5.618  0.0758  0.6349  0.2803
  197MOL   C13647568   5.620   2.635   5.722  1.1002  0.0163  0.0419
  197MOL   C13747569   5.465   2.656   5.528  0.0591 -0.1835  0.5968
  197MOL   O13847570   5.345   2.656   5.542  0.3958  0.4363 -0.3351
  197MOL   O13947571   5.522   2.588   5.428  0.2054 -0.3096  0.1839
  197MOL   H14047572   5.393   2.886   5.626  0.6785  2.4155 -1.4663
  197MOL   H14147573   5.540   2.956   5.639 -1.2685  1.1941 -0.1461
  197MOL   H14247574   5.551   2.551   5.733  0.5181  0.5204  0.2431
  197MOL   H14347575   5.648   2.665   5.823 -0.6458  0.3129  0.4656
  197MOL   H14447576   5.699   2.573   5.680  1.7401  0.1935  0.9904
  197MOL   H14547577   5.464   2.537   5.374  0.0283  0.3684 -0.2699
  197MOL   C14647578   5.688   2.786   5.529 -0.3404  0.2599 -0.0736
  197MOL   C14747579   5.690   2.874   5.394 -0.2785 -0.1887  0.3166
  197MOL   C14847580   5.633   2.792   5.272  0.0882  0.4214  0.7272
  197MOL   C14947581   5.592   2.994   5.398 -0.4180  0.0557  0.6012
  197MOL   O15047582   5.479   2.999   5.342  0.0029 -0.1678 -0.5415
  197MOL   O15147583   5.646   3.101   5.463 -0.0687 -0.4488  0.1342
  197MOL   H15247584   5.756   2.830   5.602  0.4426 -1.0041 -0.0190
  197MOL   H15347585   5.734   2.691   5.499 -2.0714 -0.7316  0.3273
  197MOL   H15447586   5.680   2.693   5.271 -0.7802  0.0194 -1.1613
  197MOL   H15547587   5.658   2.843   5.179  0.9298  0.9777  1.2475
  197MOL   H15647588   5.526   2.774   5.266  0.3357 -0.9314  0.1153
  197MOL   H15747589   5.594   3.180   5.465  0.1197 -0.3364  0.5943
  197MOL   C15847590   5.832   2.917   5.370 -0.8975 -0.2378  0.5881
  197MOL   C15947591   5.960   2.825   5.374 -0.0093 -0.2716  0.0710
  197MOL   C16047592   6.005   2.811   5.521 -0.2898  0.5333  0.1718
  197MOL   C16147593   5.941   2.694   5.305 -0.2140  0.7965  0.0971
  197MOL   O16247594   5.912   2.679   5.187  0.1426 -0.2964  0.2672
  197MOL   O16347595   5.963   2.587   5.387 -0.4786 -0.5166 -0.3210
  197MOL   H16447596   5.833   2.977   5.279  0.8639  0.1644  0.8636
  197MOL   H16547597   5.861   2.994   5.441  0.6292 -0.2425 -0.0134
  197MOL   H16647598   6.102   2.761   5.528 -0.5248 -0.5013 -3.0671
  197MOL   H16747599   5.933   2.759   5.583 -1.2651  0.3563 -1.0767
  197MOL   H16847600   6.025   2.907   5.567  1.5371  0.0076  0.5114
  197MOL   H16947601   5.930   2.507   5.349  1.0386 -2.7217  2.7401
  197MOL   C17047602   6.071   2.908   5.294  0.1265 -0.2479  0.4756
  197MOL   C17147603   6.231   2.888   5.295 -0.2400 -0.7216 -0.3591
  197MOL   C17247604   6.292   2.957   5.420 -0.1881  0.1656 -0.2006
  197MOL   C17347605   6.278   2.742   5.289 -0.0876 -0.4479  0.3320
  197MOL   O17447606   6.382   2.704   5.345  0.3614 -0.3260  0.3608
  197MOL   O17547607   6.221   2.675   5.192  0.0671 -0.3527 -0.1138
  197MOL   H17647608   6.044   2.903   5.189  1.7813 -3.9294  0.1465
  197MOL   H17747609   6.056   3.012   5.321  1.0914  0.2310 -0.7821
  197MOL   H17847610   6.401   2.958   5.413  0.0009  0.6318  2.1597
  197MOL   H17947611   6.266   2.916   5.518  1.8612  0.4841  0.5169
  197MOL   H18047612   6.267   3.062   5.433 -1.5388 -0.1184 -0.5350
  197MOL   H18147613   6.251   2.586   5.187  0.5834 -0.1234 -1.2061
  197MOL   C18247614   6.301   2.945   5.159  0.4423  0.2135  0.2926
  197MOL   C18347615   6.300   3.095   5.113  0.3803  0.1370 -0.0732
  197MOL   C18447616   6.154   3.157   5.117  0.1637  0.0466  0.1815
  197MOL   C18547617   6.395   3.180   5.200  0.6796 -0.3907  0.2038
  197MOL   O18647618   6.377   3.295   5.240  0.1299  0.1262  0.0472
  197MOL   O18747619   6.513   3.119   5.213  0.0716 -0.4449  0.2598
  197MOL   H18847620   6.403   2.908   5.157 -0.6734 -3.1610  1.3305
  197MOL   H18947621   6.264   2.885   5.076  4.2617 -0.3614 -1.1014
  197MOL   H19047622   6.083   3.089   5.070 -1.3681  1.4571  0.4279
  197MOL   H19147623   6.139   3.256   5.075 -0.2628 -0.0878  0.0148
  197MOL   H19247624   6.133   3.175   5.222  0.3477 -0.6855  0.3464
  197MOL   H19347625   6.563   3.158   5.283 -0.5575  3.0560 -1.1070
  197MOL   C19447626   6.352   3.096   4.964  0.0931  0.1514  0.0277
  197MOL   C19547627   6.411   3.213   4.882  0.0408  0.3323 -0.3003
  197MOL   C19647628   6.563   3.232   4.924 -0.3079 -0.4191 -0.1525
  197MOL   C19747629   6.403   3.170   4.732 -0.8727  0.4095  0.2908
  197MOL   O19847630   6.302   3.178   4.667 -0.6208  0.1334 -0.2239
  197MOL   O19947631   6.517   3.127   4.681  0.0448  0.3017 -0.4292
  197MOL   H20047632   6.424   3.014   4.969  1.0914  1.0354  0.1191
  197MOL   H20147633   6.274   3.043   4.909  0.4951 -1.0708  0.6109
  197MOL   H20247634   6.623   3.275   4.843  0.7647 -0.2559  0.7153
  197MOL   H20347635   6.624   3.143   4.942  1.4881  0.9655  0.7022
  197MOL   H20447636   6.577   3.300   5.008  1.4687  0.2941 -0.9893
  197MOL   H20547637   6.510   3.120   4.587 -0.1361 -1.3708 -0.3029
  197MOL   C20647638   6.326   3.351   4.891  0.5518  0.3847 -0.2581
  197MOL   C20747639   6.363   3.486   4.822 -0.4290 -0.5659  0.5297
  197MOL   C20847640   6.254   3.580   4.873  0.2126 -0.3445 -0.0127
  197MOL   C20947641   6.498   3.545   4.880 -0.0913  0.0855  0.8398
  197MOL   O21047642   6.506   3.616   4.983 -0.3277  0.0786  0.6863
  197MOL   O21147643   6.604   3.520   4.801 -0.0817  0.7127  0.0974
  197MOL   H21247644   6.219   3.337   4.879  0.6955 -0.8621 -0.2620
  197MOL   H21347645   6.335   3.369   4.998  1.1021  1.0757 -0.4171
  197MOL   H21447646   6.156   3.575   4.825 -0.0357 -0.3882  0.4885
  197MOL   H21547647   6.273   3.684   4.848  1.1271 -0.0351  1.9191
  197MOL   H21647648   6.254   3.571   4.982  1.1310 -2.1140 -0.1424
  197MOL   H21747649   6.678   3.567   4.836 -1.1156  0.9999  1.9490
  197MOL   C21847650   6.368   3.482   4.664 -0.4184 -0.1099  0.1227
  197MOL   C21947651   6.373   3.606   4.559  1.1743  0.5161  0.3458
  197MOL   C22047652   6.235   3.669   4.559  0.1964 -0.6507 -0.0734
  197MOL   C22147653   6.480   3.712   4.586  0.8873 -0.1533 -0.3493
  197MOL   O22247654   6.461   3.810   4.659  0.1367  0.0276 -0.1461
  197MOL   O22347655   6.596   3.677   4.525  0.1569  0.1937  0.5006
  197MOL   H22447656   6.439   3.402   4.641  0.0229 -0.1630  1.6312
  197MOL   H22547657   6.268   3.445   4.640 -0.2941 -0.4468  0.1263
  197MOL   H22647658   6.236   3.755   4.492 -1.4462 -0.2430  0.4169
  197MOL   H22747659   6.211   3.720   4.652  2.2504 -0.0896  0.1869
  197MOL   H22847660   6.158   3.597   4.534 -1.8673  1.7613 -0.8749
  197MOL   H22947661   6.659   3.745   4.540 -1.1218  2.0538 -2.1915
  197MOL   C23047662   6.380   3.536   4.414  0.3414 -0.2388  0.3036
  197MOL   C23147663   6.348   3.623   4.295 -0.0237 -0.1753 -1.1392
  197MOL   C23247664   6.437   3.584   4.177  0.3074  0.1898  0.5173
  197MOL   C23347665   6.196   3.618   4.254 -0.1786 -0.0552 -0.0294
  197MOL   O23447666   6.133   3.512   4.252 -0.0406  0.3003 -0.1738
  197MOL   O23547667   6.135   3.738   4.257  0.2384  0.7799  0.0763
  197MOL   H23647668   6.481   3.497   4.399 -0.9309 -3.3619 -0.5478
  197MOL   H23747669   6.314   3.450   4.405 -0.9441  0.9161 -1.6112
  197MOL   H23847670   6.405   3.631   4.084 -0.0691  2.3736  1.7315
  197MOL   H23947671   6.419   3.478   4.157  1.3912  0.0756  0.1311
  197MOL   H24047672   6.539   3.615   4.198  1.2043 -0.9192 -1.9778
  197MOL   H24147673   6.041   3.739   4.265 -0.0507 -3.6079 -1.4473
  197MOL   H24247674   6.367   3.730   4.308  0.3612 -0.3547 -0.2101
  198MOL     C147675   3.269   7.733   6.980 -0.1535  0.0950 -0.8189
  198MOL     C247676   3.223   0.114   6.944  0.7353 -0.1305 -0.2075
  198MOL     C347677   3.240   0.112   6.788 -0.2635  0.0335 -0.6355
  198MOL     C447678   3.077   0.133   6.977 -0.2353  0.7081 -0.1452
  198MOL     O547679   2.988   0.165   6.901  0.0242  0.1919  0.1385
  198MOL     O647680   3.056   0.100   7.104 -0.5323 -0.0327  0.0563
  198MOL     H747681   3.280   7.725   7.088 -0.7941  1.8907 -0.5943
  198MOL     H847682   3.368   7.702   6.946  0.9622  2.5550  0.0402
  198MOL     H947683   3.222   0.212   6.748  3.3238  1.1778  0.4221
  198MOL    H1047684   3.176   0.039   6.738 -0.6355 -1.2684  1.6905
  198MOL    H1147685   3.340   0.076   6.764  0.9295  2.4003  0.6259
  198MOL    H1247686   2.964   0.098   7.123 -0.3108 -0.0962  1.1688
  198MOL    H1347687   3.200   7.657   6.945 -3.6808  1.7241  2.2323
  198MOL    C1447688   3.304   0.237   7.007 -0.2681 -0.5471 -0.7441
  198MOL    C1547689   3.458   0.269   6.973 -0.2949 -0.2031  0.3590
  198MOL    C1647690   3.541   0.142   6.975  0.6385  0.6974  0.7103
  198MOL    C1747691   3.460   0.334   6.834 -1.0879  0.4214  0.1903
  198MOL    O1847692   3.550   0.303   6.747  0.0998 -0.2040  0.1044
  198MOL    O1947693   3.380   0.450   6.829 -0.5638 -0.7125 -0.1981
  198MOL    H2047694   3.246   0.330   7.003  1.0654  0.2858 -1.2437
  198MOL    H2147695   3.291   0.221   7.114 -0.1861 -0.4312 -0.7167
  198MOL    H2247696   3.648   0.163   6.984  0.6346  1.4612 -0.8259
  198MOL    H2347697   3.523   0.086   6.883 -1.8704  1.7889  0.5059
  198MOL    H2447698   3.496   0.078   7.050 -0.4872  1.4431  0.6794
  198MOL    H2547699   3.401   0.477   6.742  4.2468 -0.7034  0.8289
  198MOL    C2647700   3.510   0.369   7.085 -0.1314 -0.0656  0.0275
  198MOL    C2747701   3.634   0.465   7.076 -0.1108 -0.2312  0.4229
  198MOL    C2847702   3.774   0.408   7.037  0.5628  0.6006  0.4341
  198MOL    C2947703   3.601   0.576   6.977 -1.2240  0.4367  0.5151
  198MOL    O3047704   3.652   0.589   6.865  0.3627 -0.2348  0.3616
  198MOL    O3147705   3.507   0.658   7.022  0.2189  0.2085  0.1142
  198MOL    H3247706   3.434   0.443   7.111 -0.2097  0.1144 -0.6825
  198MOL    H3347707   3.509   0.304   7.172 -0.1213 -0.2862 -0.1361
  198MOL    H3447708   3.802   0.330   7.108 -0.8915 -0.5173 -0.1955
  198MOL    H3547709   3.855   0.480   7.025  0.4086  0.6774 -0.1994
  198MOL    H3647710   3.768   0.361   6.939  1.9551  0.3152  0.4726
  198MOL    H3747711   3.509   0.724   6.954 -2.1037  1.2963  1.0618
  198MOL    C3847712   3.643   0.530   7.221 -0.9266  0.4521 -0.0848
  198MOL    C3947713   3.752   0.618   7.283  0.2813  0.2698 -0.4131
  198MOL    C4047714   3.868   0.532   7.332  0.4855 -1.2397 -0.0892
  198MOL    C4147715   3.794   0.729   7.183  0.3649 -0.5775 -0.6948
  198MOL    O4247716   3.715   0.821   7.150 -0.5130  0.4249  0.1722
  198MOL    O4347717   3.923   0.719   7.138  0.7028  0.0981 -0.2412
  198MOL    H4447718   3.546   0.578   7.236 -1.0344  0.0781  0.4262
  198MOL    H4547719   3.635   0.456   7.300 -0.3128  1.1849  0.6691
  198MOL    H4647720   3.956   0.594   7.348 -0.9308  0.6147  0.5577
  198MOL    H4747721   3.915   0.463   7.262  1.0160 -1.2567  0.2848
  198MOL    H4847722   3.835   0.469   7.415  0.0378 -1.4109 -0.3923
  198MOL    H4947723   3.962   0.790   7.091  2.5518 -0.4111  0.4626
  198MOL    C5047724   3.687   0.684   7.421 -0.3212 -0.1482  1.0142
  198MOL    C5147725   3.764   0.734   7.546 -0.0792  0.0125  0.8150
  198MOL    C5247726   3.874   0.829   7.491 -0.6001  0.1529 -0.1601
  198MOL    C5347727   3.667   0.823   7.634  0.0294  0.4469 -0.2136
  198MOL    O5447728   3.689   0.942   7.679  0.1191 -0.0701 -0.7529
  198MOL    O5547729   3.551   0.746   7.663 -0.1224 -0.0883 -0.0963
  198MOL    H5647730   3.650   0.780   7.386  1.7326  0.1898 -0.2916
  198MOL    H5747731   3.597   0.630   7.453 -0.1202 -1.1111 -0.0295
  198MOL    H5847732   3.942   0.784   7.419  1.2389  0.4465  1.3394
  198MOL    H5947733   3.926   0.887   7.568 -0.2592  0.2568 -0.4684
  198MOL    H6047734   3.826   0.908   7.433 -0.9315  0.9222  1.1291
  198MOL    H6147735   3.498   0.799   7.721 -0.5230  0.1076 -0.6392
  198MOL    C6247736   3.833   0.622   7.623  0.2647 -0.5231  0.2600
  198MOL    C6347737   3.879   0.626   0.005 -0.5900  0.7450 -0.0668
  198MOL    C6447738   3.944   0.762   0.043 -0.6964 -0.1542 -0.8096
  198MOL    C6547739   3.761   0.601   0.104 -0.0390 -0.1241 -0.2817
  198MOL    O6647740   3.658   0.544   0.073 -0.2360 -0.0469 -0.4141
  198MOL    O6747741   3.783   0.646   0.232  0.0627  0.4180 -0.0897
  198MOL    H6847742   3.782   0.526   7.613  0.1018 -0.6158  1.8158
  198MOL    H6947743   3.930   0.615   7.573  0.1265  2.1689 -0.4487
  198MOL    H7047744   4.007   0.797   7.728  0.3030 -1.1190 -0.4702
  198MOL    H7147745   4.004   0.751   0.133 -0.1397 -0.5302 -1.2188
  198MOL    H7247746   3.882   0.847   0.069 -1.4374  0.4771 -4.3386
  198MOL    H7347747   3.865   0.692   0.244  1.4341 -1.5310 -1.6620
  198MOL    C7447748   3.980   0.510   0.044  0.1440  0.6525  0.0555
  198MOL    C7547749   4.110   0.460   7.739  0.0871  0.1728 -0.6359
  198MOL    C7647750   4.077   0.416   7.592  0.3642  0.5354 -1.1195
  198MOL    C7747751   4.228   0.559   7.735  0.2418 -0.0670 -1.2618
  198MOL    O7847752   4.228   0.651   0.044 -0.0969 -0.3546 -0.0898
  198MOL    O7947753   4.323   0.539   7.641  0.0336  0.0684  0.3329
  198MOL    H8047754   4.018   0.535   0.143  0.8685 -1.3843  0.3253
  198MOL    H8147755   3.922   0.418   0.053 -1.0535  1.4687  0.7348
  198MOL    H8247756   3.972   0.387   7.584  1.0245 -1.8953 -1.3567
  198MOL    H8347757   4.131   0.327   7.560 -0.9405  0.1318 -2.2616
  198MOL    H8447758   4.104   0.502   7.532  1.7180  1.8195  1.2403
  198MOL    H8547759   4.317   0.458   7.593  1.2129  0.9031 -1.2673
  198MOL    C8647760   4.171   0.333   0.046  0.1858  0.3480  0.4855
  198MOL    C8747761   4.173   0.314   0.213  0.0417 -0.6321  0.0141
  198MOL    C8847762   4.247   0.432   0.285  0.2072 -0.3079  0.8872
  198MOL    C8947763   4.029   0.290   0.267  0.6188  0.0122 -0.5489
  198MOL    O9047764   3.970   0.183   0.235  0.2503 -0.3024  0.2737
  198MOL    O9147765   3.975   0.393   0.346  0.2020 -0.0566 -0.1373
  198MOL    H9247766   4.108   0.249   0.015 -0.9126  0.7355  1.6561
  198MOL    H9347767   4.259   0.305   7.755 -1.3822 -1.0192 -1.3421
  198MOL    H9447768   4.248   0.436   0.393  0.2207  0.4768  0.8596
  198MOL    H9547769   4.190   0.523   0.266  2.7110  0.6579 -2.3982
  198MOL    H9647770   4.349   0.446   0.250 -0.6083  0.9261 -1.0816
  198MOL    H9747771   3.914   0.357   0.409 -0.9479  1.5528 -0.2855
  198MOL    C9847772   4.258   0.175   0.246  0.1206  0.7805 -0.0420
  198MOL    C9947773   4.418   0.156   0.254 -0.6917  0.4248  0.4508
  198MOL   C10047774   4.480   0.221   0.121 -0.6718 -0.2660  0.2892
  198MOL   C10147775   4.487   0.232   0.366 -0.1525 -0.2033  0.0703
  198MOL   O10247776   4.427   0.275   0.466  0.1041  0.1628 -0.0106
  198MOL   O10347777   4.618   0.247   0.354 -0.4201 -0.2165 -0.2770
  198MOL   H10447778   4.221   0.146   0.345  0.4791  1.2856  0.2391
  198MOL   H10547779   4.217   0.105   0.173  0.9238 -0.0211  0.2574
  198MOL   H10647780   4.435   0.180   0.031  0.0547  0.0662 -0.2198
  198MOL   H10747781   4.583   0.186   0.121 -0.3621  0.5721 -1.9713
  198MOL   H10847782   4.462   0.329   0.122 -0.4391 -0.2288  1.1645
  198MOL   H10947783   4.652   0.306   0.420  0.9957  0.2417 -1.3776
  198MOL   C11047784   4.470   0.003   0.245  0.0709  0.4414 -0.0380
  198MOL   C11147785   4.425   7.659   0.350 -0.4506 -0.3473  0.1007
  198MOL   C11247786   4.464   7.710   0.498  0.5929  0.6878  0.3911
  198MOL   C11347787   4.274   7.640   0.354 -0.3710 -0.0333 -0.1291
  198MOL   O11447788   4.215   7.610   0.459  0.2082  0.2542 -0.0664
  198MOL   O11547789   4.216   7.632   0.226  0.0279  0.5424 -0.1813
  198MOL   H11647790   4.457   7.740   0.142  1.5877  2.6130 -0.9083
  198MOL   H11747791   4.578   0.005   0.263  0.3445  1.1946 -1.6705
  198MOL   H11847792   4.387   0.006   0.540  0.2408  2.5194 -2.8424
  198MOL   H11947793   4.554   0.003   0.489  0.3880  0.9998  0.4459
  198MOL   H12047794   4.475   7.621   0.561  1.0268  0.2146 -0.3444
  198MOL   H12147795   4.130   7.600   0.249  0.6979 -1.2596 -0.1379
  198MOL   C12247796   4.502   7.525   0.321 -0.3761 -0.1660 -0.2704
  198MOL   C12347797   4.479   7.434   0.192 -0.6644  1.1069  0.4214
  198MOL   C12447798   4.581   7.318   0.198  0.0147 -0.2681  0.0774
  198MOL   C12547799   4.335   7.368   0.200  0.1907 -0.5328 -0.2253
  198MOL   O12647800   4.255   7.369   0.109  0.2122 -0.1398  0.5220
  198MOL   O12747801   4.320   7.299   0.313 -0.0152  0.7949 -0.4376
  198MOL   H12847802   4.608   7.542   0.335  0.3943 -4.7360  0.1223
  198MOL   H12947803   4.476   7.462   0.406  2.0486 -2.0762 -0.9071
  198MOL   H13047804   4.559   7.240   0.125  1.2118  0.0123 -0.5813
  198MOL   H13147805   4.575   7.251   0.284 -0.7993 -2.5852 -1.6951
  198MOL   H13247806   4.679   7.342   0.159  0.3558 -1.5241  0.1375
  198MOL   H13347807   4.241   7.247   0.320 -0.0158  1.0083  1.3467
  198MOL   C13447808   4.492   7.501   0.039 -0.0529  0.6410  0.0944
  198MOL   C13547809   4.625   7.555   7.741  0.3760  0.4594  0.1592
  198MOL   C13647810   4.723   7.629   0.066  0.4979  0.2856  1.1007
  198MOL   C13747811   4.713   7.433   7.696 -0.3154  0.0962 -0.0792
  198MOL   O13847812   4.832   7.426   7.722 -0.2774  0.3260  0.0831
  198MOL   O13947813   4.654   7.340   7.619 -0.2048 -0.2472  0.1589
  198MOL   H14047814   4.447   7.423   7.746  2.7698 -3.1970  2.7171
  198MOL   H14147815   4.417   7.579   0.047  0.0099  0.7835 -0.6317
  198MOL   H14247816   4.746   7.574   0.157 -3.3786  0.8598  2.5190
  198MOL   H14347817   4.694   7.725   0.108 -1.3526  0.0403  0.4327
  198MOL   H14447818   4.822   7.649   0.024  0.4416  0.1612  0.9081
  198MOL   H14547819   4.718   7.274   7.597  0.0589 -0.7485  2.2506
  198MOL   C14647820   4.600   7.653   7.621  0.7255  0.2912  0.1069
  198MOL   C14747821   4.480   7.649   7.511 -0.2364 -0.0859  0.2956
  198MOL   C14847822   4.494   7.518   7.424  1.1016 -0.2639 -1.4267
  198MOL   C14947823   4.341   7.660   7.580 -0.0240 -0.1543  0.6383
  198MOL   O15047824   4.319   7.752   7.658  0.3085 -0.5808  0.5513
  198MOL   O15147825   4.251   7.562   7.553  0.3870 -0.5610 -0.0501
  198MOL   H15247826   4.585   7.751   7.668  2.2815  1.4210 -1.6788
  198MOL   H15347827   4.695   7.670   7.570  2.3246  0.2530  2.9387
  198MOL   H15447828   4.450   7.437   7.483  1.3771  0.3014 -0.4339
  198MOL   H15547829   4.597   7.494   7.400  0.9722 -1.9978 -0.3893
  198MOL   H15647830   4.431   7.518   7.335  1.2559  1.1133 -1.5374
  198MOL   H15747831   4.171   7.565   7.603  0.4536 -0.0367  0.0334
  198MOL   C15847832   4.497   0.018   7.420  0.1190  0.3309  0.2922
  198MOL   C15947833   4.483   0.014   7.265  0.1937 -0.1687  0.5101
  198MOL   C16047834   4.608   7.699   7.216  0.3685 -0.9594 -0.2214
  198MOL   C16147835   4.351   7.719   7.215 -0.0969  0.7576  0.3117
  198MOL   O16247836   4.254   7.706   7.286  0.5403 -0.1811  0.3833
  198MOL   O16347837   4.361   7.692   7.083  0.5197 -0.1001 -0.3807
  198MOL   H16447838   4.418   0.090   7.441  1.1134  1.3455  0.5963
  198MOL   H16547839   4.586   0.072   7.450  2.5498 -2.7676 -1.0193
  198MOL   H16647840   4.640   7.731   7.118  1.7375 -0.4703  0.3818
  198MOL   H16747841   4.590   7.591   7.208  0.5004 -1.0582  0.7042
  198MOL   H16847842   4.692   7.711   7.284 -2.4491  0.3688  3.2454
  198MOL   H16947843   4.274   7.675   7.049  0.0199  1.3609  0.0834
  198MOL   C17047844   4.490   0.162   7.200 -0.9342  0.7082 -0.3666
  198MOL   C17147845   4.406   0.291   7.241 -0.3022  0.4429 -0.6521
  198MOL   C17247846   4.259   0.248   7.255 -0.5011 -0.1759  0.1428
  198MOL   C17347847   4.450   0.349   7.379  0.6879  0.1186  0.0614
  198MOL   O17447848   4.376   0.356   7.475 -0.6366 -0.1399 -0.3971
  198MOL   O17547849   4.582   0.371   7.391 -0.0427 -0.5010 -0.0142
  198MOL   H17647850   4.597   0.181   7.214 -0.7827 -1.1000  1.0338
  198MOL   H17747851   4.481   0.148   7.092  0.7232 -2.2701 -0.1699
  198MOL   H17847852   4.241   0.167   7.324  0.4334 -0.3164  0.2310
  198MOL   H17947853   4.214   0.210   7.163  0.5523 -2.0638  0.3874
  198MOL   H18047854   4.200   0.332   7.293 -0.8176 -0.8084  1.0472
  198MOL   H18147855   4.619   0.385   7.477  0.2364 -1.0433 -0.0446
  198MOL   C18247856   4.432   0.396   7.124  0.0524  0.8154  0.6965
  198MOL   C18347857   4.386   0.548   7.136 -0.4169 -0.0772  0.1289
  198MOL   C18447858   4.380   0.592   6.988 -0.4680 -0.2761 -0.2919
  198MOL   C18547859   4.242   0.569   7.196 -0.0163  0.0957 -0.2743
  198MOL   O18647860   4.227   0.572   7.315  0.0085 -0.0810 -0.0929
  198MOL   O18747861   4.140   0.570   7.102  0.7500  0.0175 -0.2715
  198MOL   H18847862   4.534   0.381   7.089 -0.8836 -2.8807 -0.6885
  198MOL   H18947863   4.368   0.354   7.046 -1.4235 -0.0905  2.3533
  198MOL   H19047864   4.326   0.686   6.971  0.1652  0.1845  0.2146
  198MOL   H19147865   4.325   0.519   6.929 -0.3618 -0.9035  0.3917
  198MOL   H19247866   4.480   0.582   6.945  0.0443  1.6660  0.3632
  198MOL   H19347867   4.058   0.580   7.146  1.2199 -2.2277  1.2374
  198MOL   C19447868   4.511   0.635   7.194  0.0708  0.0561  0.6022
  198MOL   C19547869   4.500   0.785   7.242 -0.4764 -0.1150  0.5465
  198MOL   C19647870   4.419   0.872   7.143  0.1325 -0.2650 -0.1033
  198MOL   C19747871   4.426   0.781   7.381 -0.3577  0.5012  0.4363
  198MOL   O19847872   4.321   0.845   7.409  0.1846  0.2234  0.7534
  198MOL   O19947873   4.493   0.702   7.472  0.1651 -0.3320  0.0170
  198MOL   H20047874   4.561   0.583   7.276 -0.1941  0.0561  0.7646
  198MOL   H20147875   4.582   0.626   7.111  0.9919 -1.3065  1.5079
  198MOL   H20247876   4.322   0.825   7.126 -0.0120 -0.1907  0.5303
  198MOL   H20347877   4.467   0.872   7.045 -0.3985 -1.0733 -0.3639
  198MOL   H20447878   4.395   0.972   7.180 -1.3514 -1.2342  1.5634
  198MOL   H20547879   4.450   0.690   7.555  1.1450  0.9590  0.7200
  198MOL   C20647880   4.652   0.843   7.247 -0.0827 -0.7532 -0.0051
  198MOL   C20747881   4.686   0.999   7.254  0.0614 -0.2861  0.1080
  198MOL   C20847882   4.670   1.076   7.116  0.0916 -0.0679  0.2737
  198MOL   C20947883   4.592   1.063   7.351  0.1682  0.4246 -0.0107
  198MOL   O21047884   4.488   1.128   7.336 -0.0084 -0.4648 -0.0293
  198MOL   O21147885   4.618   1.018   7.481  0.2177  0.1274  0.3858
  198MOL   H21247886   4.703   0.782   7.322  2.1948 -2.6006 -2.9382
  198MOL   H21347887   4.701   0.801   7.160 -1.0777 -0.1186 -0.8811
  198MOL   H21447888   4.707   1.178   7.126 -0.3303  0.0649  0.4746
  198MOL   H21547889   4.566   1.079   7.083  0.7602  1.5493 -1.8265
  198MOL   H21647890   4.731   1.028   7.039 -0.1282 -2.0237  1.2837
  198MOL   H21747891   4.562   1.052   7.549  0.2795  0.5392  0.2348
  198MOL   C21847892   4.841   1.011   7.288 -0.3473  0.0131 -0.8153
  198MOL   C21947893   4.942   1.128   7.293 -0.3775 -0.2148  0.0049
  198MOL   C22047894   5.071   1.068   7.362 -0.1328  0.0254  0.0731
  198MOL   C22147895   4.988   1.167   7.141  0.2134 -0.5556 -0.0147
  198MOL   O22247896   5.075   1.103   7.083 -0.5007  0.0525 -0.0557
  198MOL   O22347897   4.920   1.273   7.087  0.2681 -0.9921  0.3571
  198MOL   H22447898   4.844   0.970   7.389  1.2459  1.4412 -0.2534
  198MOL   H22547899   4.876   0.935   7.219  2.5518  1.4243 -0.9849
  198MOL   H22647900   5.043   1.024   7.458  0.4013  0.3140  0.3596
  198MOL   H22747901   5.160   1.131   7.366  0.1810 -0.4405  0.4941
  198MOL   H22847902   5.107   0.979   7.311  3.4645  1.6153 -0.3112
  198MOL   H22947903   4.960   1.308   7.009 -0.0291  0.7268  0.9451
  198MOL   C23047904   4.881   1.249   7.374 -0.2679  0.7295 -0.6744
  198MOL   C23147905   4.980   1.362   7.434  0.0882 -0.2234 -0.6038
  198MOL   C23247906   5.094   1.405   7.345  0.7781 -1.1044 -0.3095
  198MOL   C23347907   4.914   1.478   7.503 -0.5781  0.1591 -0.0764
  198MOL   O23447908   4.957   1.593   7.507 -0.0059 -0.2804 -0.6246
  198MOL   O23547909   4.799   1.436   7.562 -0.0821 -0.3202  0.5907
  198MOL   H23647910   4.799   1.287   7.314  1.2115  0.0854 -3.1975
  198MOL   H23747911   4.828   1.213   7.462 -1.3274  4.6688  0.4021
  198MOL   H23847912   5.062   1.432   7.244 -1.4775  0.8933  0.8810
  198MOL   H23947913   5.171   1.331   7.324  2.8715  0.9415 -0.0012
  198MOL   H24047914   5.148   1.485   7.396 -0.6521 -0.4896  0.2905
  198MOL   H24147915   4.754   1.501   7.615  0.0621  1.0177 -0.8724
  198MOL   H24247916   5.031   1.300   7.508  0.7058  0.9686 -0.0236
  199MOL     C147917   7.724   4.558   5.505  0.1119  0.2856  0.4533
  199MOL     C247918   7.713   4.672   5.614 -0.4729 -0.2623  0.0300
  199MOL     C347919   0.075   4.752   5.584  0.0947  0.0913  0.0345
  199MOL     C447920   7.593   4.761   5.585 -0.3161 -0.3953  0.4053
  199MOL     O547921   7.595   4.877   5.536  0.2719  0.5347  0.1413
  199MOL     O647922   7.474   4.704   5.624 -0.1972 -0.3312  0.3742
  199MOL     H747923   7.654   4.475   5.513 -1.4928  1.4056 -1.7635
  199MOL     H847924   0.052   4.505   5.501 -0.4400 -0.6334 -0.4566
  199MOL     H947925   0.105   4.755   5.479 -1.8104 -0.6411 -0.5560
  199MOL    H1047926   0.160   4.706   5.636  0.7528  0.0245 -1.0815
  199MOL    H1147927   0.073   4.852   5.626 -0.3407 -0.2409  0.8231
  199MOL    H1247928   7.403   4.752   5.583 -0.0963 -0.8462 -0.4200
  199MOL    H1347929   7.720   4.596   5.403  1.3884  0.1296  0.3393
  199MOL    C1447930   7.718   4.603   5.749 -0.1240 -0.5969 -0.4891
  199MOL    C1547931   7.698   4.666   5.891 -0.3186 -0.3826  0.5553
  199MOL    C1647932   7.745   4.818   5.879  0.8067  0.4340 -0.4245
  199MOL    C1747933   7.550   4.666   5.939  0.1157  0.8877  0.5775
  199MOL    O1847934   7.462   4.603   5.886  0.4506  0.1734 -0.3530
  199MOL    O1947935   7.529   4.745   6.041 -0.1734 -0.2883  0.1866
  199MOL    H2047936   7.639   4.529   5.736 -1.3367  0.9094 -2.1195
  199MOL    H2147937   0.043   4.545   5.754 -1.0597 -2.0872 -0.4278
  199MOL    H2247938   7.759   4.877   5.969 -0.3071  1.0555 -0.6538
  199MOL    H2347939   7.689   4.869   5.800  0.9019 -0.9245 -1.3840
  199MOL    H2447940   0.080   4.806   5.842  1.3874 -0.6895  1.4766
  199MOL    H2547941   7.437   4.738   6.065 -0.1126  1.3838  0.9405
  199MOL    C2647942   0.022   4.602   6.002  0.1184  0.0251 -0.7925
  199MOL    C2747943   7.767   4.454   6.058  0.1507 -0.4166 -0.2217
  199MOL    C2847944   7.715   4.358   5.950  0.1747  0.1374  0.1045
  199MOL    C2947945   0.137   4.406   6.113 -0.4640  0.9267  0.5558
  199MOL    O3047946   0.178   4.296   6.077  0.3524  0.6898  0.2529
  199MOL    O3147947   0.223   4.500   6.162 -0.3127  0.0536 -0.4275
  199MOL    H3247948   0.124   4.595   5.965 -0.1921 -1.1184 -1.4859
  199MOL    H3347949   0.017   4.663   6.092 -0.6544 -0.3056 -0.6040
  199MOL    H3447950   7.617   4.388   5.914 -0.1830 -0.7450  0.3344
  199MOL    H3547951   7.717   4.253   5.977  0.8200 -0.3494 -1.7418
  199MOL    H3647952   0.025   4.367   5.873  1.4073  2.2815  1.5168
  199MOL    H3747953   0.311   4.466   6.157 -0.3716 -0.0410 -0.8873
  199MOL    C3847954   7.665   4.452   6.182 -0.1601 -0.5958  0.5717
  199MOL    C3947955   7.604   4.321   6.253 -0.7365 -0.4261  0.2755
  199MOL    C4047956   7.709   4.209   6.267  0.5572 -0.2804  0.0820
  199MOL    C4147957   7.555   4.369   6.390  0.3414 -0.1327  0.4002
  199MOL    O4247958   7.455   4.440   6.416  0.1673 -0.2707 -0.1351
  199MOL    O4347959   7.629   4.325   6.491  0.0163 -0.0219 -0.3390
  199MOL    H4447960   7.692   4.533   6.250 -0.6498 -0.3452  0.4719
  199MOL    H4547961   7.577   4.500   6.140  0.2148  0.6391  1.1651
  199MOL    H4647962   7.685   4.141   6.348  0.8911 -0.3363  0.1370
  199MOL    H4747963   0.042   4.244   6.292  0.5682  0.3089 -0.7724
  199MOL    H4847964   7.714   4.151   6.175  3.1158 -0.9434  0.5996
  199MOL    H4947965   7.583   4.350   6.569 -1.8850  0.2019 -1.5028
  199MOL    C5047966   7.484   4.264   6.162 -0.1381 -0.0333  0.9375
  199MOL    C5147967   7.391   4.141   6.191 -0.4113 -0.5227 -0.1170
  199MOL    C5247968   7.470   4.006   6.187 -0.2850 -0.3537 -0.6183
  199MOL    C5347969   7.321   4.155   6.326 -0.1903 -0.1093  0.3122
  199MOL    O5447970   7.344   4.082   6.419 -0.2500 -0.0058 -0.1078
  199MOL    O5547971   7.240   4.259   6.338 -0.3161  0.1389  0.5975
  199MOL    H5647972   7.414   4.346   6.146 -1.5831 -1.3360  0.4611
  199MOL    H5747973   7.526   4.244   6.063  1.7449 -0.6162  1.8303
  199MOL    H5847974   7.411   3.923   6.148  0.8941 -1.0330 -0.9911
  199MOL    H5947975   7.515   3.969   6.279 -0.0015  0.0472 -0.5943
  199MOL    H6047976   7.556   4.013   6.120  1.2870 -2.1438  1.1514
  199MOL    H6147977   7.203   4.257   6.424 -1.3911  1.1116  0.1645
  199MOL    C6247978   7.273   4.145   6.083 -0.0571  0.1894  0.4556
  199MOL    C6347979   7.286   4.151   5.931 -0.1340  0.5049  0.2399
  199MOL    C6447980   7.299   4.299   5.888 -0.7466 -0.1169  0.1982
  199MOL    C6547981   7.415   4.072   5.888  0.6508 -0.4842 -0.0242
  199MOL    O6647982   7.525   4.122   5.855  0.2584 -0.5693 -0.0068
  199MOL    O6747983   7.393   3.938   5.897 -0.4301 -0.0604  0.3754
  199MOL    H6847984   7.211   4.057   6.104 -1.4147  1.2716  1.0100
  199MOL    H6947985   7.210   4.231   6.107  2.0522  1.3159  2.1328
  199MOL    H7047986   7.373   4.361   5.939 -0.4461  0.6421 -1.1507
  199MOL    H7147987   7.208   4.356   5.906 -0.8030 -1.0224  3.0723
  199MOL    H7247988   7.318   4.319   5.783  1.2426  0.7464  0.6993
  199MOL    H7347989   7.469   3.884   5.880 -1.6847 -1.4640 -0.9341
  199MOL    C7447990   7.164   4.090   5.854  0.2504 -0.2998 -0.7808
  199MOL    C7547991   7.150   4.094   5.693  1.0946  0.1480 -0.5676
  199MOL    C7647992   7.284   4.080   5.613 -0.7080  0.1422 -0.0342
  199MOL    C7747993   7.061   3.968   5.669  0.5612 -0.5096  0.3740
  199MOL    O7847994   7.092   3.860   5.610 -0.5473 -0.2870  0.0911
  199MOL    O7947995   6.939   3.991   5.720  0.4815 -0.5994  0.0074
  199MOL    H8047996   7.145   3.990   5.893  1.9098 -0.1098  0.6086
  199MOL    H8147997   7.074   4.141   5.889  0.4050 -0.7844  0.3564
  199MOL    H8247998   7.270   4.041   5.512  0.8340 -0.7408  0.0784
  199MOL    H8347999   7.346   4.002   5.657 -0.6451 -0.3624 -1.0092
  199MOL    H8448000   7.342   4.170   5.594 -0.9640  0.1916 -0.5875
  199MOL    H8548001   6.886   3.915   5.700 -0.6465  0.3639 -0.6924
  199MOL    C8648002   7.077   4.224   5.652 -1.0045 -0.0270  0.2087
  199MOL    C8748003   7.019   4.251   5.507  0.0967  0.3893 -0.1309
  199MOL    C8848004   7.117   4.225   5.396 -0.6175 -0.1498  0.8816
  199MOL    C8948005   6.883   4.182   5.472 -0.0831  0.7920 -0.3388
  199MOL    O9048006   6.877   4.096   5.388  0.7934  0.6448  0.6413
  199MOL    O9148007   6.792   4.209   5.562 -0.3881  0.1108 -0.4736
  199MOL    H9248008   6.984   4.239   5.706 -1.3604  1.6340 -0.8479
  199MOL    H9348009   7.127   4.309   5.698 -1.3393  0.8397 -1.0331
  199MOL    H9448010   7.213   4.269   5.421 -0.9641  0.7110  0.7182
  199MOL    H9548011   7.082   4.270   5.303 -0.2098 -0.9281  0.3478
  199MOL    H9648012   7.123   4.121   5.365  2.5571  0.9548 -2.6200
  199MOL    H9748013   6.714   4.162   5.537  0.2451 -0.2912 -1.7205
  199MOL    C9848014   6.973   4.403   5.495  0.7065  0.0797 -0.1198
  199MOL    C9948015   7.058   4.533   5.479  0.9615  0.0196  0.3949
  199MOL   C10048016   6.946   4.639   5.480  0.1976 -0.6459  0.4870
  199MOL   C10148017   7.153   4.560   5.597 -0.5948 -0.3841  0.3203
  199MOL   O10248018   7.123   4.630   5.692  0.0027  0.2074  0.0148
  199MOL   O10348019   7.273   4.497   5.581  0.4644  0.2511 -0.1186
  199MOL   H10448020   6.887   4.398   5.428 -0.9022  0.5567  1.8569
  199MOL   H10548021   6.931   4.413   5.595  1.2584 -1.6321  0.3065
  199MOL   H10648022   6.890   4.636   5.573 -1.5571  0.0328 -0.5380
  199MOL   H10748023   6.870   4.633   5.402  0.2704 -0.4183  0.3997
  199MOL   H10848024   6.988   4.739   5.479 -0.4096 -0.3992 -0.6506
  199MOL   H10948025   7.324   4.527   5.655 -0.6736  2.3344 -0.1489
  199MOL   C11048026   7.133   4.523   5.334 -0.4677  0.5865 -0.6663
  199MOL   C11148027   7.177   4.643   5.250  0.2526  0.4612  0.5066
  199MOL   C11248028   7.045   4.704   5.191 -0.5358  0.0008  0.8708
  199MOL   C11348029   7.243   4.761   5.321 -0.2646  0.6431  0.8418
  199MOL   O11448030   7.278   4.768   5.440 -0.1589 -0.0831  0.1091
  199MOL   O11548031   7.278   4.856   5.233 -0.8578 -0.5833 -0.0308
  199MOL   H11648032   7.223   4.463   5.343  0.8354  2.6884  0.9256
  199MOL   H11748033   7.079   4.452   5.272 -1.9236  0.4855  0.6764
  199MOL   H11848034   7.062   4.761   5.100  0.6898 -2.7253 -0.7051
  199MOL   H11948035   6.994   4.770   5.261 -2.4680  1.1566 -1.5787
  199MOL   H12048036   6.975   4.625   5.162  0.3521 -0.2253 -0.7217
  199MOL   H12148037   7.309   4.934   5.277  0.0858 -1.3022  0.5859
  199MOL   C12248038   7.259   4.597   5.121  0.7271 -0.2947 -0.4210
  199MOL   C12348039   7.406   4.532   5.126 -0.0103  0.0357  0.4009
  199MOL   C12448040   7.496   4.609   5.229 -0.3231 -0.1635  0.1049
  199MOL   C12548041   7.399   4.383   5.168 -0.0479 -0.8735  1.4410
  199MOL   O12648042   7.474   4.324   5.248  0.3448  0.0265 -0.4594
  199MOL   O12748043   7.300   4.311   5.099 -0.0001  0.3445  0.2601
  199MOL   H12848044   7.189   4.556   5.049  0.9271  0.8171 -1.2715
  199MOL   H12948045   7.282   4.690   5.068  2.0163  2.2004  4.2491
  199MOL   H13048046   7.514   4.710   5.191 -1.1522 -0.8408 -2.2030
  199MOL   H13148047   7.596   4.568   5.238  0.5585  2.3672  2.3687
  199MOL   H13248048   7.449   4.599   5.327 -0.4989 -3.9612 -0.2998
  199MOL   H13348049   7.242   4.364   5.046  1.9716  2.2779 -0.0360
  199MOL   C13448050   7.460   4.548   4.979 -0.5664  0.4989  0.0082
  199MOL   C13548051   7.589   4.474   4.919 -0.2464  0.2065 -0.0818
  199MOL   C13648052   7.555   4.326   4.897  0.2594  0.5872 -0.4286
  199MOL   C13748053   7.624   4.529   4.782  0.1162 -0.1114  0.4598
  199MOL   O13848054   7.632   4.468   4.680  0.0413  0.4669 -0.5289
  199MOL   O13948055   7.637   4.664   4.777 -0.1435 -0.0862 -0.0175
  199MOL   H14048056   7.383   4.509   4.913 -0.7471  1.9126 -0.6277
  199MOL   H14148057   7.462   4.655   4.961 -0.8415  0.3999 -0.6425
  199MOL   H14248058   7.634   4.270   4.846  1.7790  2.3844 -0.1021
  199MOL   H14348059   7.467   4.322   4.832 -0.0317  1.4765 -0.0950
  199MOL   H14448060   7.533   4.257   4.979 -0.4691 -0.0833 -1.1806
  199MOL   H14548061   7.673   4.691   4.694 -2.9853 -1.4180 -1.7702
  199MOL   C14648062   7.713   4.491   5.014 -0.1181 -0.1175 -0.1150
  199MOL   C14748063   0.092   4.463   4.984 -0.8334  0.1157 -0.1178
  199MOL   C14848064   0.112   4.329   4.905  0.4960  0.0335  0.2673
  199MOL   C14948065   0.153   4.583   4.899 -0.0423 -1.3210 -0.2231
  199MOL   O15048066   0.219   4.573   4.796 -0.1366  0.4407  0.0463
  199MOL   O15148067   0.133   4.705   4.963  0.2538  0.3603 -0.0942
  199MOL   H15248068   7.710   4.590   5.060  1.2324  0.5320 -1.3932
  199MOL   H15348069   7.682   4.431   5.100 -2.3276 -0.9623 -1.4390
  199MOL   H15448070   0.082   4.241   4.964  0.5981 -0.1964 -0.0247
  199MOL   H15548071   0.218   4.323   4.884  0.6109 -3.1952  1.4164
  199MOL   H15648072   0.061   4.341   4.810 -0.3935 -0.0352  0.7275
  199MOL   H15748073   0.180   4.773   4.917  0.1521 -0.3246 -1.2330
  199MOL   C15848074   0.153   4.461   5.126 -0.6653 -0.3761  0.7700
  199MOL   C15948075   0.301   4.425   5.161  0.7343  0.7247  0.1805
  199MOL   C16048076   0.315   4.265   5.154 -0.0328 -0.2975 -0.3553
  199MOL   C16148077   0.396   4.501   5.075  0.2468 -0.0124  0.6670
  199MOL   O16248078   0.412   4.618   5.078 -0.0853  0.4335  0.4458
  199MOL   O16348079   0.461   4.416   4.992  0.0198  0.9568 -0.4801
  199MOL   H16448080   0.124   4.555   5.173  0.8786  0.5529 -0.0615
  199MOL   H16548081   0.099   4.383   5.179 -0.1069 -0.7852  0.7519
  199MOL   H16648082   0.296   4.226   5.054 -1.4317  0.1819 -0.2751
  199MOL   H16748083   0.236   4.226   5.218  0.0354 -0.2746 -0.2560
  199MOL   H16848084   0.410   4.221   5.186 -0.0737  1.6497  2.6259
  199MOL   H16948085   0.527   4.463   4.945  1.1022 -0.7913 -0.7494
  199MOL   C17048086   0.313   4.482   5.308  0.4565  0.0895  0.1441
  199MOL   C17148087   0.415   4.414   5.414 -0.1781  0.6413 -0.4395
  199MOL   C17248088   0.337   4.296   5.475 -0.1879  0.0864  0.9185
  199MOL   C17348089   0.548   4.365   5.352 -0.1297 -0.2358 -0.4653
  199MOL   O17448090   0.595   4.413   5.250 -0.0798 -0.1338 -0.0459
  199MOL   O17548091   0.602   4.257   5.418  0.3118  0.3639 -0.5506
  199MOL   H17648092   0.323   4.589   5.291 -0.2748  0.5073  2.2392
  199MOL   H17748093   0.217   4.487   5.358 -0.0337  1.5305 -0.9311
  199MOL   H17848094   0.233   4.322   5.493 -0.9543 -2.4071  0.3813
  199MOL   H17948095   0.371   4.268   5.575  1.6933  1.8264  0.7866
  199MOL   H18048096   0.333   4.203   5.418 -0.1335  0.1532  0.8032
  199MOL   H18148097   0.658   4.218   5.353  0.5186 -2.9165  1.5111
  199MOL   C18248098   0.459   4.509   5.534  0.0151  0.1143 -0.3092
  199MOL   C18348099   0.548   4.637   5.538 -0.5088  0.3732 -0.8817
  199MOL   C18448100   0.695   4.596   5.539  0.5268  0.3114 -0.3270
  199MOL   C18548101   0.513   4.715   5.416 -0.7169 -0.3822 -0.5252
  199MOL   O18648102   0.431   4.810   5.416  0.4249 -0.3190  0.6504
  199MOL   O18748103   0.582   4.682   5.306 -0.0034 -0.3438 -0.3917
  199MOL   H18848104   0.367   4.533   5.587  1.0180  1.8907  0.6744
  199MOL   H18948105   0.511   4.445   5.606 -1.4440 -0.5770  0.1522
  199MOL   H19048106   0.723   4.554   5.635  1.7522  0.4518 -0.6140
  199MOL   H19148107   0.757   4.684   5.523  0.5119  0.4156  0.1833
  199MOL   H19248108   0.730   4.519   5.471  1.3144 -0.8838  1.4059
  199MOL   H19348109   0.530   4.702   5.229 -0.3197  1.5786  0.2922
  199MOL   C19448110   0.502   4.721   5.671  0.0171 -0.1011 -0.4475
  199MOL   C19548111   0.560   4.696   5.820 -0.2084 -0.1633  0.3347
  199MOL   C19648112   0.709   4.741   5.825 -0.4359 -0.0009 -0.0808
  199MOL   C19748113   0.474   4.803   5.908 -0.0061 -0.0507 -0.5159
  199MOL   O19848114   0.370   4.773   5.966 -0.6112 -0.1893 -0.4974
  199MOL   O19948115   0.512   4.931   5.884  0.4968 -0.0273 -0.0671
  199MOL   H20048116   0.520   4.826   5.647 -3.1513  1.0095  1.6686
  199MOL   H20148117   0.394   4.714   5.676 -0.0072  0.4360 -0.1268
  199MOL   H20248118   0.778   4.682   5.765 -0.4019  1.1425 -1.1837
  199MOL   H20348119   0.737   4.770   5.926  0.1378  0.1110 -0.2723
  199MOL   H20448120   0.714   4.837   5.774 -3.8800  0.9924  1.2678
  199MOL   H20548121   0.441   4.979   5.925 -0.0098 -2.2006  1.6854
  199MOL   C20648122   0.536   4.551   5.868 -0.0190 -0.7315 -0.4835
  199MOL   C20748123   0.598   4.486   5.992 -0.1141  0.7930 -0.3046
  199MOL   C20848124   0.604   4.584   6.108  0.1545  0.7185  0.2334
  199MOL   C20948125   0.499   4.367   6.038  0.3623 -0.7301 -0.1678
  199MOL   O21048126   0.474   4.340   6.157  0.1213 -0.2909  0.1580
  199MOL   O21148127   0.448   4.300   5.936  0.1679  0.2528  0.2834
  199MOL   H21248128   0.429   4.533   5.858  0.0533 -1.0818 -0.6527
  199MOL   H21348129   0.579   4.494   5.786  1.9292  1.9430 -1.4058
  199MOL   H21448130   0.681   4.660   6.096  0.2945  0.6248  0.5282
  199MOL   H21548131   0.618   4.535   6.204 -1.0815 -2.2324 -1.0532
  199MOL   H21648132   0.504   4.618   6.138 -0.5578 -1.5055  0.4416
  199MOL   H21748133   0.386   4.235   5.966 -3.1919  3.0895 -0.1887
  199MOL   C21848134   0.726   4.409   5.939  0.1544  0.1521  0.3699
  199MOL   C21948135   0.847   4.370   6.036 -0.7074 -0.6730  0.2704
  199MOL   C22048136   0.901   4.496   6.107 -0.5868  0.9063  0.7223
  199MOL   C22148137   0.805   4.255   6.135  0.3513  0.2476  0.2234
  199MOL   O22248138   0.744   4.155   6.093  0.0367 -0.0357  0.1588
  199MOL   O22348139   0.849   4.264   6.263 -0.0669 -0.6790 -0.3845
  199MOL   H22448140   0.702   4.315   5.890 -1.2305 -0.2350  1.7784
  199MOL   H22548141   0.775   4.470   5.863 -0.9260  0.1765 -0.3034
  199MOL   H22648142   0.997   4.480   6.156 -0.4311  2.4608  0.9244
  199MOL   H22748143   0.841   4.526   6.193 -1.9885 -1.8859  0.7949
  199MOL   H22848144   0.900   4.582   6.040 -1.7743  1.1908  1.0929
  199MOL   H22948145   0.819   4.188   6.310  1.1837 -0.3440  0.9977
  199MOL   C23048146   0.970   4.321   5.951  0.3789  0.0488 -0.1583
  199MOL   C23148147   0.951   4.200   5.855  0.2823  0.2977 -0.4290
  199MOL   C23248148   0.922   4.255   5.715 -0.1304  0.0881 -1.5731
  199MOL   C23348149   1.069   4.097   5.846 -0.1291 -0.1435  0.1024
  199MOL   O23448150   1.101   4.061   5.738 -0.3358 -0.2143  0.5224
  199MOL   O23548151   1.118   4.060   5.972 -0.1696  0.3087 -0.0796
  199MOL   H23648152   1.000   4.407   5.891 -1.6465  0.8181 -0.1118
  199MOL   H23748153   1.045   4.289   6.023  1.5387 -0.0516 -1.3928
  199MOL   H23848154   0.998   4.330   5.691  2.1577 -1.0910  1.7850
  199MOL   H23948155   0.818   4.290   5.711 -0.3769 -0.1010  2.1605
  199MOL   H24048156   0.921   4.178   5.638 -0.9006  1.4168 -2.9360
  199MOL   H24148157   1.187   3.996   5.959  1.0233  1.9739 -2.1777
  199MOL   H24248158   0.871   4.144   5.903  0.8185  0.0907  0.2140
  200MOL     C148159   2.332   6.807   6.784 -0.4430 -0.4917 -0.4406
  200MOL     C248160   2.417   6.793   6.653  0.5442  0.2277 -0.9702
  200MOL     C348161   2.328   6.759   6.532 -0.6971 -0.0924  0.0161
  200MOL     C448162   2.484   6.936   6.624  0.2105 -1.1969 -0.4974
  200MOL     O548163   2.468   7.001   6.519  0.3576 -0.5374 -0.4464
  200MOL     O648164   2.555   6.985   6.730  0.0744  0.1570  0.2059
  200MOL     H748165   2.260   6.887   6.771  0.7525  0.2962 -2.5276
  200MOL     H848166   2.393   6.830   6.871 -1.3333  0.3115 -0.0269
  200MOL     H948167   2.386   6.751   6.439 -1.2319  2.8366 -0.6234
  200MOL    H1048168   2.257   6.839   6.511  0.7516  1.2998  0.2993
  200MOL    H1148169   2.264   6.675   6.558 -0.1041 -0.4857  0.2094
  200MOL    H1248170   2.579   7.075   6.712  2.0800 -0.9076 -2.7585
  200MOL    H1348171   2.269   6.723   6.814  0.5490 -0.9896  0.2703
  200MOL    C1448172   2.522   6.685   6.684 -0.7296  0.1008  0.6569
  200MOL    C1548173   2.663   6.666   6.609  0.1343  0.9551  0.8675
  200MOL    C1648174   2.655   6.678   6.450 -0.1330  0.3530  0.2510
  200MOL    C1748175   2.761   6.760   6.676 -0.3616 -0.2999  0.1378
  200MOL    O1848176   2.814   6.849   6.611  0.1166  0.2439  0.2054
  200MOL    O1948177   2.792   6.724   6.804 -0.2724  0.1861 -0.7132
  200MOL    H2048178   2.544   6.690   6.791 -0.2961  1.3366  0.5206
  200MOL    H2148179   2.465   6.593   6.672  0.4595 -0.4970 -0.5983
  200MOL    H2248180   2.587   6.603   6.409  1.3077  0.0632 -1.6582
  200MOL    H2348181   2.747   6.663   6.395  0.1770 -0.0320  0.8700
  200MOL    H2448182   2.620   6.778   6.423 -0.5911  0.4864  1.3114
  200MOL    H2548183   2.849   6.789   6.841 -2.0342  1.5214 -0.2351
  200MOL    C2648184   2.699   6.516   6.638 -0.1768  0.1802 -0.9627
  200MOL    C2748185   2.839   6.444   6.614  0.2197 -0.6506  0.4060
  200MOL    C2848186   2.902   6.483   6.476  0.4263  0.2727 -0.3660
  200MOL    C2948187   2.939   6.475   6.737 -1.3741 -0.3713 -0.4933
  200MOL    O3048188   2.905   6.463   6.851  0.3572 -0.2777  0.5934
  200MOL    O3148189   3.066   6.517   6.702 -0.8727 -0.7164 -0.2756
  200MOL    H3248190   2.671   6.507   6.743  1.0992  1.5802 -0.4901
  200MOL    H3348191   2.620   6.455   6.593 -0.7036  1.1959 -1.4504
  200MOL    H3448192   2.926   6.589   6.473 -1.0755  0.6100 -0.8235
  200MOL    H3548193   2.826   6.465   6.400 -2.9327  0.1487  2.8774
  200MOL    H3648194   2.986   6.424   6.440  0.3521  0.3440 -0.6581
  200MOL    H3748195   3.106   6.520   6.788 -1.3629 -0.8292 -0.0436
  200MOL    C3848196   2.814   6.289   6.607 -0.7480 -0.1211 -0.1298
  200MOL    C3948197   2.920   6.166   6.615  0.4052  0.5351  0.1936
  200MOL    C4048198   3.047   6.199   6.532 -0.3634 -0.2078 -0.2533
  200MOL    C4148199   2.977   6.145   6.756 -0.6157 -0.3071  0.1397
  200MOL    O4248200   3.081   6.081   6.771  0.0040 -0.1522 -0.5816
  200MOL    O4348201   2.899   6.190   6.858 -0.2225  0.2883 -0.5133
  200MOL    H4448202   2.743   6.257   6.683  0.7213 -0.5539  1.0705
  200MOL    H4548203   2.762   6.284   6.511 -1.8133  0.9436  0.3722
  200MOL    H4648204   3.011   6.215   6.430 -1.2354 -2.2868 -0.2883
  200MOL    H4748205   3.117   6.116   6.519 -3.6848 -3.0066 -0.9353
  200MOL    H4848206   3.093   6.286   6.580  0.0852 -0.5401 -0.0828
  200MOL    H4948207   2.951   6.193   6.937  1.0589  0.6652 -1.3583
  200MOL    C5048208   2.864   6.036   6.544 -0.4673 -0.7940 -0.0076
  200MOL    C5148209   2.718   5.972   6.578  0.5481 -0.3253  0.0645
  200MOL    C5248210   2.684   5.962   6.730  0.3385 -0.2605 -0.5178
  200MOL    C5348211   2.610   6.047   6.498 -0.5515  0.3120  0.5929
  200MOL    O5448212   2.501   6.085   6.536 -0.4138  0.2353  0.6358
  200MOL    O5548213   2.650   6.067   6.370  0.3729  0.2317  0.0424
  200MOL    H5648214   2.885   6.039   6.437 -1.6412 -0.9797 -0.2497
  200MOL    H5748215   2.939   5.961   6.568  0.9879  0.4723 -0.5540
  200MOL    H5848216   2.578   5.946   6.747  0.4423 -0.7848 -0.3607
  200MOL    H5948217   2.682   6.062   6.772  0.2880 -0.2763 -0.4826
  200MOL    H6048218   2.755   5.908   6.792  0.6011 -0.6754 -1.1732
  200MOL    H6148219   2.585   6.112   6.319  0.1420  2.0627  1.9347
  200MOL    C6248220   2.739   5.821   6.525  0.7331 -0.0274 -0.5599
  200MOL    C6348221   2.620   5.725   6.477 -0.3380 -0.3519  0.3033
  200MOL    C6448222   2.507   5.727   6.580  0.0997  0.5019  0.2337
  200MOL    C6548223   2.562   5.748   6.335  0.9378  0.4350 -0.0630
  200MOL    O6648224   2.441   5.731   6.315  0.0462  0.4848 -0.1859
  200MOL    O6748225   2.655   5.800   6.245 -0.1053 -0.5023 -0.0369
  200MOL    H6848226   2.814   5.818   6.447  1.3141 -1.5322  0.0506
  200MOL    H6948227   2.787   5.774   6.611 -1.5120  1.1815  1.4337
  200MOL    H7048228   2.448   5.635   6.575  0.4698  0.1450  2.1649
  200MOL    H7148229   2.445   5.816   6.574 -0.7074  0.0048  1.0313
  200MOL    H7248230   2.545   5.727   6.682  3.0437 -0.9938 -0.7889
  200MOL    H7348231   2.627   5.814   6.155  1.9592 -0.2532 -0.6567
  200MOL    C7448232   2.666   5.571   6.487  0.4272 -0.6019  0.2041
  200MOL    C7548233   2.804   5.510   6.416  0.6322 -0.1230 -0.6088
  200MOL    C7648234   2.812   5.521   6.261 -0.1844 -0.4131 -0.3228
  200MOL    C7748235   2.936   5.580   6.465 -0.4141 -0.2543  0.5624
  200MOL    O7848236   3.035   5.609   6.386 -0.3591  0.3473 -0.2993
  200MOL    O7948237   2.943   5.611   6.597 -0.2141  0.1985 -0.1002
  200MOL    H8048238   2.684   5.552   6.593 -0.6584  0.5193  0.5953
  200MOL    H8148239   2.593   5.498   6.451  0.7561 -0.0923 -1.5620
  200MOL    H8248240   2.717   5.494   6.215  0.5466  0.8148 -2.5951
  200MOL    H8348241   2.881   5.455   6.211 -0.2149  1.1170 -2.4380
  200MOL    H8448242   2.823   5.627   6.238 -1.3011  0.6351  3.5808
  200MOL    H8548243   3.011   5.673   6.620 -1.7780  1.9439 -0.1171
  200MOL    C8648244   2.814   5.351   6.445 -0.5838  0.6642 -0.6299
  200MOL    C8748245   2.827   5.276   6.586  0.2566 -0.1486 -0.3779
  200MOL    C8848246   2.836   5.127   6.551 -0.1976  0.3313 -0.3170
  200MOL    C8948247   2.969   5.304   6.649 -0.1040  0.3159  0.4491
  200MOL    O9048248   3.078   5.271   6.590  0.5428 -0.6182 -0.1995
  200MOL    O9148249   2.962   5.368   6.769 -0.2202 -0.1632 -0.0732
  200MOL    H9248250   2.735   5.300   6.390 -0.0652  0.8379 -1.5621
  200MOL    H9348251   2.910   5.328   6.399  0.4228  1.7435  0.8881
  200MOL    H9448252   2.755   5.087   6.490  0.1383 -1.9209  0.6521
  200MOL    H9548253   2.850   5.058   6.634  1.5391  1.4163  0.3242
  200MOL    H9648254   2.926   5.112   6.492 -0.4617  0.3290 -0.7244
  200MOL    H9748255   3.055   5.382   6.777 -0.3600  0.4274  0.5701
  200MOL    C9848256   2.696   5.293   6.677 -0.5436 -0.3561 -0.3400
  200MOL    C9948257   2.657   5.203   6.800 -0.0782  0.2108 -0.6975
  200MOL   C10048258   2.776   5.183   6.895 -0.2517  0.5750  0.0277
  200MOL   C10148259   2.560   5.289   6.886 -0.6743 -0.3651  1.0273
  200MOL   O10248260   2.560   5.294   7.010  0.3447 -0.5295  0.3446
  200MOL   O10348261   2.467   5.357   6.808  0.4459  0.5081 -0.2976
  200MOL   H10448262   2.727   5.387   6.722  1.0232 -0.6797 -0.7200
  200MOL   H10548263   2.609   5.317   6.616  0.7008  1.8999 -1.2904
  200MOL   H10648264   2.866   5.150   6.843 -1.6325 -1.0429 -1.4100
  200MOL   H10748265   2.762   5.115   6.980 -0.5244 -0.3315 -0.7283
  200MOL   H10848266   2.813   5.275   6.938 -0.1829  0.2921  0.5790
  200MOL   H10948267   2.406   5.408   6.859 -3.2329 -2.1153 -1.8389
  200MOL   C11048268   2.578   5.076   6.744  0.1767  0.3803 -0.0480
  200MOL   C11148269   2.546   4.951   6.828 -0.1541  0.2271 -0.0252
  200MOL   C11248270   2.449   4.871   6.733  0.2912 -0.0746 -0.1474
  200MOL   C11348271   2.674   4.867   6.859  0.0551  0.2803  0.1239
  200MOL   O11448272   2.734   4.877   6.964  0.2191  1.1830 -0.2159
  200MOL   O11548273   2.721   4.801   6.750  0.1116  0.3301  0.5631
  200MOL   H11648274   2.490   5.114   6.692 -0.5751  1.4594  1.9401
  200MOL   H11748275   2.633   5.044   6.655  1.5714  2.9622 -0.1704
  200MOL   H11848276   2.460   4.764   6.746 -0.2508 -0.1093  0.0441
  200MOL   H11948277   2.471   4.888   6.628  1.2798 -0.1961  0.0326
  200MOL   H12048278   2.346   4.907   6.741  0.3032  0.0630 -0.6036
  200MOL   H12148279   2.662   4.818   6.678 -0.5721 -1.1423  0.7622
  200MOL   C12248280   2.469   4.983   6.964  0.7040 -0.9383 -0.1114
  200MOL   C12348281   2.380   4.882   7.045  0.4889  0.2536 -0.0581
  200MOL   C12448282   2.233   4.899   6.993  0.0996 -0.4641  0.3036
  200MOL   C12548283   2.401   4.731   7.019 -0.4863  0.0545  0.1267
  200MOL   O12648284   2.317   4.644   6.978  0.1391 -0.2476 -0.0018
  200MOL   O12748285   2.529   4.697   7.045 -0.2919  0.5175 -0.6273
  200MOL   H12848286   2.528   5.037   7.037 -1.7942  1.9284 -0.0772
  200MOL   H12948287   2.400   5.063   6.937  2.9484 -0.0278 -3.4976
  200MOL   H13048288   2.161   4.838   7.048 -0.2693 -0.6896 -0.4242
  200MOL   H13148289   2.225   4.860   6.892  0.1522 -1.7332  0.7834
  200MOL   H13248290   2.193   5.001   6.997  2.0559  0.2939  1.3558
  200MOL   H13348291   2.596   4.759   7.067  0.0733  0.5391 -1.7791
  200MOL   C13448292   2.400   4.908   7.197 -0.4162  0.6346 -0.1632
  200MOL   C13548293   2.337   5.024   7.286  0.2595  0.0145  0.0626
  200MOL   C13648294   2.374   5.159   7.220  0.6748 -0.7409 -0.1837
  200MOL   C13748295   2.188   4.993   7.285 -0.2111  0.5206  0.3915
  200MOL   O13848296   2.141   4.892   7.327  0.1049 -0.2116 -0.1711
  200MOL   O13948297   2.105   5.100   7.257 -0.3200  0.6339  0.7143
  200MOL   H14048298   2.365   4.818   7.248  1.4926 -0.6736 -1.0629
  200MOL   H14148299   2.508   4.901   7.210 -0.0771  1.2587 -2.5237
  200MOL   H14248300   2.481   5.174   7.215  0.3519  0.7965 -3.8640
  200MOL   H14348301   2.333   5.246   7.273 -1.9828 -2.2804  0.4206
  200MOL   H14448302   2.336   5.163   7.118  0.7200 -0.0522 -0.1792
  200MOL   H14548303   2.017   5.075   7.279 -0.7237  1.3989  0.0015
  200MOL   C14648304   2.406   5.017   7.431 -0.2782  0.7136 -0.2259
  200MOL   C14748305   2.346   5.087   7.556  0.0386  0.2182 -0.5773
  200MOL   C14848306   2.312   5.231   7.524  0.4401  0.1847 -0.2432
  200MOL   C14948307   2.224   5.000   7.587  0.0436  0.2410 -0.5145
  200MOL   O15048308   2.110   5.042   7.601 -0.3049  0.3093  0.5349
  200MOL   O15148309   2.255   4.870   7.608 -0.5803 -0.4950  0.4043
  200MOL   H15248310   2.430   4.912   7.448 -1.3621  0.7348  1.5299
  200MOL   H15348311   2.502   5.068   7.415  0.2212 -0.7614 -2.0663
  200MOL   H15448312   2.267   5.279   7.611 -1.0414 -0.3207 -0.7121
  200MOL   H15548313   2.228   5.237   7.454  1.2697 -1.3298 -1.3845
  200MOL   H15648314   2.392   5.296   7.490 -1.1635  1.8097 -1.0395
  200MOL   H15748315   2.182   4.812   7.625 -0.5364 -0.8405 -0.5601
  200MOL   C15848316   2.451   5.080   7.671  0.7857 -0.9813  0.0678
  200MOL   C15948317   2.416   5.129   0.053 -0.7872 -0.0430 -0.0104
  200MOL   C16048318   2.463   5.282   0.055 -0.8983  0.2926  0.4631
  200MOL   C16148319   2.264   5.126   0.092  0.4087 -0.2150  0.6192
  200MOL   O16248320   2.197   5.229   0.078  0.5412  0.9485 -0.0682
  200MOL   O16348321   2.216   5.002   0.134  0.3404 -0.2979  0.1616
  200MOL   H16448322   2.496   4.981   7.684  0.9442 -0.6333  2.5196
  200MOL   H16548323   2.537   5.136   7.634  0.5054  1.6398  3.1944
  200MOL   H16648324   2.441   5.332   7.728 -0.0869  2.8543  1.6080
  200MOL   H16748325   2.571   5.291   0.071 -1.3785  0.7629  3.9753
  200MOL   H16848326   2.420   5.351   0.128  0.1235  0.9168  0.4833
  200MOL   H16948327   2.122   5.002   0.143  0.2493 -0.1805 -0.7655
  200MOL   C17048328   2.505   5.041   0.145  0.4640  0.7763 -0.6150
  200MOL   C17148329   2.502   5.040   0.302  0.5494 -0.7264 -0.6944
  200MOL   C17248330   2.484   5.194   0.342 -0.5478 -0.2045 -0.3093
  200MOL   C17348331   2.391   4.956   0.365 -0.3723  0.1902 -0.6341
  200MOL   O17448332   2.390   4.830   0.352 -0.1358  0.2557  0.0349
  200MOL   O17548333   2.292   5.025   0.419 -0.4371  0.1587 -0.1357
  200MOL   H17648334   2.474   4.940   0.118  1.2142  0.2668  0.3874
  200MOL   H17748335   2.608   5.054   0.112  0.1247  2.2747 -1.1209
  200MOL   H17848336   2.556   5.257   0.289 -0.2059 -0.1406  0.2282
  200MOL   H17948337   2.504   5.213   0.447  1.5369  1.2043 -0.9335
  200MOL   H18048338   2.387   5.243   0.333 -0.4842  0.1528  0.8548
  200MOL   H18148339   2.213   4.982   0.448 -0.5485  1.2656  1.2761
  200MOL   C18248340   2.640   4.999   0.374 -0.0280  0.5767 -0.0584
  200MOL   C18348341   2.753   4.912   0.314  0.1566 -0.5902  0.2986
  200MOL   C18448342   2.832   5.004   0.217  0.0038 -0.2333  0.0691
  200MOL   C18548343   2.845   4.891   0.436  0.3204 -0.1553 -0.1352
  200MOL   O18648344   2.933   4.972   0.478  0.3005  0.1208 -0.0714
  200MOL   O18748345   2.797   4.784   0.509 -0.3027  0.2240  0.6336
  200MOL   H18848346   2.686   5.092   0.406 -0.2187  1.0846 -1.2380
  200MOL   H18948347   2.601   4.936   0.454 -2.8625 -2.2654 -3.4990
  200MOL   H19048348   2.935   4.971   0.217 -0.2253 -0.9823 -1.8281
  200MOL   H19148349   2.822   5.110   0.239  0.6936 -0.0005 -0.7362
  200MOL   H19248350   2.795   5.012   0.115  1.4593  1.0206 -0.3750
  200MOL   H19348351   2.855   4.763   0.580 -1.2029 -3.3497  0.4066
  200MOL   C19448352   2.706   4.775   0.246 -0.5661 -0.4470 -0.7601
  200MOL   C19548353   2.810   4.673   0.174  0.5040 -0.7475  0.4217
  200MOL   C19648354   2.729   4.541   0.163  0.3630  0.2243 -0.4751
  200MOL   C19748355   2.858   4.725   0.040 -0.6137  0.4343  0.2640
  200MOL   O19848356   2.945   4.810   0.031 -0.0278  0.3196  0.4072
  200MOL   O19948357   2.784   4.678   7.704  0.0288 -0.1347 -0.3441
  200MOL   H20048358   2.659   4.722   0.329 -3.2635 -0.9745 -2.5897
  200MOL   H20148359   2.620   4.789   0.182 -0.0507 -0.4490 -1.4587
  200MOL   H20248360   2.738   4.473   0.247  2.0245  0.2610 -0.6128
  200MOL   H20348361   2.751   4.478   0.077  1.1141 -0.1913  0.0159
  200MOL   H20448362   2.622   4.557   0.149  0.5644  0.8712 -1.3711
  200MOL   H20548363   2.827   4.699   7.622 -0.0520  1.8408  0.1085
  200MOL   C20648364   2.933   4.642   0.265  0.0181 -0.6725 -0.0423
  200MOL   C20748365   3.060   4.544   0.237  0.6329  0.7427 -0.2946
  200MOL   C20848366   3.016   4.403   0.193  0.3437 -0.4089  0.3271
  200MOL   C20948367   3.149   4.604   0.133 -0.3012 -0.1535  0.1706
  200MOL   O21048368   3.153   4.562   0.018  0.4659 -0.0948  0.3845
  200MOL   O21148369   3.202   4.725   0.172 -0.6753 -0.0575  0.8520
  200MOL   H21248370   2.979   4.740   0.282  0.8284 -1.0001 -0.2945
  200MOL   H21348371   2.879   4.610   0.354 -0.3951 -0.4625 -0.2163
  200MOL   H21448372   3.101   4.347   0.155  0.5986  0.1518  0.0635
  200MOL   H21548373   2.942   4.400   0.113 -1.0168  3.2000  1.3222
  200MOL   H21648374   2.969   4.344   0.272  2.9217  1.2442  3.2168
  200MOL   H21748375   3.239   4.779   0.104  0.9114 -0.3111  1.4870
  200MOL   C21848376   3.134   4.531   0.373 -0.2367 -0.0651 -0.3133
  200MOL   C21948377   3.262   4.442   0.394  0.4633 -0.5120 -0.8333
  200MOL   C22048378   3.366   4.440   0.274 -0.5679 -0.0986 -0.3489
  200MOL   C22148379   3.329   4.495   0.527 -0.9935  0.7410  0.1816
  200MOL   O22248380   3.265   4.546   0.617  0.1996 -0.2657  0.2643
  200MOL   O22348381   3.465   4.466   0.526 -0.4647 -0.3631  0.3674
  200MOL   H22448382   3.155   4.636   0.395  1.0348 -0.0190 -1.7186
  200MOL   H22548383   3.059   4.506   0.448 -0.0730  1.0171  0.2256
  200MOL   H22648384   3.458   4.383   0.291 -1.0504 -0.6349  0.5370
  200MOL   H22748385   3.405   4.536   0.241  1.9181 -1.7452 -2.3628
  200MOL   H22848386   3.329   4.391   0.184  4.2079 -1.7689 -1.5419
  200MOL   H22948387   3.501   4.510   0.602  1.2582 -1.4405  0.2106
  200MOL   C23048388   3.229   4.287   0.426 -0.2476  0.5443 -0.5117
  200MOL   C23148389   3.143   4.252   0.547 -0.6315 -0.0690  0.1804
  200MOL   C23248390   3.023   4.164   0.517 -0.0439 -0.7652 -0.3543
  200MOL   C23348391   3.227   4.192   0.654  0.4902  0.4343  0.1131
  200MOL   O23448392   3.310   4.095   0.639  0.3304  0.4089  0.7765
  200MOL   O23548393   3.227   4.271   0.767  0.3726 -0.8665 -0.3948
  200MOL   H23648394   3.163   4.252   0.345 -1.8152 -0.0987  1.0091
  200MOL   H23748395   3.321   4.230   0.414 -0.6928 -0.7448  1.9626
  200MOL   H23848396   3.054   4.066   0.481 -0.0570 -0.5057 -1.0856
  200MOL   H23948397   2.947   4.203   0.449 -0.8536 -0.5602  0.6615
  200MOL   H24048398   2.978   4.150   0.615  1.5470  1.1874  0.6851
  200MOL   H24148399   3.178   4.352   0.766  0.5526 -0.7665 -1.9543
  200MOL   H24248400   3.101   4.344   0.589  1.7017  0.7497  0.8525
  201MOL     C148401   4.722   6.957   1.428 -0.6852 -0.7360  0.1577
  201MOL     C248402   4.679   6.974   1.575 -0.5307 -0.4592  0.3317
  201MOL     C348403   4.808   6.969   1.657  0.1969  1.0971 -0.1037
  201MOL     C448404   4.602   7.109   1.593 -0.0564  0.2393  0.2013
  201MOL     O548405   4.497   7.146   1.538 -0.1011  0.6282 -0.1583
  201MOL     O648406   4.672   7.195   1.667 -0.4407 -0.1110  0.1424
  201MOL     H748407   4.775   7.043   1.388 -0.0547  0.1443  2.8220
  201MOL     H848408   4.639   6.941   1.358  0.5786  1.5387 -1.9328
  201MOL     H948409   4.799   6.958   1.765  0.9291 -3.7496 -0.4309
  201MOL    H1048410   4.872   7.058   1.655 -1.2102  2.1223 -1.2171
  201MOL    H1148411   4.881   6.894   1.626 -1.1722 -0.7602  1.1163
  201MOL    H1248412   4.634   7.280   1.682  2.4797  1.1898  0.4356
  201MOL    H1348413   4.793   6.877   1.407  0.2426  0.6956 -2.3322
  201MOL    C1448414   4.593   6.854   1.620  0.4249  0.2037 -0.0261
  201MOL    C1548415   4.499   6.843   1.739  0.0993 -0.7733 -0.2713
  201MOL    C1648416   4.551   6.899   1.876  0.2461 -0.1288  0.1430
  201MOL    C1748417   4.359   6.903   1.700  0.1704 -0.3677 -0.3856
  201MOL    O1848418   4.301   6.989   1.766  0.0814  0.1837 -0.4294
  201MOL    O1948419   4.306   6.849   1.584 -0.3245  0.6917 -0.0693
  201MOL    H2048420   4.536   6.829   1.531  1.2253  2.4741 -1.2203
  201MOL    H2148421   4.667   6.774   1.620  1.4172  1.0916  0.9385
  201MOL    H2248422   4.606   6.987   1.842 -0.2737  0.9716  2.1233
  201MOL    H2348423   4.605   6.819   1.927  0.4601 -2.3559 -3.3843
  201MOL    H2448424   4.467   6.944   1.929 -0.6132  0.1608 -1.4083
  201MOL    H2548425   4.216   6.870   1.568 -0.4687  0.5637  0.5686
  201MOL    C2648426   4.472   6.696   1.763 -0.5715 -0.4556 -0.6397
  201MOL    C2748427   4.353   6.635   1.860  0.1169 -0.5058 -0.0862
  201MOL    C2848428   4.318   6.727   1.990 -0.5962  0.5700  0.1841
  201MOL    C2948429   4.224   6.612   1.777  0.2405 -0.6909 -0.6107
  201MOL    O3048430   4.115   6.655   1.817 -0.7148  0.1639 -0.0233
  201MOL    O3148431   4.243   6.555   1.657  0.3043  0.5674 -0.4835
  201MOL    H3248432   4.471   6.642   1.668  0.0574 -1.6758  0.0281
  201MOL    H3348433   4.559   6.656   1.814 -0.0134  0.8288 -0.5685
  201MOL    H3448434   4.244   6.682   2.055  1.4773 -1.1257  1.4527
  201MOL    H3548435   4.284   6.826   1.959 -1.9296  0.3690  0.9929
  201MOL    H3648436   4.410   6.736   2.048  0.6282 -2.5408 -1.1052
  201MOL    H3748437   4.158   6.535   1.621 -1.4775  1.5414  2.9481
  201MOL    C3848438   4.423   6.499   1.912  0.2558  0.0621 -0.8099
  201MOL    C3948439   4.348   6.380   1.986  0.2417 -1.0282 -0.5229
  201MOL    C4048440   4.256   6.431   2.104  0.4465 -0.2491  0.0276
  201MOL    C4148441   4.275   6.292   1.884 -0.4166 -0.4067  0.1384
  201MOL    O4248442   4.291   6.300   1.762 -0.2001 -0.1107  0.3204
  201MOL    O4348443   4.180   6.211   1.936 -0.0780 -0.3337 -0.2730
  201MOL    H4448444   4.484   6.454   1.833  1.4196  1.1706 -0.5698
  201MOL    H4548445   4.503   6.528   1.980  2.3113 -0.6760 -2.8472
  201MOL    H4648446   4.222   6.344   2.160  0.6157  1.0428  2.2026
  201MOL    H4748447   4.170   6.481   2.060 -2.2275 -3.8221  0.9668
  201MOL    H4848448   4.304   6.498   2.175  0.5906 -0.4505  0.1209
  201MOL    H4948449   4.150   6.138   1.883  0.3387 -1.1591  0.5948
  201MOL    C5048450   4.447   6.276   2.066 -0.3311  0.1910  0.2570
  201MOL    C5148451   4.589   6.237   2.004  0.0448 -0.2410  0.3498
  201MOL    C5248452   4.566   6.192   1.854 -0.4102  0.1009  0.3315
  201MOL    C5348453   4.702   6.339   2.000 -0.0759 -0.6385 -0.4874
  201MOL    O5448454   4.788   6.331   1.917 -0.4697 -1.0923 -0.7367
  201MOL    O5548455   4.707   6.433   2.105  0.0959 -0.3896 -0.2311
  201MOL    H5648456   4.466   6.334   2.157  2.7956 -0.9427  0.4115
  201MOL    H5748457   4.402   6.180   2.091  1.1871 -0.6034 -0.0015
  201MOL    H5848458   4.562   6.269   1.778 -0.1099 -1.3696 -1.2035
  201MOL    H5948459   4.478   6.129   1.837 -0.4551 -0.4122  2.3072
  201MOL    H6048460   4.646   6.131   1.813  0.4923  1.3886  0.1509
  201MOL    H6148461   4.782   6.490   2.092  1.8930 -2.4178  0.9437
  201MOL    C6248462   4.637   6.103   2.072 -0.5457 -0.5643  0.1768
  201MOL    C6348463   4.698   6.098   2.224  0.4000  0.3724  0.2523
  201MOL    C6448464   4.611   6.188   2.313 -0.3352 -0.1756 -0.0906
  201MOL    C6548465   4.671   5.949   2.268  0.3922 -0.7654  0.1416
  201MOL    O6648466   4.611   5.919   2.370 -0.5856  0.2406  0.6123
  201MOL    O6748467   4.747   5.864   2.192  0.6521 -0.1671  0.3466
  201MOL    H6848468   4.552   6.036   2.066 -0.3947 -0.7579  0.1751
  201MOL    H6948469   4.723   6.064   2.018  0.5939  2.0250  0.0016
  201MOL    H7048470   4.625   6.166   2.419 -0.5639  3.4491  0.7516
  201MOL    H7148471   4.508   6.153   2.304 -0.4217  0.4039 -1.4122
  201MOL    H7248472   4.609   6.296   2.301  0.4514 -0.1846 -0.3339
  201MOL    H7348473   4.768   5.784   2.238  2.1794 -0.3777 -0.6631
  201MOL    C7448474   4.851   6.134   2.225  0.3819  0.4863 -0.7593
  201MOL    C7548475   4.938   6.140   2.363  0.0340 -0.1323  0.0475
  201MOL    C7648476   4.939   6.286   2.414  0.7915 -0.0074 -0.2365
  201MOL    C7748477   4.884   6.057   2.479 -0.0666  0.0874  0.7360
  201MOL    O7848478   4.816   6.100   2.577 -0.3780  0.3911  0.0172
  201MOL    O7948479   4.917   5.930   2.467  0.5075  0.2282  0.5651
  201MOL    H8048480   4.887   6.060   2.154  0.8531 -0.3131  0.2933
  201MOL    H8148481   4.876   6.228   2.175  1.6195  0.6248  0.1137
  201MOL    H8248482   4.842   6.334   2.406  0.0307 -1.0793  2.1314
  201MOL    H8348483   4.991   6.360   2.353 -1.1409  0.9271 -0.8033
  201MOL    H8448484   4.968   6.302   2.518  0.4668  0.7190 -0.2564
  201MOL    H8548485   4.870   5.895   2.541 -0.4558  0.8095  0.2455
  201MOL    C8648486   5.069   6.086   2.313  1.0410 -0.0498  0.4073
  201MOL    C8748487   5.207   6.105   2.387 -0.1698  0.0677 -0.7983
  201MOL    C8848488   5.202   6.059   2.533  0.1288 -0.3982 -0.0966
  201MOL    C8948489   5.311   6.009   2.325 -0.1417 -0.5103 -0.8008
  201MOL    O9048490   5.294   5.951   2.219 -0.6127 -0.2353 -0.0986
  201MOL    O9148491   5.425   6.002   2.399 -0.0718 -0.3571  0.6805
  201MOL    H9248492   5.054   5.983   2.282 -0.7567 -0.0569  1.2604
  201MOL    H9348493   5.080   6.135   2.217 -1.3447  0.1168  0.1958
  201MOL    H9448494   5.183   5.952   2.547  2.3847 -0.5514  2.3423
  201MOL    H9548495   5.129   6.116   2.591  1.6651  0.2181  1.2743
  201MOL    H9648496   5.294   6.067   2.591  0.5018 -1.9461 -0.4527
  201MOL    H9748497   5.483   5.932   2.371 -1.0536 -0.5638 -0.8858
  201MOL    C9848498   5.273   6.251   2.401  0.0644  0.2444 -0.4809
  201MOL    C9948499   5.344   6.330   2.290 -0.8665 -0.4684  0.9652
  201MOL   C10048500   5.482   6.267   2.250 -0.2537 -0.0761 -0.4353
  201MOL   C10148501   5.263   6.329   2.158 -0.9962  0.1705  0.2737
  201MOL   O10248502   5.166   6.400   2.137 -0.1544 -0.0664  0.0590
  201MOL   O10348503   5.303   6.225   2.078 -0.3619 -0.5217  0.1237
  201MOL   H10448504   5.184   6.310   2.420 -0.5978  0.1080 -2.9109
  201MOL   H10548505   5.345   6.237   2.481  1.0787 -0.1911 -1.4428
  201MOL   H10648506   5.483   6.162   2.221  0.3993  0.0097 -0.7421
  201MOL   H10748507   5.554   6.263   2.332  0.6330  0.3090 -1.1769
  201MOL   H10848508   5.539   6.324   2.177  1.3885 -0.3049  0.6387
  201MOL   H10948509   5.253   6.221   1.997  0.0069  0.5925 -0.1639
  201MOL   C11048510   5.380   6.482   2.328 -0.3248 -0.5704  0.4313
  201MOL   C11148511   5.424   6.528   2.475 -0.3174  0.2739 -0.0049
  201MOL   C11248512   5.296   6.531   2.559 -0.3497 -0.5356 -0.0496
  201MOL   C11348513   5.522   6.430   2.542 -0.2347 -0.2742  0.3669
  201MOL   O11448514   5.494   6.368   2.644  0.2779  0.4869  0.0476
  201MOL   O11548515   5.639   6.420   2.484  0.3305  0.0759 -0.3820
  201MOL   H11648516   5.454   6.515   2.254 -0.9771  1.3538  0.6107
  201MOL   H11748517   5.299   6.540   2.284  0.3087  0.1361  0.1855
  201MOL   H11848518   5.213   6.591   2.521  1.0523  1.1300 -0.5420
  201MOL   H11948519   5.319   6.562   2.661  1.8868 -1.4078 -0.2678
  201MOL   H12048520   5.257   6.431   2.578  1.2662 -1.1303  0.1723
  201MOL   H12148521   5.698   6.375   2.542 -0.3598  0.6841  0.8170
  201MOL   C12248522   5.478   6.674   2.451  0.1040 -1.0128  0.4159
  201MOL   C12348523   5.556   6.758   2.557 -0.3402 -0.4643  0.4683
  201MOL   C12448524   5.491   6.752   2.701 -0.0606  0.4498 -0.4345
  201MOL   C12548525   5.705   6.703   2.570  0.0360  0.4950  0.5564
  201MOL   O12648526   5.752   6.665   2.677 -0.9552  0.1839  0.5064
  201MOL   O12748527   5.768   6.688   2.451 -0.1401  0.6028  0.0649
  201MOL   H12848528   5.538   6.683   2.360 -0.0856 -2.4695  0.1267
  201MOL   H12948529   5.392   6.735   2.425  0.2895 -1.3611 -1.0367
  201MOL   H13048530   5.527   6.836   2.760  0.3215 -0.0070 -0.0184
  201MOL   H13148531   5.508   6.667   2.766  0.0103  2.0630  1.7105
  201MOL   H13248532   5.384   6.767   2.687 -0.0176  1.1365 -0.0687
  201MOL   H13348533   5.855   6.656   2.467 -0.3477 -0.4268 -0.8125
  201MOL   C13448534   5.529   6.908   2.513 -0.0829  0.1686 -0.3304
  201MOL   C13548535   5.636   7.024   2.532 -1.0111  0.1475 -0.3089
  201MOL   C13648536   5.695   7.016   2.677 -0.2685 -0.0290  0.9382
  201MOL   C13748537   5.750   6.999   2.429 -0.0815  0.2829 -0.7545
  201MOL   O13848538   5.866   6.984   2.462  0.1762 -0.4244  0.2301
  201MOL   O13948539   5.711   6.998   2.301 -0.2132 -0.0266 -0.2629
  201MOL   H14048540   5.501   6.915   2.407 -0.0539 -2.8949 -0.5647
  201MOL   H14148541   5.441   6.945   2.565 -0.2228  0.5417 -0.8245
  201MOL   H14248542   5.752   7.106   2.701 -0.1531  0.1786 -0.0510
  201MOL   H14348543   5.749   6.927   2.707 -0.0108 -0.0397  0.4538
  201MOL   H14448544   5.619   7.024   2.754 -1.9716 -0.4733 -0.6500
  201MOL   H14548545   5.787   6.976   2.250  1.1182 -1.6139  2.3261
  201MOL   C14648546   5.557   7.156   2.495  0.2112  0.1393  0.3445
  201MOL   C14748547   5.595   7.296   2.547 -0.2994 -0.2151  0.5673
  201MOL   C14848548   5.746   7.326   2.525 -0.0467  0.0699  0.5317
  201MOL   C14948549   5.528   7.404   2.453  0.5695 -0.0002 -0.0315
  201MOL   O15048550   5.587   7.498   2.412 -0.0589 -0.5988  0.4025
  201MOL   O15148551   5.406   7.370   2.406 -0.4453 -0.3532 -0.1214
  201MOL   H15248552   5.543   7.166   2.387  0.6536 -1.8988  0.0802
  201MOL   H15348553   5.459   7.149   2.541 -0.8831  1.0188 -1.8033
  201MOL   H15448554   5.759   7.284   2.426 -2.7376  1.2079 -0.3523
  201MOL   H15548555   5.814   7.279   2.596  1.4143  0.6850 -0.4565
  201MOL   H15648556   5.785   7.427   2.523  0.3484 -0.0445  1.8511
  201MOL   H15748557   5.371   7.433   2.344  1.7858  0.7738 -0.2689
  201MOL   C15848558   5.538   7.321   2.691 -0.0938  0.8240  0.3331
  201MOL   C15948559   5.599   7.423   2.796 -0.1782 -0.1399  0.1802
  201MOL   C16048560   5.496   7.416   2.917  0.3978  0.2772  0.4406
  201MOL   C16148561   5.729   7.358   2.842  0.1075 -0.2685  0.0120
  201MOL   O16248562   5.736   7.264   2.922 -0.3574 -0.2793 -0.4117
  201MOL   O16348563   5.844   7.413   2.793  0.0473  0.1082  0.5350
  201MOL   H16448564   5.430   7.336   2.685 -0.3315 -0.2600  1.6591
  201MOL   H16548565   5.534   7.225   2.743  0.5197  0.6173  0.0040
  201MOL   H16648566   5.493   7.324   2.976  1.1834 -0.6365 -0.9052
  201MOL   H16748567   5.394   7.417   2.877  0.2878  0.5149  0.7268
  201MOL   H16848568   5.510   7.498   2.987  1.1898 -2.2130  3.3325
  201MOL   H16948569   5.914   7.357   2.822  1.9157  2.7960  1.3993
  201MOL   C17048570   5.610   7.567   2.739 -0.0230  0.1370  0.5335
  201MOL   C17148571   5.624   7.700   2.827  0.6621  0.3571  0.5058
  201MOL   C17248572   5.733   7.676   2.928 -0.2165 -0.0238 -0.3802
  201MOL   C17348573   5.678   0.049   2.734 -0.8311 -0.8218 -0.4409
  201MOL   O17448574   5.768   0.125   2.771 -0.0542  0.4367 -0.1499
  201MOL   O17548575   5.616   0.065   2.615  0.0281  0.0152 -0.2132
  201MOL   H17648576   5.702   7.563   2.681 -0.2950 -0.7376  0.1603
  201MOL   H17748577   5.525   7.590   2.674 -1.0175  1.1128  2.1223
  201MOL   H17848578   5.749   7.764   2.990 -2.2405 -0.2512  0.5030
  201MOL   H17948579   5.831   7.647   2.890  0.8683 -0.2093  2.4618
  201MOL   H18048580   5.694   7.605   3.000  1.7245  1.9371  2.6879
  201MOL   H18148581   5.665   0.122   2.558  0.3247 -0.0087  0.0125
  201MOL   C18248582   5.481   7.747   2.868 -0.4157 -0.1693  0.3407
  201MOL   C18348583   5.451   0.084   2.984 -0.1471 -0.1032  0.6019
  201MOL   C18448584   5.488   0.029   3.125 -0.0867  0.0573  0.4689
  201MOL   C18548585   5.534   0.210   2.963 -0.5833 -0.0452 -0.3985
  201MOL   O18648586   5.637   0.235   3.034  0.2773  0.3944 -0.1741
  201MOL   O18748587   5.489   0.281   2.852  0.2640 -0.2199  0.3306
  201MOL   H18848588   5.431   0.019   2.780  0.8551 -0.8804 -0.7150
  201MOL   H18948589   5.419   7.663   2.898 -0.5806 -0.9703 -2.1325
  201MOL   H19048590   5.596   0.019   3.133  0.2979  2.2287 -1.4197
  201MOL   H19148591   5.439   7.701   3.143 -0.5498  0.2080  0.0255
  201MOL   H19248592   5.475   0.093   3.212 -2.5183  1.5127 -0.9153
  201MOL   H19348593   5.541   0.357   2.833  0.4643 -0.1448  1.1392
  201MOL   C19448594   5.290   0.104   2.985  0.7932 -0.1089 -0.1271
  201MOL   C19548595   5.217   0.200   3.090 -0.6219  0.2157  0.3246
  201MOL   C19648596   5.307   0.323   3.133  0.1472  0.1012  0.1062
  201MOL   C19748597   5.092   0.255   3.011 -0.2990 -0.5027  0.2961
  201MOL   O19848598   5.094   0.374   2.969 -0.3506  0.4993 -0.4576
  201MOL   O19948599   4.994   0.162   2.990 -0.1812  0.1304  0.1573
  201MOL   H20048600   5.264   0.124   2.881  0.7851 -0.8977 -0.2747
  201MOL   H20148601   5.248   0.004   2.997  0.3265  0.2535  1.2784
  201MOL   H20248602   5.400   0.296   3.181 -0.8275  0.1119  2.0263
  201MOL   H20348603   5.268   0.392   3.207  0.8563 -0.6317  1.1725
  201MOL   H20448604   5.338   0.388   3.051  2.5704 -0.9344  0.1528
  201MOL   H20548605   4.922   0.194   2.937 -2.3650 -0.2883  2.7867
  201MOL   C20648606   5.176   0.099   3.213 -0.5067  0.6768  0.6244
  201MOL   C20748607   5.151   0.158   3.352 -0.0071  0.0855 -0.2517
  201MOL   C20848608   5.279   0.212   3.428  0.1916  0.1293 -0.6436
  201MOL   C20948609   5.039   0.266   3.347  0.3961  0.3014  0.2302
  201MOL   O21048610   5.058   0.379   3.386  0.0114 -0.0378 -0.1598
  201MOL   O21148611   4.920   0.219   3.296 -0.2047 -0.7208 -0.0366
  201MOL   H21248612   5.095   0.034   3.179  0.5526 -1.0970  1.4748
  201MOL   H21348613   5.251   0.022   3.229  0.5854  1.5279 -0.3813
  201MOL   H21448614   5.364   0.145   3.415  0.0321 -0.0717 -0.6644
  201MOL   H21548615   5.258   0.225   3.535 -2.3362  2.5108 -1.3621
  201MOL   H21648616   5.313   0.310   3.396  4.3923 -0.4569  1.6302
  201MOL   H21748617   4.861   0.286   3.265  2.1061  1.8359  0.8468
  201MOL   C21848618   5.085   0.045   3.447 -0.8338  0.1132 -0.2819
  201MOL   C21948619   5.155   7.686   3.512 -0.0203 -0.4670 -0.1959
  201MOL   C22048620   5.244   7.614   3.412 -0.2681  0.1966  0.3377
  201MOL   C22148621   5.235   7.728   3.637 -0.1605 -0.1735  0.2206
  201MOL   O22248622   5.356   7.706   3.655 -0.3078  0.6433  0.3122
  201MOL   O22348623   5.154   0.012   3.736  0.7242  0.6915 -0.8709
  201MOL   H22448624   5.038   0.097   3.531  1.1397 -0.4888  1.2379
  201MOL   H22548625   5.001   0.002   3.392 -1.1635  0.1950  0.1483
  201MOL   H22648626   5.297   7.528   3.452  1.4062  1.2451  0.4298
  201MOL   H22748627   5.336   7.668   3.391 -0.6149 -0.2129 -2.4085
  201MOL   H22848628   5.205   7.588   3.314  1.4232 -1.1006 -0.0107
  201MOL   H22948629   5.196   0.003   3.820  1.1207 -0.9391 -1.2237
  201MOL   C23048630   5.045   7.582   3.566  0.4293  0.1219  0.0760
  201MOL   C23148631   4.994   7.472   3.474  0.1077 -0.1092 -0.2234
  201MOL   C23248632   4.916   7.370   3.553  0.4386 -0.1731  0.8699
  201MOL   C23348633   4.907   7.522   3.360 -0.2174  0.0216 -0.4186
  201MOL   O23448634   4.923   7.489   3.242 -0.1095  0.3106  0.0845
  201MOL   O23548635   4.807   7.611   3.400  0.0061 -0.3496  0.2479
  201MOL   H23648636   5.072   7.533   3.660 -3.7840  0.0623  1.3323
  201MOL   H23748637   4.966   7.648   3.603 -0.2722 -1.3133  1.1733
  201MOL   H23848638   4.993   7.305   3.596  1.4312  1.8237  2.1591
  201MOL   H23948639   4.856   7.310   3.484 -0.4365  2.1671 -0.4510
  201MOL   H24048640   4.860   7.407   3.638  1.4115 -0.4065  1.6231
  201MOL   H24148641   4.769   7.650   3.323 -1.1755  0.2472  1.1238
  201MOL   H24248642   5.071   7.415   3.422 -1.1308 -1.6991 -0.3518
  202MOL     C148643   0.988   4.262   2.630 -0.0495 -0.2836  0.0818
  202MOL     C248644   0.836   4.284   2.653  0.4586 -0.5046 -0.3282
  202MOL     C348645   0.810   4.340   2.794  0.0152 -0.1291 -0.2996
  202MOL     C448646   0.784   4.389   2.553 -0.1802  0.9439 -0.5625
  202MOL     O548647   0.665   4.385   2.523  0.3322 -0.3374  0.3387
  202MOL     O648648   0.867   4.497   2.530 -0.0914 -0.2673  0.4436
  202MOL     H748649   1.019   4.178   2.693  0.9264 -0.2644 -0.3694
  202MOL     H848650   1.048   4.345   2.669 -0.2273 -0.7204  1.3302
  202MOL     H948651   0.878   4.296   2.867 -1.9618  1.3139  2.5430
  202MOL    H1048652   0.707   4.326   2.830  0.7754  0.8156  2.4048
  202MOL    H1148653   0.824   4.448   2.803 -1.2475  0.2057 -2.0769
  202MOL    H1248654   0.823   4.561   2.476  1.0570 -0.4715 -0.7697
  202MOL    H1348655   1.012   4.245   2.526  1.0634 -2.8985  0.7308
  202MOL    C1448656   0.749   4.151   2.659  0.4916  0.2675 -0.1725
  202MOL    C1548657   0.735   4.041   2.550  0.5426 -0.6946 -0.3506
  202MOL    C1648658   0.729   4.102   2.410  0.4093  1.2380 -0.0482
  202MOL    C1748659   0.857   3.948   2.564  0.2845 -0.2029 -0.2901
  202MOL    O1848660   0.930   3.911   2.471  0.4959 -0.3190 -0.2841
  202MOL    O1948661   0.866   3.894   2.691 -0.3821 -0.1299 -0.2222
  202MOL    H2048662   0.755   4.112   2.761 -1.7681 -1.0001 -0.5105
  202MOL    H2148663   0.651   4.198   2.665 -0.3243 -0.7681 -4.1105
  202MOL    H2248664   0.651   4.176   2.396  0.8277  1.6200 -0.4046
  202MOL    H2348665   0.714   4.019   2.340  0.1867  0.2976  1.1019
  202MOL    H2448666   0.819   4.156   2.378 -0.2372  1.0255 -2.3180
  202MOL    H2548667   0.932   3.827   2.701 -1.1784 -0.3926  4.2762
  202MOL    C2648668   0.609   3.937   2.570 -0.5902 -0.5367  0.2037
  202MOL    C2748669   0.455   3.974   2.566 -0.1342 -0.4252 -0.1481
  202MOL    C2848670   0.421   4.075   2.688 -0.2343 -0.0891  0.1343
  202MOL    C2948671   0.432   4.047   2.430 -0.0251  0.2515  0.3058
  202MOL    O3048672   0.397   4.162   2.420  0.6411 -0.1043 -0.4265
  202MOL    O3148673   0.439   3.971   2.322 -0.0091 -0.2700  0.5070
  202MOL    H3248674   0.621   3.865   2.490 -1.2044 -2.7516  2.0645
  202MOL    H3348675   0.616   3.885   2.665 -1.7646 -2.2205 -0.5967
  202MOL    H3448676   0.315   4.071   2.712 -0.6389 -2.5534 -1.8377
  202MOL    H3548677   0.439   4.179   2.661 -0.9993 -0.1232 -0.5321
  202MOL    H3648678   0.478   4.060   2.780  2.5425  0.2680 -1.4677
  202MOL    H3748679   0.437   4.021   2.242 -0.7532  1.9276  1.8631
  202MOL    C3848680   0.337   3.857   2.566  0.3432 -0.0343 -0.0008
  202MOL    C3948681   0.365   3.721   2.641  0.0758 -0.3256  0.0395
  202MOL    C4048682   0.486   3.647   2.579  0.3352 -0.2976 -0.1568
  202MOL    C4148683   0.382   3.744   2.796  0.5837 -0.0463  0.1471
  202MOL    O4248684   0.343   3.843   2.855  0.4902 -0.0212 -0.2854
  202MOL    O4348685   0.460   3.651   2.860  0.0904  0.5228 -0.2471
  202MOL    H4448686   0.251   3.912   2.602  1.8431  1.9550  0.6513
  202MOL    H4548687   0.310   3.833   2.464 -1.1343 -0.4236  0.4765
  202MOL    H4648688   0.580   3.680   2.623 -0.0584 -0.1844  0.6008
  202MOL    H4748689   0.510   3.661   2.473 -1.4024  1.6932 -0.3295
  202MOL    H4848690   0.477   3.539   2.589  0.5688 -0.3734 -0.7377
  202MOL    H4948691   0.436   3.662   2.950  0.6268  1.3135 -0.2040
  202MOL    C5048692   0.237   3.620   2.618  0.0896 -0.6763 -0.2549
  202MOL    C5148693   0.089   3.669   2.621  0.5902  0.5381 -0.6755
  202MOL    C5248694   0.061   3.743   2.756  0.3687 -0.1216  0.3702
  202MOL    C5348695   0.051   3.753   2.494 -0.1543 -0.4516  0.3193
  202MOL    O5448696   0.088   3.717   2.381  0.6126  0.1405 -0.0266
  202MOL    O5548697   7.760   3.874   2.526 -0.0798 -0.1418  0.1322
  202MOL    H5648698   0.249   3.581   2.517 -0.4224 -0.1051 -0.5445
  202MOL    H5748699   0.242   3.539   2.691 -2.7676 -1.9559 -1.3828
  202MOL    H5848700   0.082   3.698   2.853 -0.3372  2.4100  1.7340
  202MOL    H5948701   7.722   3.771   2.761  0.2629 -0.0589 -1.8032
  202MOL    H6048702   0.115   3.837   2.761  0.6738 -0.3813  2.2379
  202MOL    H6148703   7.738   3.930   2.453  0.2051 -1.1561 -0.7392
  202MOL    C6248704   0.011   3.529   2.622  0.2629 -0.2038  0.6868
  202MOL    C6348705   7.629   3.513   2.573  0.1393  0.0506 -0.3750
  202MOL    C6448706   7.626   3.515   2.421  0.8224  0.8099 -0.0104
  202MOL    C6548707   7.600   3.377   2.631 -1.0971  0.2206 -0.2064
  202MOL    O6648708   7.590   3.278   2.563 -0.0806 -0.0121 -0.1808
  202MOL    O6748709   7.569   3.377   2.761 -0.1804  0.4500 -0.4648
  202MOL    H6848710   0.072   3.456   2.568  0.1593 -0.8570  1.4411
  202MOL    H6948711   0.018   3.497   2.726 -0.8569  1.1310  1.1786
  202MOL    H7048712   7.541   3.462   2.377  0.3118  1.9790 -0.4526
  202MOL    H7148713   7.716   3.471   2.376 -0.3496 -0.4935 -1.1330
  202MOL    H7248714   7.629   3.614   2.377  0.5546  1.0790  0.5763
  202MOL    H7348715   7.531   3.293   2.784 -0.2469  0.5736 -0.1115
  202MOL    C7448716   7.519   3.619   2.626  1.1006  0.4706 -0.3286
  202MOL    C7548717   7.357   3.619   2.594 -0.3950 -0.4952 -0.3564
  202MOL    C7648718   7.328   3.735   2.497  0.2784  0.3917 -0.3547
  202MOL    C7748719   7.313   3.478   2.533  0.7137  0.1315 -0.9207
  202MOL    O7848720   7.289   3.374   2.600  0.0718 -0.2971 -0.0171
  202MOL    O7948721   7.280   3.489   2.403 -0.2615 -0.2899 -0.1794
  202MOL    H8048722   7.525   3.622   2.734 -2.6365 -2.2267  0.0374
  202MOL    H8148723   7.559   3.714   2.590  2.0230  0.5382  0.8442
  202MOL    H8248724   7.356   3.832   2.538 -2.4849  0.8948  0.4697
  202MOL    H8348725   7.222   3.748   2.477  0.0289 -0.5802  0.3203
  202MOL    H8448726   7.389   3.717   2.409 -1.8136 -0.6663 -1.6032
  202MOL    H8548727   7.286   3.579   2.376 -3.0249 -0.0158  0.0039
  202MOL    C8648728   7.280   3.645   2.735 -0.2361  0.1184 -0.0149
  202MOL    C8748729   7.128   3.693   2.753 -0.1210 -0.4167  0.7249
  202MOL    C8848730   7.125   3.844   2.734 -0.4618 -1.0857  0.2496
  202MOL    C8948731   7.030   3.633   2.650 -0.2195 -0.2030 -0.1847
  202MOL    O9048732   7.019   3.513   2.636  0.2457  0.3437 -0.3465
  202MOL    O9148733   6.956   3.717   2.586 -0.4691 -0.4975 -0.3055
  202MOL    H9248734   7.273   3.551   2.790  3.4447 -0.1445  0.1086
  202MOL    H9348735   7.345   3.703   2.800  1.0156 -0.6473 -0.5668
  202MOL    H9448736   7.185   3.900   2.806  0.4460 -1.2116 -0.3903
  202MOL    H9548737   7.026   3.888   2.731 -0.1766 -0.5852 -2.5447
  202MOL    H9648738   7.157   3.871   2.634 -3.8942 -0.7570 -0.7909
  202MOL    H9748739   6.899   3.676   2.523 -0.6707  0.7451 -0.9587
  202MOL    C9848740   7.068   3.655   2.891  0.4917  0.3815 -0.1733
  202MOL    C9948741   7.138   3.673   3.033  0.0888  0.1263  0.0286
  202MOL   C10048742   7.265   3.593   3.054  0.3164  0.1189  0.0470
  202MOL   C10148743   7.178   3.823   3.045 -0.0831 -0.5463  0.6366
  202MOL   O10248744   7.293   3.866   3.042 -0.4626 -0.0573 -0.0854
  202MOL   O10348745   7.070   3.908   3.037  0.2576  0.1141 -0.4684
  202MOL   H10448746   6.973   3.708   2.896 -0.3324 -1.0056 -0.8315
  202MOL   H10548747   7.046   3.549   2.889 -0.2856  0.4182  3.3635
  202MOL   H10648748   7.354   3.642   3.013  0.8188 -1.6001 -0.9860
  202MOL   H10748749   7.255   3.498   3.001 -0.0821  0.3971 -0.3785
  202MOL   H10848750   7.297   3.577   3.157  3.1759 -1.1070 -0.9833
  202MOL   H10948751   7.107   3.994   3.049  1.0893  0.1418 -2.9509
  202MOL   C11048752   7.034   3.649   3.148 -0.3016  0.2851  0.1416
  202MOL   C11148753   6.946   3.515   3.168 -0.1951  0.1401  0.0716
  202MOL   C11248754   7.021   3.387   3.122  0.3837 -0.2860 -0.9269
  202MOL   C11348755   6.924   3.508   3.320 -0.6203 -0.5431  0.8890
  202MOL   O11448756   6.987   3.426   3.385 -0.4473 -0.6308  0.3473
  202MOL   O11548757   6.848   3.607   3.366 -0.4701 -0.4173 -0.2573
  202MOL   H11648758   7.082   3.671   3.243  2.0280  0.5236 -1.0484
  202MOL   H11748759   6.955   3.722   3.139  1.9922  2.7115 -0.9722
  202MOL   H11848760   7.030   3.365   3.016 -0.4502 -2.0584 -0.6362
  202MOL   H11948761   6.972   3.300   3.166 -0.6217  0.9431  0.4584
  202MOL   H12048762   7.126   3.378   3.149  0.2493  0.4565 -0.1226
  202MOL   H12148763   6.836   3.594   3.459 -0.6657  0.6983 -0.1252
  202MOL   C12248764   6.816   3.529   3.085  0.1409  0.5785  0.3392
  202MOL   C12348765   6.707   3.416   3.065 -0.3806 -0.3689 -0.5913
  202MOL   C12448766   6.759   3.301   2.964 -0.5962  0.4342  0.2236
  202MOL   C12548767   6.669   3.357   3.203 -0.7674 -0.1966 -0.1412
  202MOL   O12648768   6.606   3.424   3.289 -0.5977 -0.3919  0.2869
  202MOL   O12748769   6.710   3.231   3.223  0.0124  0.6727  0.0313
  202MOL   H12848770   6.756   3.606   3.134 -0.6866 -1.6074  2.9201
  202MOL   H12948771   6.843   3.568   2.987 -0.5322 -0.4305 -0.2598
  202MOL   H13048772   6.836   3.242   3.014 -0.8717 -1.7051 -1.7782
  202MOL   H13148773   6.791   3.338   2.866 -0.5966  1.0131  0.4414
  202MOL   H13248774   6.681   3.228   2.940  1.9802 -1.8779 -1.3636
  202MOL   H13348775   6.689   3.202   3.311  1.9267 -1.4045 -0.1501
  202MOL   C13448776   6.576   3.496   3.018 -0.5831  0.5026  0.4275
  202MOL   C13548777   6.539   3.531   2.868 -0.2203  0.6794 -0.1021
  202MOL   C13648778   6.656   3.605   2.799 -0.1467  0.0706 -0.2151
  202MOL   C13748779   6.496   3.395   2.803  0.2352 -0.0760  0.5056
  202MOL   O13848780   6.408   3.323   2.854  0.2052 -0.1479 -0.0680
  202MOL   O13948781   6.559   3.371   2.686 -0.5248  0.5323  0.5222
  202MOL   H14048782   6.495   3.433   3.055  0.7909 -1.1608  0.6642
  202MOL   H14148783   6.568   3.576   3.091 -1.4630 -0.0089  0.9017
  202MOL   H14248784   6.671   3.697   2.855 -0.5600  0.6500 -1.0439
  202MOL   H14348785   6.640   3.637   2.695 -2.0660 -0.4851 -0.1164
  202MOL   H14448786   6.748   3.548   2.784  0.5939  0.6703  1.8686
  202MOL   H14548787   6.632   3.425   2.662 -0.5015  0.2593 -0.0196
  202MOL   C14648788   6.420   3.632   2.890  0.0433 -0.9811  0.4107
  202MOL   C14748789   6.319   3.668   2.770  0.1997  0.0054  0.0477
  202MOL   C14848790   6.359   3.639   2.621 -0.5087  0.9356  0.2773
  202MOL   C14948791   6.188   3.586   2.782 -0.0177 -0.3998 -0.3227
  202MOL   O15048792   6.177   3.496   2.858 -0.2485  0.7894  0.2093
  202MOL   O15148793   6.093   3.642   2.701  0.0924 -0.0365 -0.3373
  202MOL   H15248794   6.360   3.602   2.975 -1.4108  0.5978 -0.0270
  202MOL   H15348795   6.471   3.722   2.926  1.3628 -1.2218 -0.7907
  202MOL   H15448796   6.378   3.532   2.610 -1.6119  0.8934 -1.3954
  202MOL   H15548797   6.446   3.700   2.596 -1.0375  1.2768 -0.7652
  202MOL   H15648798   6.283   3.659   2.545 -0.7212 -0.5738  0.0760
  202MOL   H15748799   6.011   3.595   2.704 -0.0897  0.1380 -1.9464
  202MOL   C15848800   6.295   3.828   2.769 -0.3347  0.8771 -0.0685
  202MOL   C15948801   6.233   3.922   2.883 -0.0939 -0.4221  0.2672
  202MOL   C16048802   6.085   3.869   2.908 -0.8567  0.1093 -0.9041
  202MOL   C16148803   6.309   3.911   3.014  0.5184  0.4162  0.3358
  202MOL   O16248804   6.265   3.842   3.111 -0.2528 -0.5945 -0.2785
  202MOL   O16348805   6.432   3.966   3.004 -0.0123 -0.2144  0.3978
  202MOL   H16448806   6.385   3.880   2.736  0.3024 -0.1339  0.0730
  202MOL   H16548807   6.223   3.836   2.688  0.2131 -2.4205 -0.9343
  202MOL   H16648808   6.018   3.866   2.823 -1.1766  0.7135 -0.6767
  202MOL   H16748809   6.042   3.929   2.989 -0.3237 -2.7278  1.5819
  202MOL   H16848810   6.084   3.770   2.954  1.3846  0.8115  0.7447
  202MOL   H16948811   6.482   3.968   3.084 -0.0871  0.3692  0.4303
  202MOL   C17048812   6.235   4.068   2.829 -0.7581  0.0939 -0.1165
  202MOL   C17148813   6.156   4.198   2.868  0.1742  0.3139 -0.8725
  202MOL   C17248814   6.050   4.216   2.760 -0.6807  0.3301 -0.0220
  202MOL   C17348815   6.099   4.192   3.014  0.8289  0.4612 -0.3617
  202MOL   O17448816   5.980   4.177   3.041  0.7525 -0.1543 -0.0259
  202MOL   O17548817   6.192   4.198   3.108 -0.2925 -0.2088 -0.2752
  202MOL   H17648818   6.339   4.097   2.844 -0.5128 -0.7238 -0.2147
  202MOL   H17748819   6.230   4.061   2.720  2.0696  1.9265 -0.4358
  202MOL   H17848820   5.984   4.129   2.755  2.0304 -1.8100  0.2359
  202MOL   H17948821   6.097   4.226   2.662  1.6248 -3.0638  0.6533
  202MOL   H18048822   5.983   4.299   2.784 -0.8046 -0.4643  2.5346
  202MOL   H18148823   6.152   4.205   3.194 -0.1974 -2.8883  0.0270
  202MOL   C18248824   6.267   4.313   2.855  0.3347  0.0738  0.0465
  202MOL   C18348825   6.242   4.470   2.861  0.5117 -0.5613 -0.1847
  202MOL   C18448826   6.184   4.497   2.720  0.2095  0.0876  0.4906
  202MOL   C18548827   6.136   4.527   2.961  0.1279  0.5901 -0.3743
  202MOL   O18648828   6.167   4.566   3.076 -0.7062 -0.0771  0.2759
  202MOL   O18748829   6.002   4.503   2.920 -0.1507  0.1286 -0.1176
  202MOL   H18848830   6.329   4.296   2.943 -0.1899 -0.3116  0.3446
  202MOL   H18948831   6.327   4.296   2.765 -1.4087  0.0995 -1.1559
  202MOL   H19048832   6.179   4.604   2.696  0.4783  0.3846  1.7135
  202MOL   H19148833   6.093   4.441   2.703  1.9264 -2.7772  0.5175
  202MOL   H19248834   6.237   4.451   2.636  0.0110 -0.0717  0.4535
  202MOL   H19348835   5.943   4.527   2.989 -1.9659 -0.6030 -1.3699
  202MOL   C19448836   6.384   4.528   2.895  0.0979  0.0606 -0.4735
  202MOL   C19548837   6.434   4.672   2.840 -0.8174  0.0537  0.0024
  202MOL   C19648838   6.325   4.779   2.866 -0.2757 -0.0151 -0.4903
  202MOL   C19748839   6.557   4.703   2.929  0.5146  0.2480  0.1898
  202MOL   O19848840   6.671   4.715   2.888  0.5429 -0.2921  0.0686
  202MOL   O19948841   6.529   4.730   3.062 -0.3772 -0.2499 -0.0316
  202MOL   H20048842   6.392   4.532   3.004  1.8563 -0.4267 -0.5586
  202MOL   H20148843   6.466   4.465   2.860  0.2549 -0.9646  1.6570
  202MOL   H20248844   6.283   4.781   2.967 -0.4735 -1.8473 -0.5191
  202MOL   H20348845   6.237   4.777   2.802  0.7550  1.5892 -1.9962
  202MOL   H20448846   6.367   4.877   2.844  1.0277 -0.3601  0.4085
  202MOL   H20548847   6.609   4.748   3.110 -1.5577  1.8365  1.2628
  202MOL   C20648848   6.477   4.642   2.689 -0.3252 -0.4224 -0.1174
  202MOL   C20748849   6.493   4.758   2.575 -0.0568 -0.0794  0.0956
  202MOL   C20848850   6.498   4.681   2.442 -0.7257 -1.0379  0.0503
  202MOL   C20948851   6.363   4.850   2.573 -0.2369 -0.0333 -0.4274
  202MOL   O21048852   6.360   4.970   2.603 -0.7137  0.9231  0.5431
  202MOL   O21148853   6.246   4.786   2.526  0.3199 -0.1767  0.4847
  202MOL   H21248854   6.570   4.586   2.687  0.0940  0.2613  0.0835
  202MOL   H21348855   6.408   4.570   2.645  0.2357 -0.7355 -0.4934
  202MOL   H21448856   6.585   4.616   2.442 -0.0899 -0.2232 -1.2710
  202MOL   H21548857   6.509   4.744   2.353 -3.8405 -1.1490 -0.4650
  202MOL   H21648858   6.412   4.617   2.424 -2.3640  0.8325  1.0152
  202MOL   H21748859   6.177   4.850   2.530  1.3874  0.9651  0.8777
  202MOL   C21848860   6.622   4.852   2.605  1.0468  0.1137  0.2194
  202MOL   C21948861   6.695   4.953   2.511  0.0566  0.0629  0.9760
  202MOL   C22048862   6.818   4.882   2.458 -0.2325 -0.4439  0.4545
  202MOL   C22148863   6.616   5.013   2.387  0.0683  0.6370  0.3797
  202MOL   O22248864   6.582   5.126   2.385 -0.0196  0.7613 -0.5777
  202MOL   O22348865   6.614   4.932   2.277 -0.0871 -0.0564  0.2344
  202MOL   H22448866   6.592   4.905   2.696  2.0262 -0.3499  0.8231
  202MOL   H22548867   6.699   4.789   2.650  0.0339 -0.4064  1.2211
  202MOL   H22648868   6.860   4.945   2.379 -1.1463 -0.1613  0.1821
  202MOL   H22748869   6.806   4.787   2.406 -0.2742  0.8115 -1.9122
  202MOL   H22848870   6.900   4.852   2.522 -0.1029 -2.4166 -0.5975
  202MOL   H22948871   6.563   4.960   2.203  1.4124 -2.2131 -1.6887
  202MOL   C23048872   6.755   5.060   2.608 -0.3755 -0.3723 -0.1119
  202MOL   C23148873   6.867   5.162   2.573 -0.4492 -0.2844  0.5121
  202MOL   C23248874   7.012   5.108   2.587  0.8479 -0.2845  0.3095
  202MOL   C23348875   6.854   5.251   2.452 -0.6523  0.3460 -0.0906
  202MOL   O23448876   6.912   5.225   2.347  0.1627  0.2927 -0.3964
  202MOL   O23548877   6.792   5.368   2.476  0.1784  0.0216  0.7361
  202MOL   H23648878   6.675   5.115   2.657 -0.6037 -0.9684  0.1846
  202MOL   H23748879   6.788   5.003   2.695  2.1061 -1.0176 -1.4195
  202MOL   H23848880   7.056   5.045   2.510 -0.1337 -0.0945 -0.4151
  202MOL   H23948881   7.011   5.043   2.675 -2.5257 -0.5274  0.1840
  202MOL   H24048882   7.095   5.176   2.607  1.2632 -0.5431 -0.5356
  202MOL   H24148883   6.788   5.404   2.389 -0.5991 -0.8352  0.4076
  202MOL   H24248884   6.867   5.233   2.656  0.0867 -0.5947  0.7812
  203MOL     C148885   2.160   2.125   1.738 -0.1213 -0.5299 -0.1054
  203MOL     C248886   2.179   2.122   1.893 -0.1457 -0.5520  0.2959
  203MOL     C348887   2.301   2.028   1.928 -0.4024 -0.6658  0.4334
  203MOL     C448888   2.211   2.263   1.948  0.1429 -0.2330 -0.4287
  203MOL     O548889   2.211   2.363   1.881 -0.5176  0.0275  0.5243
  203MOL     O648890   2.227   2.261   2.079 -0.2203 -0.2062 -0.6328
  203MOL     H748891   2.251   2.138   1.679  0.3996 -3.7878 -0.1183
  203MOL     H848892   2.082   2.193   1.704 -0.7695 -1.9678 -1.5637
  203MOL     H948893   2.311   1.946   1.857 -2.9127 -1.1908  0.6409
  203MOL    H1048894   2.291   1.987   2.028 -1.5380 -1.8222 -0.1411
  203MOL    H1148895   2.395   2.083   1.919 -0.6757 -0.2757 -0.0930
  203MOL    H1248896   2.231   2.350   2.109  2.1814 -0.6124  0.3774
  203MOL    H1348897   2.129   2.029   1.696 -1.3344  0.2965 -1.1310
  203MOL    C1448898   2.057   2.052   1.966  0.2166 -0.1383 -0.7317
  203MOL    C1548899   1.906   2.087   1.956  1.3366 -0.7597 -0.6968
  203MOL    C1648900   1.842   2.032   2.088  0.3688 -0.0873  0.5753
  203MOL    C1748901   1.873   2.240   1.957  0.2943 -0.0124  0.4982
  203MOL    O1848902   1.830   2.304   1.866 -0.0955 -0.1252  0.1475
  203MOL    O1948903   1.899   2.291   2.078 -0.4256 -0.2665  0.7128
  203MOL    H2048904   2.066   1.944   1.959 -2.9306 -0.5709  0.7391
  203MOL    H2148905   2.075   2.074   2.071 -0.5780  0.4702 -0.7154
  203MOL    H2248906   1.853   1.924   2.093 -0.8512 -0.2789 -0.5830
  203MOL    H2348907   1.746   2.079   2.112  0.1357 -0.1963 -0.1362
  203MOL    H2448908   1.895   2.069   2.176 -1.1597 -4.3185  3.4172
  203MOL    H2548909   1.890   2.385   2.091  2.1686  0.3416 -1.5956
  203MOL    C2648910   1.855   2.003   1.830  0.0917 -0.1273  0.2413
  203MOL    C2748911   1.701   1.976   1.779  0.4360 -0.4577 -0.3146
  203MOL    C2848912   1.723   1.881   1.659 -0.0417  0.0801 -0.4097
  203MOL    C2948913   1.627   1.899   1.891 -0.0939  0.0861 -0.0049
  203MOL    O3048914   1.544   1.945   1.962 -0.5683  0.0727  0.2094
  203MOL    O3148915   1.656   1.765   1.896 -0.0290  0.1116 -1.0669
  203MOL    H3248916   1.910   2.037   1.742  1.9430 -1.1699  0.9590
  203MOL    H3348917   1.891   1.900   1.840  1.7096  0.4853  0.9918
  203MOL    H3448918   1.631   1.885   1.601 -0.7754  0.1012  0.7551
  203MOL    H3548919   1.747   1.776   1.677 -1.6675 -0.2869 -0.3469
  203MOL    H3648920   1.804   1.919   1.596  0.7395 -1.7261 -0.5122
  203MOL    H3748921   1.595   1.709   1.942  0.1079  2.3039  1.9408
  203MOL    C3848922   1.633   2.117   1.735 -0.2137 -0.1449 -0.0293
  203MOL    C3948923   1.517   2.123   1.627  0.3376 -0.0534 -0.0780
  203MOL    C4048924   1.575   2.097   1.488 -0.5541  0.1861 -0.1754
  203MOL    C4148925   1.396   2.028   1.662 -0.8437  0.3519 -0.4419
  203MOL    O4248926   1.342   1.944   1.589  0.4266  0.4361  0.2509
  203MOL    O4348927   1.330   2.070   1.776  0.3444 -0.3745  0.1940
  203MOL    H4448928   1.593   2.162   1.826  3.0931  2.4991  0.1998
  203MOL    H4548929   1.711   2.182   1.698  1.0590 -1.2015  0.7124
  203MOL    H4648930   1.681   2.073   1.498 -0.2542  2.2062  2.1852
  203MOL    H4748931   1.576   2.183   1.420 -1.9443  1.1724  1.0041
  203MOL    H4848932   1.532   2.014   1.432 -1.8269 -1.3789  3.0018
  203MOL    H4948933   1.245   2.030   1.774  0.3962 -0.4895  0.3032
  203MOL    C5048934   1.470   2.276   1.637 -0.2485  0.6674  0.8121
  203MOL    C5148935   1.349   2.335   1.556  0.6270 -0.6188 -0.4096
  203MOL    C5248936   1.404   2.475   1.506 -0.4644 -0.8292  0.0791
  203MOL    C5348937   1.301   2.254   1.437 -0.8687 -0.5601 -0.1459
  203MOL    O5448938   1.198   2.190   1.437  0.5452  0.1016 -0.1155
  203MOL    O5548939   1.378   2.262   1.316  0.3112 -0.1702  0.5227
  203MOL    H5648940   1.454   2.293   1.743 -0.1302  1.2384  0.7397
  203MOL    H5748941   1.557   2.336   1.610 -0.3829  0.4089 -0.2268
  203MOL    H5848942   1.435   2.541   1.586  0.4973 -0.6475 -0.4340
  203MOL    H5948943   1.340   2.534   1.441 -1.7657 -1.6177  0.6229
  203MOL    H6048944   1.497   2.468   1.449 -1.1889 -1.4794 -1.0595
  203MOL    H6148945   1.326   2.230   1.244 -1.4068  0.8399  1.2892
  203MOL    C6248946   1.233   2.354   1.661  0.1374  0.2497 -0.1406
  203MOL    C6348947   1.090   2.421   1.633 -0.0953  0.5602  0.0770
  203MOL    C6448948   1.089   2.515   1.512  0.1724  0.5523  0.0563
  203MOL    C6548949   0.981   2.311   1.606  0.2640 -0.3590 -0.5159
  203MOL    O6648950   0.973   2.209   1.674  0.2054  0.6503 -0.7767
  203MOL    O6748951   0.887   2.346   1.519 -0.4208 -0.5342  0.6145
  203MOL    H6848952   1.212   2.252   1.693  1.8476 -0.5192 -1.4031
  203MOL    H6948953   1.272   2.407   1.749 -2.5119 -0.6707  1.6556
  203MOL    H7048954   0.996   2.558   1.475  0.0164 -1.2860 -1.7765
  203MOL    H7148955   1.130   2.475   1.419 -4.4142 -2.7780 -0.6801
  203MOL    H7248956   1.151   2.602   1.537 -0.6032  0.8258  1.0454
  203MOL    H7348957   0.821   2.281   1.502  0.4726 -1.5713  1.1030
  203MOL    C7448958   1.064   2.501   1.764 -0.3763  0.0656 -0.0573
  203MOL    C7548959   0.921   2.576   1.809 -0.4309 -0.3590 -0.1512
  203MOL    C7648960   0.885   2.683   1.711 -0.6513 -0.2451 -0.2195
  203MOL    C7748961   0.809   2.464   1.812  0.9177  0.2490 -0.2023
  203MOL    O7848962   0.701   2.472   1.751 -0.3970 -0.0462 -0.3898
  203MOL    O7948963   0.823   2.370   1.914  0.1620 -0.2923 -0.3930
  203MOL    H8048964   1.104   2.450   1.852  0.1427 -0.3926 -0.5540
  203MOL    H8148965   1.139   2.581   1.762  1.5441 -1.7034 -1.0725
  203MOL    H8248966   0.859   2.640   1.615 -1.3249  1.8087 -0.9737
  203MOL    H8348967   0.970   2.751   1.707  0.4436 -1.3526  2.7492
  203MOL    H8448968   0.798   2.739   1.745 -0.7359 -0.5819  0.1221
  203MOL    H8548969   0.736   2.333   1.907 -0.6330  1.7144 -1.5790
  203MOL    C8648970   0.933   2.638   1.947  0.2399  0.4940 -0.3001
  203MOL    C8748971   0.840   2.731   2.022  0.8678 -0.2881 -0.7396
  203MOL    C8848972   0.878   2.874   1.973 -0.3851 -0.0895  0.2229
  203MOL    C8948973   0.690   2.700   1.988 -0.4245 -0.4538  0.2564
  203MOL    O9048974   0.619   2.759   1.913  0.3859 -0.6467  0.0698
  203MOL    O9148975   0.656   2.587   2.051  0.0672 -0.6881 -0.1812
  203MOL    H9248976   0.946   2.549   2.008 -1.5772 -0.0401 -0.6752
  203MOL    H9348977   1.033   2.681   1.939  0.6400 -0.4487 -0.3989
  203MOL    H9448978   0.891   2.882   1.865 -0.5699 -0.7099  0.1515
  203MOL    H9548979   0.966   2.923   2.015  0.3062 -0.3481 -0.9089
  203MOL    H9648980   0.798   2.943   2.000  0.9986  0.6950  2.5280
  203MOL    H9748981   0.567   2.560   2.034  0.0512  0.2652 -1.7065
  203MOL    C9848982   0.872   2.721   2.178  0.2389  0.1942 -0.0169
  203MOL    C9948983   0.815   2.812   2.295 -0.4055 -0.2694  0.6574
  203MOL   C10048984   0.899   2.938   2.294  0.4116  0.7450 -0.0694
  203MOL   C10148985   0.668   2.847   2.265 -0.3858 -0.0650  0.1239
  203MOL   O10248986   0.579   2.771   2.293  0.2940 -0.1236  0.2112
  203MOL   O10348987   0.650   2.964   2.195 -0.4538 -0.0143 -0.4137
  203MOL   H10448988   0.853   2.615   2.196  0.7492  0.0273 -0.4784
  203MOL   H10548989   0.979   2.711   2.196  0.4314 -0.1450 -1.3080
  203MOL   H10648990   0.876   3.012   2.371 -1.5308  0.9430 -0.8201
  203MOL   H10748991   0.886   2.990   2.199  0.7154 -0.4563 -0.7839
  203MOL   H10848992   1.006   2.920   2.307  0.0739 -0.8572  0.5425
  203MOL   H10948993   0.734   3.005   2.193 -0.2848 -0.3519 -0.2681
  203MOL   C11048994   0.840   2.731   2.428 -0.0162  0.5491  0.3751
  203MOL   C11148995   0.810   2.790   2.576 -0.5402 -0.6124 -0.2614
  203MOL   C11248996   0.927   2.887   2.615  0.1031 -0.0939  0.5320
  203MOL   C11348997   0.677   2.871   2.586  0.2976 -0.0650 -0.3186
  203MOL   O11448998   0.670   2.992   2.575  0.0708 -0.3617 -0.0748
  203MOL   O11548999   0.571   2.787   2.583 -0.0650  0.2821  0.2289
  203MOL   H11649000   0.780   2.640   2.420 -0.9769  1.2636 -0.6065
  203MOL   H11749001   0.943   2.694   2.426  0.4769  1.9656 -0.9718
  203MOL   H11849002   0.966   2.963   2.548  2.9488 -0.3953  1.7796
  203MOL   H11949003   1.019   2.833   2.635  0.4316  0.5405  0.7388
  203MOL   H12049004   0.910   2.951   2.701  0.2136  0.2182  0.3208
  203MOL   H12149005   0.492   2.838   2.575  0.0856  0.7468  1.5539
  203MOL   C12249006   0.826   2.653   2.665  0.5152  0.3668 -0.8025
  203MOL   C12349007   0.810   2.640   2.824 -0.2957  0.2237  0.1725
  203MOL   C12449008   0.925   2.709   2.894 -0.6160 -0.0379  0.2896
  203MOL   C12549009   0.674   2.699   2.872 -0.1381 -0.1107 -0.2478
  203MOL   O12649010   0.568   2.636   2.889 -0.4340  0.3283 -0.0327
  203MOL   O12749011   0.687   2.831   2.900  0.0606  0.1529  0.2661
  203MOL   H12849012   0.765   2.580   2.614  0.2735  1.2884 -1.8563
  203MOL   H12949013   0.925   2.614   2.643 -0.7678 -3.4840 -0.0519
  203MOL   H13049014   0.939   2.813   2.863  1.0053 -0.7913 -1.6011
  203MOL   H13149015   1.017   2.652   2.882  0.5160  2.1753 -1.8841
  203MOL   H13249016   0.904   2.703   3.001 -1.0671  1.6001  0.3030
  203MOL   H13349017   0.610   2.878   2.928  1.1628  2.8169 -1.0344
  203MOL   C13449018   0.796   2.484   2.865 -1.0271 -0.4076  0.0014
  203MOL   C13549019   0.915   2.387   2.879 -0.0321  0.8360 -0.1302
  203MOL   C13649020   1.004   2.386   2.745 -0.3813 -0.2217  0.4824
  203MOL   C13749021   1.006   2.425   2.999 -0.4039 -0.4248 -0.3316
  203MOL   O13849022   1.131   2.420   2.997  0.6508  0.1492 -0.4474
  203MOL   O13949023   0.938   2.486   3.101  0.0884 -0.5929 -0.3485
  203MOL   H14049024   0.745   2.477   2.961 -0.8850  1.1335  0.2100
  203MOL   H14149025   0.733   2.455   2.781  1.4473  0.2965 -2.1849
  203MOL   H14249026   1.082   2.311   2.760 -0.8723 -0.7853  0.2548
  203MOL   H14349027   1.055   2.482   2.741 -0.3783 -0.2373  0.1573
  203MOL   H14449028   0.943   2.364   2.657  1.0136  0.8033 -0.7727
  203MOL   H14549029   0.993   2.506   3.175  0.4230  0.9408 -0.9858
  203MOL   C14649030   0.857   2.234   2.890  0.5985  0.2482 -0.0929
  203MOL   C14749031   0.762   2.176   3.008  0.5797 -0.3085  1.0908
  203MOL   C14849032   0.830   2.192   3.139 -0.0009  0.2649 -0.6311
  203MOL   C14949033   0.625   2.250   3.013 -0.2362  0.0799 -0.1072
  203MOL   O15049034   0.556   2.255   3.116  0.2352 -0.1493  0.2166
  203MOL   O15149035   0.590   2.291   2.891 -0.0921 -0.3519  0.2995
  203MOL   H15249036   0.816   2.222   2.790  0.0359  0.6165  0.0885
  203MOL   H15349037   0.944   2.169   2.898 -2.1987 -3.4693  1.7990
  203MOL   H15449038   0.929   2.148   3.152 -0.1156 -0.1008 -1.0115
  203MOL   H15549039   0.773   2.151   3.222 -0.1661  0.6811 -0.5337
  203MOL   H15649040   0.844   2.298   3.164  1.4494  0.2337 -1.2854
  203MOL   H15749041   0.502   2.324   2.879 -0.1524 -0.5736  0.1233
  203MOL   C15849042   0.735   2.019   2.989 -0.0597  0.0058 -0.6520
  203MOL   C15949043   0.699   1.943   2.857 -1.2711 -0.6460 -0.1680
  203MOL   C16049044   0.597   2.007   2.767 -0.0369  0.4374 -0.6812
  203MOL   C16149045   0.832   1.923   2.774 -0.1955  0.3973  0.3806
  203MOL   O16249046   0.835   1.921   2.648 -0.2828 -0.8375  0.4696
  203MOL   O16349047   0.948   1.909   2.848  0.1951  0.1209  0.2784
  203MOL   H16449048   0.814   1.966   3.041 -1.8363 -0.9890  1.0957
  203MOL   H16549049   0.655   2.002   3.060  0.0475  1.2555 -0.2149
  203MOL   H16649050   0.572   1.959   2.673  0.2488  0.7298 -0.9088
  203MOL   H16749051   0.639   2.104   2.737  0.5434  0.1339 -0.8476
  203MOL   H16849052   0.503   2.024   2.819  1.4266 -0.5896  2.4019
  203MOL   H16949053   1.019   1.928   2.789  1.5384 -2.8901  0.8310
  203MOL   C17049054   0.650   1.801   2.900  0.6004 -0.3895 -0.3149
  203MOL   C17149055   0.502   1.772   2.938  0.2036 -0.1565  0.8199
  203MOL   C17249056   0.455   1.854   3.057  0.1041 -0.0483  0.4428
  203MOL   C17349057   0.405   1.781   2.821  0.0566  1.0452  0.2589
  203MOL   O17449058   0.433   1.716   2.714 -0.2783 -0.0888 -0.0633
  203MOL   O17549059   0.300   1.868   2.830  0.5502  0.7134 -0.1963
  203MOL   H17649060   0.675   1.726   2.825  3.0744 -0.4555  0.5504
  203MOL   H17749061   0.707   1.769   2.987 -0.8278  1.2446  1.2833
  203MOL   H17849062   0.468   1.961   3.040  2.6858 -0.6112 -1.3192
  203MOL   H17949063   0.505   1.820   3.147  1.8966  2.5165  0.4807
  203MOL   H18049064   0.349   1.830   3.066  0.5239 -1.4351  1.9323
  203MOL   H18149065   0.260   1.873   2.745  0.7987  4.1143 -0.1964
  203MOL   C18249066   0.500   1.616   2.977 -0.4497 -0.1182  0.5035
  203MOL   C18349067   0.389   1.539   3.059 -0.6557 -0.5256  0.0341
  203MOL   C18449068   0.420   1.385   3.028  0.7475 -0.6473  0.5949
  203MOL   C18549069   0.414   1.552   3.210  0.3368  0.8249 -0.2915
  203MOL   O18649070   0.503   1.489   3.267 -0.2640 -0.0540 -0.5143
  203MOL   O18749071   0.331   1.645   3.269 -0.4995 -1.0755 -0.3660
  203MOL   H18849072   0.503   1.564   2.882 -2.0323  1.4146 -0.3998
  203MOL   H18949073   0.592   1.586   3.028  0.7377  0.3839 -1.2993
  203MOL   H19049074   0.382   1.351   2.931  0.9321 -0.0247  0.3042
  203MOL   H19149075   0.373   1.314   3.096  0.2224  1.3933  2.4130
  203MOL   H19249076   0.525   1.356   3.025  0.9492  0.1772 -1.1533
  203MOL   H19349077   0.336   1.637   3.363 -1.2349  1.3046 -0.0940
  203MOL   C19449078   0.242   1.576   3.005 -0.3149  0.2885  0.0867
  203MOL   C19549079   0.108   1.515   3.053 -0.1542 -0.6315  0.6796
  203MOL   C19649080   0.129   1.362   3.094 -0.4544 -0.3377  0.0899
  203MOL   C19749081   0.051   1.580   3.183  0.3680  0.1419  0.4076
  203MOL   O19849082   0.046   1.518   3.293 -0.4927  0.4480 -0.1967
  203MOL   O19949083   0.034   1.714   3.172  0.0338  0.0091  0.1560
  203MOL   H20049084   0.235   1.684   3.020 -1.7900  0.6479 -2.9620
  203MOL   H20149085   0.262   1.565   2.899 -0.4847 -1.8474  0.2479
  203MOL   H20249086   0.196   1.346   3.178  0.7614  0.0692 -0.8011
  203MOL   H20349087   0.161   1.297   3.012  0.5176 -1.2417  1.1732
  203MOL   H20449088   0.031   1.327   3.129  0.2095 -1.1687  1.1345
  203MOL   H20549089   0.005   1.759   3.250 -1.0656 -0.2815 -0.0710
  203MOL   C20649090   0.006   1.550   2.935  0.9740  0.5148  0.4313
  203MOL   C20749091   7.723   1.446   2.836 -0.0093 -0.1409 -0.1485
  203MOL   C20849092   0.077   1.394   2.753  0.3043 -0.3258  0.1945
  203MOL   C20949093   7.645   1.328   2.906 -0.0135 -0.3445  0.3511
  203MOL   O21049094   7.669   1.213   2.887 -0.2001 -0.0640  0.4942
  203MOL   O21149095   7.551   1.372   2.998 -0.4191 -0.4802  0.3293
  203MOL   H21249096   7.682   1.588   2.982  0.7896  2.2605 -1.2553
  203MOL   H21349097   0.042   1.641   2.886 -0.1998  0.3363 -0.7905
  203MOL   H21449098   0.120   1.301   2.791 -1.1648 -1.4470 -0.8277
  203MOL   H21549099   0.157   1.464   2.731 -0.0419  0.1704  0.5200
  203MOL   H21649100   0.040   1.363   2.655 -0.2298  2.2538 -0.4546
  203MOL   H21749101   7.514   1.292   3.033  0.6422 -2.7980 -3.5388
  203MOL   C21849102   7.610   1.514   2.743  0.2095 -0.1100  0.3945
  203MOL   C21949103   7.630   1.647   2.667  0.0916  0.1165 -0.3555
  203MOL   C22049104   7.534   1.635   2.543  0.8509  0.8599 -0.7048
  203MOL   C22149105   7.579   1.763   2.759 -0.4043  0.0315 -0.0386
  203MOL   O22249106   7.660   1.818   2.829 -0.0104 -0.0098  0.0162
  203MOL   O22349107   7.448   1.780   2.757 -0.2679  0.1557  0.4632
  203MOL   H22449108   7.590   1.442   2.663 -1.3496  0.9900 -0.2326
  203MOL   H22549109   7.524   1.525   2.808  0.8274 -1.5253  1.4695
  203MOL   H22649110   7.525   1.733   2.495 -3.9679  0.6953 -0.3696
  203MOL   H22749111   7.432   1.611   2.572  0.8364 -0.3805 -1.7613
  203MOL   H22849112   7.560   1.561   2.469  0.6166  0.7175 -0.6450
  203MOL   H22949113   7.419   1.858   2.802 -0.0389  0.7252 -0.3636
  203MOL   C23049114   0.011   1.667   2.609  0.0361 -0.0150  0.5995
  203MOL   C23149115   0.038   1.775   2.498 -0.2125  0.0738  0.3801
  203MOL   C23249116   0.013   1.922   2.543  0.6424  0.3565  0.6813
  203MOL   C23349117   0.185   1.772   2.448  0.0484 -0.2385 -0.4667
  203MOL   O23449118   0.273   1.860   2.453  0.0773 -0.1508  0.0254
  203MOL   O23549119   0.205   1.650   2.392 -0.1852 -0.0810 -0.3206
  203MOL   H23649120   0.087   1.675   2.686  0.6502  1.3290 -0.1198
  203MOL   H23749121   0.032   1.567   2.571  0.2995  0.6366 -1.0255
  203MOL   H23849122   7.675   1.952   2.549  0.9298  1.5168  0.2153
  203MOL   H23949123   0.059   1.993   2.474  0.8169  0.8955  1.3370
  203MOL   H24049124   0.060   1.942   2.639  1.0794  2.2087  0.1011
  203MOL   H24149125   0.289   1.644   2.349 -0.5398 -0.2546 -0.9919
  203MOL   H24249126   7.735   1.752   2.418 -1.6436 -0.0416  1.6340
  204MOL     C149127   1.672   3.194   1.394  0.1705  0.0248  0.3320
  204MOL     C249128   1.599   3.172   1.529  0.3706  0.0588 -0.6240
  204MOL     C349129   1.710   3.104   1.620  0.2609 -0.2062  0.0477
  204MOL     C449130   1.565   3.312   1.582 -0.4688  0.0912  0.2308
  204MOL     O549131   1.494   3.389   1.523 -0.3171 -0.1101  0.5388
  204MOL     O649132   1.618   3.339   1.702  0.5542  0.2651 -0.4157
  204MOL     H749133   1.722   3.291   1.396  1.2281 -0.4817 -0.5727
  204MOL     H849134   1.600   3.204   1.314  0.9400  0.1855 -0.3489
  204MOL     H949135   1.804   3.160   1.614  1.3833 -2.0738 -0.0351
  204MOL    H1049136   1.730   3.000   1.593 -1.4111 -0.8448  1.2227
  204MOL    H1149137   1.683   3.106   1.725  0.7779  0.2007  0.1772
  204MOL    H1249138   1.572   3.414   1.736 -1.3172 -0.9263 -0.2771
  204MOL    H1349139   1.748   3.117   1.378  0.8172  1.0207 -1.4578
  204MOL    C1449140   1.475   3.084   1.485 -0.4891 -0.0338 -0.3313
  204MOL    C1549141   1.395   3.018   1.596  0.0677  0.9195  0.0445
  204MOL    C1649142   1.276   2.954   1.516 -0.2202 -0.2583 -0.0597
  204MOL    C1749143   1.482   2.910   1.658 -0.3622 -0.5436  0.2141
  204MOL    O1849144   1.525   2.911   1.770 -0.2872 -0.1894  0.0035
  204MOL    O1949145   1.515   2.819   1.566  0.0285  0.2120 -0.4057
  204MOL    H2049146   1.406   3.145   1.427  0.1918  1.7552  0.7119
  204MOL    H2149147   1.519   3.014   1.413  0.8619 -0.2119  0.6360
  204MOL    H2249148   1.306   2.895   1.430  1.4440 -1.1366  1.1041
  204MOL    H2349149   1.217   3.039   1.481  0.1762  0.8167  1.8284
  204MOL    H2449150   1.227   2.887   1.587 -1.2553 -1.4202 -1.8253
  204MOL    H2549151   1.486   2.837   1.478  1.2516 -1.9207 -1.2905
  204MOL    C2649152   1.340   3.134   1.701  0.8367  0.4542 -0.3949
  204MOL    C2749153   1.212   3.119   1.793  0.2205  0.2992 -0.6147
  204MOL    C2849154   1.078   3.095   1.720  0.0442 -0.4712  0.4618
  204MOL    C2949155   1.240   3.002   1.887 -0.3946 -0.4296 -0.0356
  204MOL    O3049156   1.305   3.011   1.992 -0.0289  0.0670 -0.1017
  204MOL    O3149157   1.195   2.883   1.835  0.1661 -0.0917  0.3528
  204MOL    H3249158   1.425   3.160   1.763 -0.3943  2.1912  0.6242
  204MOL    H3349159   1.321   3.228   1.650 -0.4404  0.2462 -0.3326
  204MOL    H3449160   1.069   2.999   1.670 -0.6615 -1.5094  2.4940
  204MOL    H3549161   1.048   3.184   1.665  2.4349  0.1099  0.0388
  204MOL    H3649162   1.000   3.081   1.796  0.1126  2.5208  1.1210
  204MOL    H3749163   1.237   2.816   1.886  1.1169  2.0443  2.4921
  204MOL    C3849164   1.207   3.262   1.863 -0.3538  0.7584 -0.2584
  204MOL    C3949165   1.119   3.302   1.992 -0.0008  0.7440  0.9114
  204MOL    C4049166   1.140   3.450   1.985 -1.1934 -0.4087  0.7776
  204MOL    C4149167   0.964   3.272   1.977 -1.0963 -0.1899 -0.4993
  204MOL    O4249168   0.903   3.190   2.043  0.0183  0.1078 -0.2250
  204MOL    O4349169   0.900   3.354   1.889  0.8008 -0.2556  0.2380
  204MOL    H4449170   1.311   3.293   1.871 -0.3406  1.8160 -3.5385
  204MOL    H4549171   1.161   3.325   1.786 -1.7592  0.4491  0.3026
  204MOL    H4649172   1.240   3.481   2.012 -0.6865  0.1291 -1.5873
  204MOL    H4749173   1.075   3.501   2.056  1.5734  0.1355  3.0174
  204MOL    H4849174   1.121   3.498   1.889  0.3642 -0.0376  0.6490
  204MOL    H4949175   0.806   3.346   1.884  0.5486  2.4917 -0.0405
  204MOL    C5049176   1.182   3.246   2.125  0.0172  0.1936  0.2114
  204MOL    C5149177   1.157   3.294   2.276 -0.6625 -0.0058  0.1388
  204MOL    C5249178   1.014   3.311   2.312  0.6538 -0.0591  0.3279
  204MOL    C5349179   1.223   3.181   2.363  0.2029  0.9563  0.1966
  204MOL    O5449180   1.337   3.144   2.346  0.8404  0.1476 -0.1572
  204MOL    O5549181   1.138   3.115   2.443 -0.1299  0.5539 -0.6299
  204MOL    H5649182   1.153   3.141   2.134  1.4755 -0.1798  0.7513
  204MOL    H5749183   1.289   3.247   2.107  0.2993 -0.7120  1.6930
  204MOL    H5849184   0.946   3.235   2.274  1.5256 -0.2219 -0.9335
  204MOL    H5949185   0.966   3.393   2.260  0.4045  0.7373  1.7893
  204MOL    H6049186   0.989   3.326   2.417  1.3417 -0.7061  0.5862
  204MOL    H6149187   1.184   3.035   2.463 -0.2659  0.3293 -1.1961
  204MOL    C6249188   1.232   3.436   2.292 -0.2821 -0.0267  0.0466
  204MOL    C6349189   1.262   3.515   2.420 -0.2404  0.1305  0.5748
  204MOL    C6449190   1.127   3.574   2.471 -0.2355 -0.6085 -0.5245
  204MOL    C6549191   1.319   3.409   2.525 -0.1039 -0.3828  0.5214
  204MOL    O6649192   1.259   3.373   2.628 -0.8199 -0.2970 -0.2601
  204MOL    O6749193   1.448   3.359   2.497 -0.4436  0.4201 -0.0886
  204MOL    H6849194   1.331   3.424   2.249  0.9092 -2.7771  3.3149
  204MOL    H6949195   1.187   3.518   2.236 -0.2570 -0.5220 -0.6988
  204MOL    H7049196   1.080   3.523   2.555 -0.5224 -1.1053 -0.9841
  204MOL    H7149197   1.055   3.564   2.390 -0.5288 -1.4907 -0.1573
  204MOL    H7249198   1.130   3.681   2.495 -0.4219 -0.8428  0.5574
  204MOL    H7349199   1.465   3.291   2.560 -2.4494  1.3870  1.5408
  204MOL    C7449200   1.355   3.637   2.387  0.4940 -0.2098  0.2106
  204MOL    C7549201   1.442   3.720   2.494 -0.0107  0.1889 -0.6625
  204MOL    C7649202   1.351   3.760   2.611 -0.0778  0.5580 -0.8024
  204MOL    C7749203   1.560   3.643   2.544 -0.1191  0.0927  0.3471
  204MOL    O7849204   1.575   3.599   2.661  0.6639 -0.3271  0.1434
  204MOL    O7949205   1.649   3.605   2.442 -0.0289  0.3852  0.7104
  204MOL    H8049206   1.422   3.601   2.309  1.3259 -0.0945  0.8655
  204MOL    H8149207   1.300   3.714   2.335  0.9124 -0.6578 -0.9040
  204MOL    H8249208   1.311   3.678   2.672 -0.6245  0.4842 -1.2537
  204MOL    H8349209   1.266   3.821   2.580 -1.3210 -1.3132 -1.1381
  204MOL    H8449210   1.392   3.819   2.694  1.4377  0.8600 -1.7522
  204MOL    H8549211   1.724   3.558   2.475 -0.4473 -1.5376 -0.9794
  204MOL    C8649212   1.487   3.851   2.426  0.4389  0.1488  0.1103
  204MOL    C8749213   1.582   3.962   2.481 -0.6343 -0.8884 -0.1862
  204MOL    C8849214   1.559   3.984   2.636 -0.0492 -0.3064  0.4074
  204MOL    C8949215   1.736   3.934   2.469  0.1429 -0.2155 -0.0622
  204MOL    O9049216   1.780   3.848   2.393  0.1497  0.1434  0.1538
  204MOL    O9149217   1.823   4.012   2.538 -0.5741 -0.0852 -0.0650
  204MOL    H9249218   1.514   3.827   2.323  3.2247 -0.9553  1.0533
  204MOL    H9349219   1.396   3.898   2.388  0.3099 -0.7780 -0.7444
  204MOL    H9449220   1.616   4.067   2.678  1.3160 -0.5260 -0.9546
  204MOL    H9549221   1.588   3.894   2.690 -0.1448 -0.0955  0.8119
  204MOL    H9649222   1.453   4.006   2.647  0.1138  0.2281  0.9651
  204MOL    H9749223   1.911   3.987   2.517 -0.2643  0.9117  0.0570
  204MOL    C9849224   1.550   4.094   2.405  0.1127 -0.0785  0.3219
  204MOL    C9949225   1.423   4.183   2.421 -0.6032  0.5257 -0.9805
  204MOL   C10049226   1.289   4.109   2.418  0.5669  0.4532 -0.3157
  204MOL   C10149227   1.428   4.266   2.547  0.4509 -0.1603 -0.1847
  204MOL   O10249228   1.524   4.270   2.622  0.0034  0.4802  0.3830
  204MOL   O10349229   1.317   4.340   2.565 -0.0286 -0.1806 -0.2429
  204MOL   H10449230   1.643   4.150   2.421 -0.0563 -0.4762  2.8055
  204MOL   H10549231   1.554   4.062   2.301 -1.0416 -2.0198  0.8652
  204MOL   H10649232   1.274   4.059   2.323 -0.7421  2.0914 -1.0039
  204MOL   H10749233   1.190   4.155   2.423 -0.3642 -1.5769  0.1181
  204MOL   H10849234   1.274   4.035   2.497 -2.0604  1.3164  0.0691
  204MOL   H10949235   1.322   4.402   2.636  1.6359 -0.8881  0.2885
  204MOL   C11049236   1.422   4.294   2.303  0.0953  0.1597  0.1103
  204MOL   C11149237   1.543   4.350   2.228  0.5746 -0.5849  0.1492
  204MOL   C11249238   1.475   4.486   2.178 -0.0263  0.1612  0.3916
  204MOL   C11349239   1.649   4.408   2.325  0.2505  0.2666 -0.0488
  204MOL   O11449240   1.769   4.415   2.304 -0.4263 -0.3564  0.2273
  204MOL   O11549241   1.595   4.487   2.430 -0.5514  0.5717 -0.9343
  204MOL   H11649242   1.361   4.265   2.218 -1.5388  0.1716  1.2419
  204MOL   H11749243   1.364   4.378   2.341 -0.9166 -0.8185  0.7732
  204MOL   H11849244   1.447   4.563   2.249 -0.4648 -0.3487  0.7760
  204MOL   H11949245   1.383   4.460   2.125  0.7597 -2.0417  0.0089
  204MOL   H12049246   1.547   4.527   2.107 -2.3878 -1.7635 -3.2810
  204MOL   H12149247   1.672   4.496   2.485 -1.2037  1.5154 -0.1652
  204MOL   C12249248   1.572   4.267   2.099  0.5831 -0.3024 -0.0538
  204MOL   C12349249   1.714   4.228   2.031 -0.2272  0.4603  0.6976
  204MOL   C12449250   1.762   4.355   1.956  0.1607  0.1496 -0.0003
  204MOL   C12549251   1.817   4.180   2.137 -0.1341 -0.4792  0.6995
  204MOL   O12649252   1.921   4.232   2.157  0.4801 -0.2518 -0.7077
  204MOL   O12749253   1.783   4.060   2.191  0.3169 -0.2811 -0.4285
  204MOL   H12849254   1.535   4.168   2.122 -0.5639  0.3228  0.8257
  204MOL   H12949255   1.510   4.311   2.020  1.1227  0.6297  0.0300
  204MOL   H13049256   1.760   4.441   2.024  0.4572 -0.5722  0.9332
  204MOL   H13149257   1.697   4.375   1.871 -0.1352 -0.0308  0.1854
  204MOL   H13249258   1.866   4.350   1.924  0.7045  1.0402  1.5644
  204MOL   H13349259   1.834   4.013   2.255 -1.2076  0.4970  1.4135
  204MOL   C13449260   1.701   4.113   1.926 -0.4718 -0.4351 -0.4696
  204MOL   C13549261   1.816   4.029   1.852 -0.0030 -0.3777  0.3428
  204MOL   C13649262   1.934   4.128   1.817  0.0775  0.4191  0.0862
  204MOL   C13749263   1.866   3.900   1.931  0.0158 -0.3161 -0.1399
  204MOL   O13849264   1.805   3.850   2.022  0.4368 -0.1494 -0.2028
  204MOL   O13949265   1.985   3.859   1.883  0.3346 -0.2337  0.0729
  204MOL   H14049266   1.640   4.045   1.986 -0.6914  2.9194  3.3287
  204MOL   H14149267   1.640   4.156   1.847 -0.9020 -0.3414 -0.0913
  204MOL   H14249268   2.013   4.082   1.756  0.2756  1.6739 -0.6193
  204MOL   H14349269   1.984   4.162   1.908 -1.7710  1.2393  0.8065
  204MOL   H14449270   1.884   4.210   1.766 -2.1800  0.1558  1.7923
  204MOL   H14549271   2.009   3.774   1.916 -1.1227 -0.8763 -0.4533
  204MOL   C14649272   1.756   3.980   1.712  0.7383 -0.2478  0.5668
  204MOL   C14749273   1.650   3.863   1.680  0.1851 -0.5627  0.0161
  204MOL   C14849274   1.585   3.922   1.549 -0.0284  0.2354  0.2120
  204MOL   C14949275   1.729   3.726   1.649  0.6916 -0.0897 -0.2244
  204MOL   O15049276   1.740   3.682   1.536 -0.2448  0.6367  0.2873
  204MOL   O15149277   1.779   3.666   1.758 -0.0691  0.1420 -0.1035
  204MOL   H15249278   1.716   4.069   1.664  0.0048 -1.0570 -0.3703
  204MOL   H15349279   1.845   3.964   1.652 -0.0488  0.7518 -0.9111
  204MOL   H15449280   1.532   3.850   1.487  1.1297  0.4420 -1.0459
  204MOL   H15549281   1.659   3.966   1.483  0.1247 -1.2756 -0.6569
  204MOL   H15649282   1.523   4.006   1.578 -0.4320  0.5393 -1.4678
  204MOL   H15749283   1.828   3.586   1.750 -2.6217 -1.3926 -1.1654
  204MOL   C15849284   1.543   3.848   1.789 -0.3846 -0.2070 -0.4926
  204MOL   C15949285   1.434   3.733   1.793 -0.1318  0.3925  0.1502
  204MOL   C16049286   1.392   3.676   1.658  0.0926  0.1503  0.0474
  204MOL   C16149287   1.469   3.610   1.886 -0.2356 -0.0075 -0.4022
  204MOL   O16249288   1.459   3.497   1.848 -0.1089 -0.3568  0.0521
  204MOL   O16349289   1.524   3.642   2.005  0.3799  0.5209 -0.0580
  204MOL   H16449290   1.599   3.835   1.882  1.1732 -1.4755 -1.5778
  204MOL   H16549291   1.497   3.945   1.801 -0.3394 -0.1276 -0.9650
  204MOL   H16649292   1.475   3.661   1.589  2.1751  1.0990  2.3055
  204MOL   H16749293   1.340   3.751   1.597  1.2506  2.5575  1.9245
  204MOL   H16849294   1.340   3.582   1.675  0.9375 -0.1221  1.1546
  204MOL   H16949295   1.583   3.579   2.044 -0.6768 -0.8791 -0.7107
  204MOL   C17049296   1.293   3.789   1.850 -0.3976 -0.1766  0.0498
  204MOL   C17149297   1.268   3.879   1.981  0.3840  0.7222 -0.0584
  204MOL   C17249298   1.385   3.864   2.079 -0.2633  0.1315  0.1700
  204MOL   C17349299   1.250   4.027   1.940  0.6601  0.2061  0.9106
  204MOL   O17449300   1.228   4.069   1.824  0.1576  0.0540  0.5837
  204MOL   O17549301   1.249   4.106   2.047 -0.2744  0.5990  0.0810
  204MOL   H17649302   1.250   3.849   1.770  2.5335  0.6839 -0.9390
  204MOL   H17749303   1.236   3.697   1.860  0.5067 -0.6690  0.8654
  204MOL   H17849304   1.375   3.935   2.161  1.0804  1.2761 -0.6349
  204MOL   H17949305   1.480   3.876   2.027 -1.2255 -1.8891 -2.1785
  204MOL   H18049306   1.381   3.766   2.127 -1.1007  0.7328  1.3484
  204MOL   H18149307   1.207   4.182   2.011 -0.2624  0.1502 -0.8813
  204MOL   C18249308   1.134   3.820   2.052 -0.0641 -0.0485  0.7966
  204MOL   C18349309   0.983   3.854   2.013  0.0340 -0.6136  0.2070
  204MOL   C18449310   0.954   3.976   2.102  0.2921  1.4638  0.6775
  204MOL   C18549311   0.964   3.897   1.866 -0.3735  0.6165 -0.1923
  204MOL   O18649312   0.909   4.001   1.831  0.0896  0.6144 -0.4443
  204MOL   O18749313   1.019   3.806   1.782 -0.1688 -0.4423 -0.0114
  204MOL   H18849314   1.143   3.711   2.054  1.7606  0.0537 -0.5306
  204MOL   H18949315   1.157   3.835   2.158  1.0380  0.9032  0.4354
  204MOL   H19049316   0.929   3.937   2.200  0.9430 -0.1507  0.2273
  204MOL   H19149317   0.862   4.024   2.070  1.3155  1.8588 -1.8293
  204MOL   H19249318   1.031   4.053   2.093  1.0892  0.6179  0.0700
  204MOL   H19349319   1.034   3.834   1.693 -0.7173  1.1307  0.3900
  204MOL   C19449320   0.892   3.729   2.051  0.1043 -0.1607 -0.1594
  204MOL   C19549321   0.735   3.722   2.054  0.1217  0.2746  0.1780
  204MOL   C19649322   0.670   3.827   2.148  0.5054 -0.0013  0.6923
  204MOL   C19749323   0.693   3.753   1.906 -0.1315 -0.4613  0.3082
  204MOL   O19849324   0.616   3.840   1.868 -0.0777  0.6011 -0.1211
  204MOL   O19949325   0.749   3.661   1.818 -0.1578 -0.1029 -0.2645
  204MOL   H20049326   0.918   3.657   1.974 -0.4662  1.8382 -2.2882
  204MOL   H20149327   0.925   3.688   2.147 -1.3541  0.3378  0.5691
  204MOL   H20249328   0.562   3.818   2.153  0.4705  0.4196  0.7171
  204MOL   H20349329   0.690   3.931   2.121 -0.7850 -0.4851 -2.3240
  204MOL   H20449330   0.716   3.803   2.244  1.3700 -3.7612 -0.5946
  204MOL   H20549331   0.716   3.683   1.733  0.8761 -0.3873 -0.7530
  204MOL   C20649332   0.681   3.577   2.108  0.1737  0.4850 -0.3409
  204MOL   C20749333   0.532   3.517   2.083 -0.3635 -0.1159  0.6277
  204MOL   C20849334   0.421   3.619   2.129  0.6753 -0.1366 -0.1988
  204MOL   C20949335   0.515   3.489   1.933  0.5216  0.2446  0.0058
  204MOL   O21049336   0.413   3.521   1.868  0.2799 -0.6325 -0.1755
  204MOL   O21149337   0.607   3.410   1.877  0.2393  0.4133  0.4490
  204MOL   H21249338   0.753   3.499   2.081 -0.5000 -1.0697  2.1315
  204MOL   H21349339   0.674   3.581   2.217 -0.9696  3.3276 -0.4866
  204MOL   H21449340   0.324   3.569   2.119  0.9581 -0.3379 -2.1162
  204MOL   H21549341   0.409   3.699   2.057 -0.8108  0.2263  0.4145
  204MOL   H21649342   0.434   3.663   2.228 -0.9696  0.1400 -0.0874
  204MOL   H21749343   0.569   3.381   1.795  0.3911 -0.0658  0.5460
  204MOL   C21849344   0.517   3.391   2.172 -0.2896  0.1539 -0.0413
  204MOL   C21949345   0.390   3.318   2.217 -0.3221 -0.3191  0.1595
  204MOL   C22049346   0.340   3.392   2.340 -0.2018 -0.1111  0.3723
  204MOL   C22149347   0.279   3.302   2.106 -0.8896 -0.2406 -0.6049
  204MOL   O22249348   0.161   3.323   2.121  0.0750 -0.2375  0.1274
  204MOL   O22349349   0.331   3.253   1.991 -0.8387 -0.1216 -0.3982
  204MOL   H22449350   0.575   3.317   2.116  0.6480  0.3326  0.6723
  204MOL   H22549351   0.582   3.397   2.260 -0.4367 -0.7488  0.1335
  204MOL   H22649352   0.410   3.381   2.423  0.9356  3.8643  0.0240
  204MOL   H22749353   0.242   3.355   2.369  0.8491 -1.9784  1.7088
  204MOL   H22849354   0.332   3.500   2.339 -1.4900 -0.2058 -1.0332
  204MOL   H22949355   0.257   3.254   1.931  0.7506 -1.4379 -2.4400
  204MOL   C23049356   0.429   3.174   2.259  0.3282  0.4155 -0.1767
  204MOL   C23149357   0.314   3.085   2.312  0.6910  0.6829 -0.2331
  204MOL   C23249358   0.285   2.965   2.218  0.3853 -1.0419 -0.1212
  204MOL   C23349359   0.338   3.051   2.461  0.0656  0.0165 -0.1128
  204MOL   O23449360   0.368   2.938   2.506 -0.2671  0.5408 -0.0211
  204MOL   O23549361   0.323   3.156   2.541  0.4705 -0.2210  0.4914
  204MOL   H23649362   0.470   3.127   2.169  2.6992  0.5757  0.8058
  204MOL   H23749363   0.502   3.175   2.339  0.5407  3.2499 -0.3626
  204MOL   H23849364   0.360   2.887   2.229  1.7209  0.3834  1.2181
  204MOL   H23949365   0.285   3.000   2.115  1.5079 -2.3379 -0.5750
  204MOL   H24049366   0.195   2.912   2.250  1.3880 -1.8542  1.4227
  204MOL   H24149367   0.345   3.130   2.629  1.6834 -4.1962 -0.8826
  204MOL   H24249368   0.221   3.143   2.311  1.7686  2.4766 -0.0919
  205MOL     C149369   5.355   2.832   4.002  0.0743 -0.5224  0.4277
  205MOL     C249370   5.470   2.724   3.996 -0.3965  0.0005  0.6596
  205MOL     C349371   5.487   2.693   3.850  0.7941 -0.4566 -0.2756
  205MOL     C449372   5.611   2.771   4.039 -0.1981 -0.6675  1.0384
  205MOL     O549373   5.643   2.882   4.077 -0.4564  0.2195 -0.0426
  205MOL     O649374   5.701   2.669   4.036 -0.8231  0.0585  0.6106
  205MOL     H749375   5.332   2.853   4.106  2.1092 -2.0894  1.2266
  205MOL     H849376   5.260   2.798   3.960  0.6948 -1.8733  0.0907
  205MOL     H949377   5.523   2.782   3.799  1.9936  0.6727  2.4273
  205MOL    H1049378   5.397   2.665   3.796  1.2367 -0.1965 -1.1539
  205MOL    H1149379   5.552   2.611   3.820 -1.8210 -1.5394 -3.2993
  205MOL    H1249380   5.787   2.709   4.035 -0.4454 -0.7476  0.4807
  205MOL    H1349381   5.387   2.924   3.953  2.6221 -0.8531  1.3847
  205MOL    C1449382   5.438   2.592   4.063  0.5870 -0.6038 -0.1608
  205MOL    C1549383   5.383   2.579   4.210  0.0334 -0.3997 -0.3236
  205MOL    C1649384   5.472   2.671   4.304  0.4186  0.3024 -0.5143
  205MOL    C1749385   5.235   2.620   4.226  0.4236 -0.6775 -0.1395
  205MOL    O1849386   5.146   2.621   4.138 -0.2538  0.0352  0.0039
  205MOL    O1949387   5.207   2.658   4.353  0.3981  0.3024  0.0974
  205MOL    H2049388   5.356   2.550   4.005 -0.5304 -0.9369  1.5964
  205MOL    H2149389   5.518   2.520   4.046 -1.0590 -2.6139  0.4526
  205MOL    H2249390   5.453   2.771   4.265  0.4501 -0.1639 -1.7631
  205MOL    H2349391   5.580   2.659   4.303  0.8399  3.4586  0.4290
  205MOL    H2449392   5.449   2.665   4.410  2.2943 -1.5522 -0.1685
  205MOL    H2549393   5.285   2.684   4.400 -1.3036  1.8753  2.1878
  205MOL    C2649394   5.414   2.428   4.267 -0.1636 -0.6571 -0.2972
  205MOL    C2749395   5.389   2.291   4.188  0.2712  0.5258 -0.2463
  205MOL    C2849396   5.426   2.177   4.286 -0.7876 -0.4263  0.1047
  205MOL    C2949397   5.236   2.277   4.180 -0.4168  0.6561  0.1793
  205MOL    O3049398   5.157   2.291   4.271 -0.6245  0.3214  0.4651
  205MOL    O3149399   5.193   2.226   4.059 -0.1512 -0.3027 -0.0160
  205MOL    H3249400   5.523   2.434   4.269 -0.0963 -0.7990 -2.2253
  205MOL    H3349401   5.369   2.428   4.366  1.9072 -1.4634  0.6639
  205MOL    H3449402   5.530   2.188   4.316 -0.6985  0.4474 -0.4930
  205MOL    H3549403   5.429   2.081   4.235  1.5385 -0.2440 -0.1509
  205MOL    H3649404   5.370   2.171   4.379 -0.3338 -1.5581  0.3181
  205MOL    H3749405   5.103   2.204   4.044 -0.1153 -0.1533 -0.4776
  205MOL    C3849406   5.460   2.253   4.051  0.9989  0.1183  0.1060
  205MOL    C3949407   5.621   2.237   4.022 -0.5653 -0.2483 -0.3064
  205MOL    C4049408   5.637   2.087   3.980  0.2320 -0.5979  0.3073
  205MOL    C4149409   5.650   2.324   3.895 -0.3600 -0.1011 -0.5534
  205MOL    O4249410   5.723   2.420   3.883 -0.1821 -0.3623  0.2711
  205MOL    O4349411   5.574   2.291   3.786  0.0989  0.5201 -0.1385
  205MOL    H4449412   5.411   2.164   4.012  0.1034  1.1976 -1.3356
  205MOL    H4549413   5.420   2.317   3.971  1.3193  0.8699  0.5363
  205MOL    H4649414   5.631   2.025   4.069  2.0043 -1.0482  0.1324
  205MOL    H4749415   5.731   2.073   3.927  1.6684  1.8947  2.1314
  205MOL    H4849416   5.557   2.061   3.910  3.3423 -0.5735 -3.3870
  205MOL    H4949417   5.623   2.325   3.713 -0.6746 -1.0536 -1.4052
  205MOL    C5049418   5.719   2.292   4.137  0.1501 -0.9380  0.6337
  205MOL    C5149419   5.863   2.235   4.156  0.0011 -0.0882  0.3623
  205MOL    C5249420   5.941   2.245   4.021 -0.5358  0.8569  0.0554
  205MOL    C5349421   5.942   2.324   4.255  0.6820  0.1787  0.1695
  205MOL    O5449422   6.054   2.371   4.231  0.4866  0.4336 -0.6757
  205MOL    O5549423   5.879   2.363   4.372 -1.0758  0.8001  0.2691
  205MOL    H5649424   5.719   2.401   4.131 -0.3661 -1.0010 -0.6193
  205MOL    H5749425   5.668   2.276   4.231 -2.3632  0.2502 -0.4814
  205MOL    H5849426   5.923   2.176   3.939 -2.3592 -1.1612  2.0494
  205MOL    H5949427   6.042   2.222   4.054 -0.3906  0.5988 -0.5709
  205MOL    H6049428   5.944   2.340   3.968 -1.1562  1.1727  0.5696
  205MOL    H6149429   5.947   2.413   4.415 -0.8956  1.6768 -1.0137
  205MOL    C6249430   5.846   2.090   4.209 -0.2385  0.4002 -0.3520
  205MOL    C6349431   5.945   2.011   4.309  0.0222 -0.8632 -0.6336
  205MOL    C6449432   6.091   2.019   4.259  0.2790 -0.6325 -0.3918
  205MOL    C6549433   5.937   2.066   4.456 -0.4204 -0.3222  0.7407
  205MOL    O6649434   6.035   2.090   4.526  0.4660 -0.2906  0.5548
  205MOL    O6749435   5.805   2.078   4.496 -0.3608 -0.2319 -0.6486
  205MOL    H6849436   5.751   2.089   4.262  0.4723 -0.0571  0.9457
  205MOL    H6949437   5.830   2.021   4.126 -2.3590  1.0599 -0.5153
  205MOL    H7049438   6.108   1.981   4.158  0.6117  1.9113 -1.3437
  205MOL    H7149439   6.151   1.957   4.324  1.4871  3.0277  2.1180
  205MOL    H7249440   6.126   2.122   4.262  0.5175 -0.7410  0.4731
  205MOL    H7349441   5.799   2.136   4.570 -0.3547 -0.2799 -0.6115
  205MOL    C7449442   5.895   1.862   4.293 -0.1088 -0.0074  0.4228
  205MOL    C7549443   5.928   1.735   4.388 -1.0659 -0.3059  0.0428
  205MOL    C7649444   6.060   1.741   4.468  0.2244  0.3583 -0.0858
  205MOL    C7749445   5.808   1.742   4.491  0.3518  0.0324 -0.9700
  205MOL    O7849446   5.821   1.798   4.603 -0.0011  0.2041  0.2201
  205MOL    O7949447   5.696   1.688   4.440  0.4913 -0.1494 -0.4530
  205MOL    H8049448   5.788   1.853   4.275  0.2021 -1.3971 -0.8022
  205MOL    H8149449   5.927   1.841   4.191  0.6235  0.9383  0.4534
  205MOL    H8249450   6.152   1.748   4.410  0.5083  1.5301  0.4808
  205MOL    H8349451   6.069   1.657   4.538  0.1757  0.7446  0.3851
  205MOL    H8449452   6.078   1.835   4.520  4.5144  0.3133 -1.2561
  205MOL    H8549453   5.623   1.683   4.500  0.9338  0.7935  0.1731
  205MOL    C8649454   5.918   1.606   4.292 -0.1298  0.1101 -0.6797
  205MOL    C8749455   6.038   1.540   4.209 -0.6030 -0.8797  0.1413
  205MOL    C8849456   6.120   1.652   4.143 -0.4545  0.5055  0.6160
  205MOL    C8949457   6.122   1.457   4.313  0.1289 -0.3259 -0.0733
  205MOL    O9049458   6.087   1.347   4.358 -0.0844  0.1452 -0.1075
  205MOL    O9149459   6.221   1.524   4.375 -0.3389  0.5664 -0.0274
  205MOL    H9249460   5.887   1.531   4.364 -0.1071  1.1188  0.3903
  205MOL    H9349461   5.825   1.611   4.235 -0.9664 -0.1619  0.6491
  205MOL    H9449462   6.221   1.620   4.119 -1.2302 -2.2826  0.8144
  205MOL    H9549463   6.138   1.737   4.208 -0.0096  0.8297  0.0658
  205MOL    H9649464   6.071   1.693   4.055 -0.5396 -0.1809  0.3379
  205MOL    H9749465   6.239   1.463   4.444 -0.5047 -1.5494 -1.8131
  205MOL    C9849466   5.971   1.432   4.104 -0.2647 -0.1303  0.1882
  205MOL    C9949467   6.051   1.336   4.010 -0.7456 -0.3100 -0.1087
  205MOL   C10049468   6.201   1.380   3.985  0.7458 -0.5545  0.3824
  205MOL   C10149469   6.061   1.199   4.080  0.4411  0.6751 -0.5549
  205MOL   O10249470   6.160   1.140   4.122 -0.4816 -0.1841 -0.4743
  205MOL   O10349471   5.931   1.147   4.090  0.5788 -0.2323 -0.2294
  205MOL   H10449472   5.892   1.379   4.157  0.4964 -0.9734  0.5027
  205MOL   H10549473   5.901   1.487   4.041  0.2402  2.1961  1.6088
  205MOL   H10649474   6.253   1.313   3.916  0.1920  1.1802 -1.7806
  205MOL   H10749475   6.256   1.381   4.080  0.0021 -1.2313  0.8271
  205MOL   H10849476   6.211   1.478   3.940  0.7267 -1.9907 -2.9409
  205MOL   H10949477   5.946   1.060   4.125  0.8754 -0.6413 -1.3343
  205MOL   C11049478   5.981   1.311   3.874  0.3789  0.1121  0.3557
  205MOL   C11149479   5.983   1.421   3.753  0.1959  0.3213 -0.4806
  205MOL   C11249480   5.943   1.561   3.796  0.0234 -0.2429 -0.0373
  205MOL   C11349481   6.126   1.418   3.688 -0.4709  0.9232 -0.5785
  205MOL   O11449482   6.198   1.319   3.673  0.6230  0.0863 -0.1380
  205MOL   O11549483   6.180   1.534   3.646 -0.2130 -0.3565 -0.1314
  205MOL   H11649484   6.016   1.218   3.830 -2.4329  0.6525 -3.1980
  205MOL   H11749485   5.877   1.306   3.907 -0.3779  1.1395 -1.7949
  205MOL   H11849486   6.012   1.599   3.871  0.0807  2.2074 -1.2840
  205MOL   H11949487   5.848   1.580   3.847  0.0529  1.7274 -0.6675
  205MOL   H12049488   5.946   1.627   3.709  1.3765  0.6519  0.6867
  205MOL   H12149489   6.273   1.522   3.639 -0.4717 -1.1608 -2.6912
  205MOL   C12249490   5.886   1.354   3.654  0.3531  0.6342  0.1377
  205MOL   C12349491   5.828   1.418   3.524  0.1854 -0.0092 -0.3363
  205MOL   C12449492   5.733   1.538   3.565 -0.1170 -0.4414  0.0672
  205MOL   C12549493   5.946   1.475   3.428  0.0804 -1.1779  0.5633
  205MOL   O12649494   5.945   1.593   3.383  0.1945 -0.0086 -0.5066
  205MOL   O12749495   6.045   1.391   3.405 -0.0445  0.4111  0.5774
  205MOL   H12849496   5.911   1.249   3.639 -0.3390  0.4726  0.0884
  205MOL   H12949497   5.790   1.348   3.704 -0.7419 -2.4041 -2.2023
  205MOL   H13049498   5.777   1.636   3.583 -5.1057  1.6998  1.2611
  205MOL   H13149499   5.679   1.517   3.657 -0.0478 -0.1910  0.1671
  205MOL   H13249500   5.659   1.557   3.487 -1.9244 -2.5005  1.2371
  205MOL   H13349501   6.120   1.421   3.357  0.5281  0.4612  1.4770
  205MOL   C13449502   5.754   1.308   3.435  0.3207  0.0217 -0.1042
  205MOL   C13549503   5.623   1.234   3.462 -0.2066 -1.1676 -0.8694
  205MOL   C13649504   5.625   1.110   3.368  0.1664 -0.2734  0.2790
  205MOL   C13749505   5.631   1.172   3.603 -0.2186 -0.7682 -0.4652
  205MOL   O13849506   5.574   1.215   3.698  0.2242 -0.1952 -0.1254
  205MOL   O13949507   5.717   1.064   3.604  0.3554 -0.0582 -0.0354
  205MOL   H14049508   5.736   1.345   3.334  2.6603 -0.0859 -0.5901
  205MOL   H14149509   5.834   1.234   3.427  0.7771  0.2485  2.0412
  205MOL   H14249510   5.587   1.149   3.274  1.2566  1.1688  0.4136
  205MOL   H14349511   5.556   1.033   3.403 -1.6778  0.9754 -0.5225
  205MOL   H14449512   5.721   1.065   3.341 -1.4404 -3.7917  0.1550
  205MOL   H14549513   5.716   1.024   3.690  2.8347  2.8452  1.4380
  205MOL   C14649514   5.495   1.328   3.437  0.1314 -0.1650 -0.6357
  205MOL   C14749515   5.339   1.302   3.468 -0.7183  0.6793  0.2102
  205MOL   C14849516   5.302   1.167   3.400  0.0262 -1.0492 -0.3792
  205MOL   C14949517   5.298   1.313   3.618 -0.1972  0.4943 -0.0363
  205MOL   O15049518   5.243   1.225   3.674 -0.3269  0.3303 -0.1180
  205MOL   O15149519   5.327   1.435   3.665 -0.6939 -0.8292  0.3178
  205MOL   H15249520   5.511   1.424   3.485 -0.0616 -0.6416  0.3789
  205MOL   H15349521   5.500   1.346   3.329 -0.5989  1.2532 -0.4335
  205MOL   H15449522   5.367   1.087   3.434  0.3238 -1.5032 -1.9785
  205MOL   H15549523   5.322   1.167   3.293  1.8203  0.4176 -0.0655
  205MOL   H15649524   5.201   1.139   3.431 -0.5885 -1.2547 -2.4402
  205MOL   H15749525   5.311   1.442   3.758 -0.2199 -0.4054  0.3717
  205MOL   C15849526   5.250   1.405   3.389  0.5567  0.0018  0.7516
  205MOL   C15949527   5.088   1.407   3.370 -0.4728  0.1114 -0.4366
  205MOL   C16049528   5.050   1.553   3.351  0.5236 -0.1465  0.2308
  205MOL   C16149529   5.060   1.329   3.239 -0.1611  1.1065 -0.5597
  205MOL   O16249530   5.022   1.211   3.240 -0.8615  0.2037 -0.6382
  205MOL   O16349531   5.085   1.396   3.122 -0.4176  0.1517  0.6173
  205MOL   H16449532   5.293   1.501   3.415  1.8203  0.1265 -1.6645
  205MOL   H16549533   5.297   1.392   3.291 -0.4605 -1.2157  0.3998
  205MOL   H16649534   4.948   1.565   3.313  0.5629  1.3791  0.5701
  205MOL   H16749535   5.100   1.599   3.266  1.5004  0.2070  0.9897
  205MOL   H16849536   5.075   1.613   3.438  0.9053  2.0107 -1.3278
  205MOL   H16949537   5.113   1.484   3.141  1.8738 -0.6195  1.0769
  205MOL   C17049538   5.004   1.345   3.491  0.0327 -0.0056 -0.0183
  205MOL   C17149539   4.850   1.356   3.526  0.0702 -0.0141  0.2361
  205MOL   C17249540   4.828   1.262   3.644  0.7871  1.0984  0.1698
  205MOL   C17349541   4.818   1.497   3.580  0.2546 -0.6446  0.3471
  205MOL   O17449542   4.764   1.588   3.520 -0.7661  0.1951  0.1282
  205MOL   O17549543   4.878   1.515   3.706 -0.6966  0.7675 -0.7762
  205MOL   H17649544   5.026   1.238   3.492  3.0368  0.5766 -0.0609
  205MOL   H17749545   5.044   1.399   3.576 -0.3943  0.9374 -0.4132
  205MOL   H17849546   4.754   1.275   3.723  0.9600 -1.2760  0.7565
  205MOL   H17949547   4.918   1.251   3.704  2.2548 -3.7140 -2.6768
  205MOL   H18049548   4.813   1.156   3.624 -0.1910  0.7083  2.7779
  205MOL   H18149549   4.856   1.600   3.743 -0.7547  0.8154 -0.9222
  205MOL   C18249550   4.765   1.328   3.390  0.3703 -0.2417  0.2229
  205MOL   C18349551   4.610   1.303   3.364  0.4230 -0.3056  0.2668
  205MOL   C18449552   4.558   1.195   3.457 -0.2134 -0.0547  0.0245
  205MOL   C18549553   4.534   1.438   3.386  0.1136  0.3847  0.1860
  205MOL   O18649554   4.446   1.441   3.472 -0.2682  0.4539 -0.1647
  205MOL   O18749555   4.569   1.544   3.303 -0.2767  0.4605 -0.2174
  205MOL   H18849556   4.795   1.397   3.310 -1.2572 -0.3061 -0.4490
  205MOL   H18949557   4.812   1.239   3.348  1.6111  0.4155  0.1624
  205MOL   H19049558   4.605   1.099   3.434 -0.5018 -0.1835 -0.0339
  205MOL   H19149559   4.450   1.178   3.451 -0.0713 -1.1146  0.3592
  205MOL   H19249560   4.579   1.219   3.561  1.3111  1.5252 -0.6303
  205MOL   H19349561   4.533   1.626   3.331 -0.2314  1.4693 -2.9753
  205MOL   C19449562   4.596   1.261   3.214 -0.6519  0.9474 -0.3051
  205MOL   C19549563   4.469   1.219   3.130  0.5809 -0.0626  0.2131
  205MOL   C19649564   4.405   1.084   3.177 -0.5405 -0.8605 -0.3253
  205MOL   C19749565   4.349   1.324   3.128 -0.2084 -0.0978  0.4101
  205MOL   O19849566   4.308   1.376   3.026  0.2269  0.1875  0.2475
  205MOL   O19949567   4.293   1.336   3.249 -0.1843  0.4898  0.2636
  205MOL   H20049568   4.648   1.338   3.158  1.5119 -0.1169  0.1890
  205MOL   H20149569   4.661   1.173   3.212  0.8986  2.0611  0.4226
  205MOL   H20249570   4.366   1.108   3.276  1.2619 -0.7393  0.3744
  205MOL   H20349571   4.479   1.005   3.185 -0.9064 -1.2244 -0.5001
  205MOL   H20449572   4.327   1.039   3.116 -0.6008  0.6019 -1.3675
  205MOL   H20549573   4.222   1.399   3.244 -2.4891 -2.0692 -0.5713
  205MOL   C20649574   4.517   1.189   2.987  0.6347 -0.6230 -0.9469
  205MOL   C20749575   4.606   1.282   2.895 -0.3679  0.0032 -0.1786
  205MOL   C20849576   4.565   1.433   2.903 -0.0826 -0.0668 -0.0675
  205MOL   C20949577   4.762   1.259   2.923  0.5074 -0.3010  0.2751
  205MOL   O21049578   4.816   1.157   2.899 -0.0851  0.0344  0.2626
  205MOL   O21149579   4.825   1.368   2.960  0.1914 -0.1463 -0.2902
  205MOL   H21249580   4.556   1.087   2.982 -0.9273 -1.2736 -0.3733
  205MOL   H21349581   4.421   1.162   2.942  0.6556 -0.9100 -0.8190
  205MOL   H21449582   4.459   1.446   2.881 -0.1486  0.8533  0.7585
  205MOL   H21549583   4.625   1.507   2.851  1.9283 -2.3152 -1.0361
  205MOL   H21649584   4.582   1.469   3.005  2.0002 -4.5578  1.3068
  205MOL   H21749585   4.902   1.320   2.988 -0.0455 -2.1579 -2.8356
  205MOL   C21849586   4.573   1.226   2.753  0.2568  0.3654  0.6059
  205MOL   C21949587   4.614   1.287   2.612  0.6045 -0.1080 -0.2238
  205MOL   C22049588   4.591   1.195   2.487  0.9324  0.3350  0.1263
  205MOL   C22149589   4.520   1.409   2.588 -0.1207  0.2215 -0.2452
  205MOL   O22249590   4.567   1.517   2.550  0.2172 -0.4868  0.5280
  205MOL   O22349591   4.385   1.391   2.618 -0.2618  0.5669  0.4314
  205MOL   H22449592   4.616   1.126   2.746  1.3502  0.8215  0.6888
  205MOL   H22549593   4.465   1.210   2.750  0.5169 -1.1478 -1.6904
  205MOL   H22649594   4.498   1.138   2.487  0.4814  1.0397 -1.0650
  205MOL   H22749595   4.669   1.119   2.486  1.1563  0.5134  2.3929
  205MOL   H22849596   4.581   1.244   2.390 -1.8395  0.4260  0.4025
  205MOL   H22949597   4.335   1.469   2.597 -0.4093  0.3967  0.1432
  205MOL   C23049598   4.765   1.333   2.611  0.3585  0.4097  0.1336
  205MOL   C23149599   4.843   1.366   2.478 -0.7463 -0.3329  0.2595
  205MOL   C23249600   4.873   1.518   2.467 -0.2865 -0.0283 -0.0050
  205MOL   C23349601   4.969   1.287   2.459 -0.2340 -0.3585 -0.2437
  205MOL   O23449602   5.086   1.333   2.444 -0.3148  0.4125  0.1039
  205MOL   O23549603   4.937   1.155   2.458  0.0442 -0.7273 -0.6753
  205MOL   H23649604   4.775   1.423   2.671 -1.1518  1.1559 -0.7135
  205MOL   H23749605   4.828   1.265   2.668  1.0171  1.3002  0.4835
  205MOL   H23849606   4.921   1.547   2.561 -2.9021  1.2026  0.9851
  205MOL   H23949607   4.780   1.572   2.450  0.3504  0.7974 -0.8715
  205MOL   H24049608   4.938   1.542   2.383  0.3421  1.3755  0.8675
  205MOL   H24149609   5.016   1.106   2.445  0.3653  0.4256 -3.4702
  205MOL   H24249610   4.780   1.332   2.396 -0.1867  1.2083 -0.8300
  206MOL     C149611   6.945   6.657   5.221  0.3950  0.5380  0.3356
  206MOL     C249612   7.090   6.609   5.196  0.1037 -0.1674  0.3238
  206MOL     C349613   7.082   6.481   5.106  0.0912  0.3018 -0.4516
  206MOL     C449614   7.162   6.722   5.116 -0.0511  0.0772 -0.5743
  206MOL     O549615   7.157   6.832   5.168  0.1972  0.5414 -0.0617
  206MOL     O649616   7.223   6.692   4.997 -0.3228 -0.2151 -0.0585
  206MOL     H749617   6.936   6.724   5.307 -1.2832 -0.2097  0.7788
  206MOL     H849618   6.868   6.581   5.237 -2.2281  2.8253 -1.0481
  206MOL     H949619   7.015   6.405   5.147 -0.2374  2.1004  2.5189
  206MOL    H1049620   7.180   6.440   5.081 -0.4059 -0.5074 -1.0649
  206MOL    H1149621   7.027   6.504   5.014  1.1710 -0.3450 -1.2646
  206MOL    H1249622   7.212   6.605   4.963 -0.1214 -0.0942 -0.4333
  206MOL    H1349623   6.912   6.728   5.146 -0.1166 -1.5966 -1.4982
  206MOL    C1449624   7.160   6.580   5.336  0.4849  0.0667 -0.2048
  206MOL    C1549625   7.296   6.501   5.357 -0.2240 -0.0736 -0.0355
  206MOL    C1649626   7.264   6.346   5.356 -0.5614 -0.0588  0.2128
  206MOL    C1749627   7.400   6.532   5.244 -0.4504 -0.0532  0.3483
  206MOL    O1849628   7.440   6.643   5.221 -0.4202 -0.1479 -0.4062
  206MOL    O1949629   7.424   6.426   5.161 -0.1153 -0.2459 -0.1567
  206MOL    H2049630   7.181   6.674   5.386  0.6504  0.7023 -1.4633
  206MOL    H2149631   7.077   6.534   5.388  0.0476  0.5406 -0.4841
  206MOL    H2249632   7.205   6.317   5.270  0.7040  0.5990 -0.8986
  206MOL    H2349633   7.207   6.336   5.448 -2.3595  2.3160 -0.5946
  206MOL    H2449634   7.353   6.283   5.351 -1.8940 -1.9899  0.2637
  206MOL    H2549635   7.489   6.448   5.097  1.5975 -0.0520  1.6315
  206MOL    C2649636   7.352   6.541   5.494  0.1733 -0.1476  0.0452
  206MOL    C2749637   7.471   6.473   5.573  0.1578 -0.8535  0.0886
  206MOL    C2849638   7.415   6.346   5.641 -0.3795 -0.3748  0.4553
  206MOL    C2949639   7.602   6.433   5.482  0.4030 -0.5816 -0.0502
  206MOL    O3049640   7.704   6.503   5.476  0.0907  0.0761  0.1724
  206MOL    O3149641   7.589   6.317   5.421 -0.0997 -0.1126  0.5692
  206MOL    H3249642   7.375   6.647   5.493  0.4840 -0.2084  0.3341
  206MOL    H3349643   7.272   6.547   5.568  0.1165  1.0702 -0.1153
  206MOL    H3449644   7.492   6.306   5.707  0.4504 -1.4030 -1.0879
  206MOL    H3549645   7.386   6.269   5.570 -0.0543 -0.3153  0.2533
  206MOL    H3649646   7.328   6.361   5.705  0.4179  2.1461  0.9835
  206MOL    H3749647   7.666   6.296   5.371 -0.4369  1.3147 -0.5907
  206MOL    C3849648   7.520   6.569   5.690 -0.0154  0.1953 -0.5224
  206MOL    C3949649   7.624   6.524   5.810 -0.1710 -0.3056 -0.3238
  206MOL    C4049650   7.534   6.481   5.927  0.7742  0.7576  0.3260
  206MOL    C4149651   7.731   6.409   5.781  0.5114 -0.2495 -0.5204
  206MOL    O4249652   7.729   6.303   5.837  0.0469  0.8206 -1.0498
  206MOL    O4349653   0.067   6.447   5.699 -0.1711 -0.7594 -0.4139
  206MOL    H4449654   7.563   6.654   5.636 -0.1608  0.9025  0.4635
  206MOL    H4549655   7.434   6.617   5.738 -0.3159  0.3287 -1.1870
  206MOL    H4649656   7.586   6.425   6.004  1.5118 -0.7248 -1.2302
  206MOL    H4749657   7.465   6.403   5.895 -0.7375  1.0020  2.7946
  206MOL    H4849658   7.473   6.560   5.972  0.7629  0.8006  0.2374
  206MOL    H4949659   0.061   6.535   5.666 -0.5014 -0.2541  0.9593
  206MOL    C5049660   7.701   6.655   5.852 -0.2567  0.3852  0.0349
  206MOL    C5149661   0.026   6.669   5.980 -0.2451 -0.2199 -0.0506
  206MOL    C5249662   7.708   6.664   6.114 -0.2821 -0.4848 -0.1232
  206MOL    C5349663   0.133   6.563   5.987  0.2587  0.5144  0.4956
  206MOL    O5449664   0.137   6.466   6.062  0.5434 -0.2979 -0.1328
  206MOL    O5549665   0.227   6.582   5.886 -0.1944 -0.3759  1.0165
  206MOL    H5649666   7.754   6.681   5.761 -1.5344 -0.6220 -1.0290
  206MOL    H5749667   7.623   6.730   5.869 -1.5384 -1.1170  0.9406
  206MOL    H5849668   7.621   6.729   6.106 -1.9533 -2.6731 -0.3763
  206MOL    H5949669   7.761   6.679   6.208  0.1333  2.3568 -0.7590
  206MOL    H6049670   7.668   6.569   6.150  0.7214 -1.5251 -1.6575
  206MOL    H6149671   0.290   6.515   5.908  1.2878 -0.2271 -2.5400
  206MOL    C6249672   0.081   6.820   5.956  0.3010  0.6371 -0.1176
  206MOL    C6349673   0.156   6.907   6.067  0.1459  0.1877 -0.1060
  206MOL    C6449674   0.046   6.979   6.144 -0.4839  0.1319  0.7781
  206MOL    C6549675   0.246   6.817   6.157 -0.5393  0.4592  0.6941
  206MOL    O6649676   0.217   6.800   6.269 -0.1927 -0.9395  0.1970
  206MOL    O6749677   0.359   6.765   6.096 -0.5826 -0.8428  0.4080
  206MOL    H6849678   0.138   6.818   5.864 -1.3161 -3.2762 -1.1285
  206MOL    H6949679   7.764   6.880   5.923  1.6466  1.3528 -2.2955
  206MOL    H7049680   0.001   7.047   6.071 -0.2170  0.8659  1.2932
  206MOL    H7149681   0.073   7.038   6.232 -1.1432  0.1770  0.9506
  206MOL    H7249682   7.742   6.908   6.185 -0.8763  0.2882  0.3742
  206MOL    H7349683   0.413   6.719   6.158  0.2363 -1.4883 -0.7631
  206MOL    C7449684   0.241   7.008   5.987 -0.7846  0.3581  0.5333
  206MOL    C7549685   0.321   7.132   6.041  0.3909  0.1146  1.2371
  206MOL    C7649686   0.396   7.097   6.173  0.0163 -0.2238 -0.0528
  206MOL    C7749687   0.429   7.157   5.929 -0.7165 -0.3523  1.3021
  206MOL    O7849688   0.552   7.159   5.945  0.5672 -0.9741  0.0054
  206MOL    O7949689   0.379   7.195   5.809 -0.0554  0.4374 -0.5435
  206MOL    H8049690   0.310   6.944   5.933  0.8522  1.5838  1.1428
  206MOL    H8149691   0.173   7.038   5.907 -1.7860 -1.6348  0.6089
  206MOL    H8249692   0.478   7.167   6.188 -1.1971  0.7896  1.9941
  206MOL    H8349693   0.452   7.005   6.156  1.7863  0.8005  0.1585
  206MOL    H8449694   0.332   7.088   6.260  0.7427  0.6441  0.5705
  206MOL    H8549695   0.444   7.208   5.742  0.3851  0.9883 -0.0197
  206MOL    C8649696   0.209   7.248   6.068 -0.1446 -0.4890 -0.3119
  206MOL    C8749697   0.247   7.403   6.084  0.0041  0.0836  0.3035
  206MOL    C8849698   0.372   7.406   6.175  0.1685  0.1110  0.0637
  206MOL    C8949699   0.276   7.465   5.948  0.6139 -0.4425 -0.2536
  206MOL    O9049700   0.235   7.415   5.846 -0.8270 -0.0753 -0.4345
  206MOL    O9149701   0.356   7.574   5.946 -0.7779 -0.4668 -0.3558
  206MOL    H9249702   0.133   7.237   5.990 -0.3779 -0.0594 -0.1477
  206MOL    H9349703   0.151   7.227   6.158 -1.9636 -2.5269 -1.8962
  206MOL    H9449704   0.455   7.367   6.116  0.4834 -2.5965  2.1823
  206MOL    H9549705   0.356   7.340   6.260 -0.6923 -0.8679 -0.8482
  206MOL    H9649706   0.399   7.502   6.220  0.4427 -0.5448  1.3432
  206MOL    H9749707   0.367   7.627   5.868 -0.0166 -1.9039 -1.2450
  206MOL    C9849708   0.133   7.479   6.161  0.6282 -0.6895 -0.3395
  206MOL    C9949709   7.748   7.499   6.116  0.3307  0.2191 -0.0830
  206MOL   C10049710   7.700   7.431   5.984 -0.1431 -0.3590 -0.1912
  206MOL   C10149711   7.654   7.443   6.224 -0.4692 -0.2153 -0.0139
  206MOL   O10249712   7.556   7.502   6.272 -0.2470 -0.0675 -0.7727
  206MOL   O10349713   7.702   7.322   6.270 -0.5500 -0.1697  0.4282
  206MOL   H10449714   0.137   7.457   6.268  2.0788 -2.3788 -0.7221
  206MOL   H10549715   0.164   7.583   6.172 -2.8364  0.4210 -0.4653
  206MOL   H10649716   7.602   7.460   5.946 -0.8790 -2.2133  0.2675
  206MOL   H10749717   7.690   7.323   5.995  0.6263 -0.1944  2.5179
  206MOL   H10849718   0.002   7.449   5.902 -0.4524  1.7476 -0.0239
  206MOL   H10949719   7.650   7.291   6.343 -0.1695  0.8464  1.1449
  206MOL   C11049720   7.716   7.655   6.080 -0.3050  0.9981 -0.0598
  206MOL   C11149721   0.012   0.014   6.156  0.1968 -1.0680 -0.5650
  206MOL   C11249722   0.016   7.758   6.317 -0.5178 -0.2826  0.2631
  206MOL   C11349723   0.153   0.055   6.100 -0.3475  0.4148 -0.1778
  206MOL   O11449724   0.183   0.041   5.982  0.4627  0.2694  0.1673
  206MOL   O11549725   0.235   0.119   6.190  0.3347 -0.4143  0.4794
  206MOL   H11649726   7.728   7.666   5.972 -1.1129  1.2585 -0.1233
  206MOL   H11749727   7.608   7.667   6.085 -0.5248 -1.1662  0.9776
  206MOL   H11849728   7.684   7.720   6.341 -0.3756  0.8312  2.7286
  206MOL   H11949729   0.025   0.091   6.360  2.4886 -0.0798 -0.7387
  206MOL   H12049730   0.089   7.691   6.361  0.2009 -0.3597 -1.0320
  206MOL   H12149731   0.319   0.130   6.147 -0.3721 -2.8506 -1.6378
  206MOL   C12249732   7.688   0.145   6.140  0.2769  0.7861 -0.6060
  206MOL   C12349733   7.617   0.203   6.011 -0.0318 -0.6290  0.5927
  206MOL   C12449734   7.720   0.222   5.898 -0.0851  1.4002  0.4035
  206MOL   C12549735   7.499   0.107   5.979 -0.2242 -0.3164 -0.5599
  206MOL   O12649736   7.490   0.042   5.874 -0.1146 -0.5071  0.1636
  206MOL   O12749737   7.407   0.108   6.082  0.1009  0.2715 -0.1620
  206MOL   H12849738   7.614   0.142   6.220  1.5201 -2.1792  0.5104
  206MOL   H12949739   7.755   0.223   6.175  1.2335  0.2531 -1.2261
  206MOL   H13049740   0.038   0.281   5.932  1.7539 -0.8759 -0.1234
  206MOL   H13149741   7.682   0.262   5.803  0.5764 -2.8918 -1.7769
  206MOL   H13249742   7.748   0.123   5.864 -1.9603  1.0185 -0.0652
  206MOL   H13349743   7.336   0.047   6.066  0.2902 -0.0259  0.1191
  206MOL   C13449744   7.563   0.348   6.042 -0.6829  0.4500 -0.3799
  206MOL   C13549745   7.451   0.425   5.967 -1.1694 -0.5042  0.1994
  206MOL   C13649746   7.447   0.403   5.815  0.1619  1.0156 -0.2819
  206MOL   C13749747   7.315   0.380   6.025  0.4214 -0.3600 -0.5275
  206MOL   O13849748   7.228   0.330   5.954 -0.6428 -0.3693  0.4161
  206MOL   O13949749   7.303   0.418   6.153  0.2866  0.0021  0.2935
  206MOL   H14049750   7.524   0.341   6.144 -1.0508  0.8019 -0.4968
  206MOL   H14149751   7.649   0.414   6.058 -0.2697 -0.2335  0.2654
  206MOL   H14249752   7.376   0.478   5.779  0.3792  0.7644 -1.2453
  206MOL   H14349753   7.414   0.304   5.783  0.2885  0.6328  0.7716
  206MOL   H14449754   7.531   0.420   5.748 -0.5096 -0.5353 -1.5434
  206MOL   H14549755   7.229   0.377   6.194  0.9054 -1.6724 -0.2265
  206MOL   C14649756   7.467   0.578   6.002  0.2209 -0.2834  0.2607
  206MOL   C14749757   7.555   0.685   5.929  0.1374  0.4926 -0.3641
  206MOL   C14849758   7.509   0.720   5.776 -0.1928  0.1187  0.4724
  206MOL   C14949759   7.548   0.812   6.024  0.6634  0.7684  0.1399
  206MOL   O15049760   7.573   0.806   6.140  0.1484 -0.0675  0.1782
  206MOL   O15149761   7.512   0.930   5.965 -0.1406  0.3884 -0.1154
  206MOL   H15249762   7.378   0.630   5.969  1.4929  0.8866 -1.4252
  206MOL   H15349763   7.466   0.589   6.111 -0.4390  0.1671  0.2111
  206MOL   H15449764   7.404   0.749   5.767  0.1441  0.4477 -3.6581
  206MOL   H15549765   7.529   0.636   5.709 -0.7852 -1.4121  2.1982
  206MOL   H15649766   7.564   0.804   5.732 -1.5381  0.2651 -1.0278
  206MOL   H15749767   7.508   0.932   5.870 -0.2355  1.2917 -0.0956
  206MOL   C15849768   7.703   0.630   5.931  0.3880  0.5139  0.3526
  206MOL   C15949769   0.068   0.677   5.854  0.0225  0.1387 -0.9404
  206MOL   C16049770   0.063   0.620   5.711  0.5505  0.2712 -0.7214
  206MOL   C16149771   0.075   0.837   5.852  0.0581  0.8136  0.0174
  206MOL   O16249772   0.052   0.900   5.755  0.1360  0.1828 -0.5059
  206MOL   O16349773   0.106   0.888   5.973  0.4819 -0.0792  0.1092
  206MOL   H16449774   7.723   0.624   6.038 -0.5185 -1.4492  0.4194
  206MOL   H16549775   7.700   0.525   5.901  0.7751  0.5592  0.1369
  206MOL   H16649776   0.073   0.511   5.707  0.0032 -0.0043  3.3359
  206MOL   H16749777   0.125   0.663   5.632  2.6416 -0.1140  0.6762
  206MOL   H16849778   7.731   0.643   5.672  1.0432  3.3967 -0.2151
  206MOL   H16949779   0.093   0.981   5.963 -1.9918 -0.3478  0.5897
  206MOL   C17049780   0.193   0.619   5.938 -0.0592 -0.3313  0.4215
  206MOL   C17149781   0.350   0.653   5.908  0.6352 -0.1930 -0.6834
  206MOL   C17249782   0.392   0.673   5.764  0.3736  0.6011 -0.5653
  206MOL   C17349783   0.386   0.786   5.990  0.1213  0.1812 -0.5587
  206MOL   O17449784   0.416   0.893   5.934 -0.3315  0.4608  0.0138
  206MOL   O17549785   0.383   0.777   6.126 -0.3464  0.5720  0.5491
  206MOL   H17649786   0.176   0.663   6.037 -0.5554 -0.6142  0.4633
  206MOL   H17749787   0.173   0.512   5.947 -0.2469 -0.3744 -0.4637
  206MOL   H17849788   0.496   0.707   5.759  0.6564 -0.0367  0.6854
  206MOL   H17949789   0.326   0.740   5.709 -1.3570 -0.1291  0.5681
  206MOL   H18049790   0.384   0.580   5.709 -3.2303  0.0167  0.8137
  206MOL   H18149791   0.400   0.860   6.167  0.5645  0.4470  0.4345
  206MOL   C18249792   0.431   0.531   5.970 -0.1425 -0.0955  0.2122
  206MOL   C18349793   0.474   0.398   5.904  0.2411 -0.1472  0.2265
  206MOL   C18449794   0.593   0.428   5.816 -0.0353  0.3096  0.0351
  206MOL   C18549795   0.513   0.305   6.025 -0.3647 -0.3799 -0.0961
  206MOL   O18649796   0.452   0.213   6.063  0.1779  0.1398 -0.1889
  206MOL   O18749797   0.629   0.353   6.084  0.6059 -0.1755  0.0021
  206MOL   H18849798   0.520   0.570   6.020  1.8139 -1.6516 -1.9365
  206MOL   H18949799   0.362   0.498   6.048  0.2943 -0.5804  0.4017
  206MOL   H19049800   0.640   0.334   5.786 -1.2111  0.0189 -0.9295
  206MOL   H19149801   0.672   0.472   5.877  0.8435 -1.3363  0.1050
  206MOL   H19249802   0.570   0.487   5.727 -0.5458 -1.5392 -1.0926
  206MOL   H19349803   0.653   0.313   6.166  2.5523  1.2802  0.1945
  206MOL   C19449804   0.357   0.335   5.823  0.1985  0.3589  1.2207
  206MOL   C19549805   0.368   0.239   5.699 -0.3978 -0.7400  0.3563
  206MOL   C19649806   0.426   0.320   5.575  0.4080  0.2532  0.0710
  206MOL   C19749807   0.456   0.122   5.728 -0.9660  0.2100  0.4544
  206MOL   O19849808   0.547   0.088   5.655 -0.1111 -0.4227  0.0263
  206MOL   O19949809   0.415   0.046   5.831 -0.0133  0.1038  0.1443
  206MOL   H20049810   0.299   0.275   5.894  0.7134  1.4061  2.5502
  206MOL   H20149811   0.283   0.412   5.802 -1.5790 -2.0474 -1.7031
  206MOL   H20249812   0.389   0.422   5.573  0.4582  0.3244  1.8389
  206MOL   H20349813   0.406   0.278   5.477 -1.0738 -1.2466  0.9937
  206MOL   H20449814   0.534   0.328   5.581  0.5039 -0.3790 -0.7561
  206MOL   H20549815   0.341   0.085   5.874 -1.5536 -2.5960  0.0033
  206MOL   C20649816   0.226   0.187   5.663  0.9305 -0.1705 -0.2277
  206MOL   C20749817   0.186   0.065   5.571 -0.8274  0.7228 -0.3279
  206MOL   C20849818   0.242   7.697   5.616 -0.1990 -0.3958 -0.7169
  206MOL   C20949819   0.028   0.061   5.584  0.2930  0.4232 -0.6029
  206MOL   O21049820   7.719   0.155   5.560  0.0410  0.2249 -0.2963
  206MOL   O21149821   7.746   7.706   5.596 -0.3775  0.1974 -0.0306
  206MOL   H21249822   0.172   0.166   5.755  1.7934 -1.0420  0.0739
  206MOL   H21349823   0.173   0.273   5.621  0.8749 -0.3898 -0.6082
  206MOL   H21449824   0.208   7.618   5.549  0.1719 -0.6583 -0.5950
  206MOL   H21549825   0.209   7.677   5.718 -0.9184 -0.6484 -0.9960
  206MOL   H21649826   0.350   7.684   5.609 -0.0903  0.4838 -0.8212
  206MOL   H21749827   7.655   7.708   5.570 -0.3885  0.6547  0.0398
  206MOL   C21849828   0.226   0.109   5.425  0.4901 -0.6780 -0.8504
  206MOL   C21949829   0.177   0.044   5.286 -0.0910  0.8378 -0.1553
  206MOL   C22049830   0.252   0.101   5.170 -0.0804  0.2816 -0.0360
  206MOL   C22149831   0.203   7.656   5.289 -0.3459 -0.4469 -0.4114
  206MOL   O22249832   0.119   7.575   5.311  0.0845 -0.6467 -0.4536
  206MOL   O22349833   0.331   7.634   5.277 -0.0792 -0.5800 -0.4897
  206MOL   H22449834   0.217   0.218   5.420  1.2453 -0.4768  1.6477
  206MOL   H22549835   0.333   0.090   5.419  0.6426 -0.5645  1.2208
  206MOL   H22649836   0.357   0.095   5.198 -0.1574 -0.9585  0.0267
  206MOL   H22749837   0.229   0.204   5.142 -0.6224  0.6500  1.7151
  206MOL   H22849838   0.250   0.046   5.076 -1.7819  0.5832 -0.1829
  206MOL   H22949839   0.347   7.541   5.286  2.0696 -0.5604 -3.3206
  206MOL   C23049840   0.026   0.076   5.254  0.0865 -0.2369  0.9248
  206MOL   C23149841   7.736   0.051   5.106 -0.0265  0.1907  0.3124
  206MOL   C23249842   7.589   0.004   5.111 -0.3305 -0.4551  0.0547
  206MOL   C23349843   7.737   0.180   5.021 -0.1406  0.2858 -0.4308
  206MOL   O23449844   0.007   0.289   5.065  0.3787  0.1375  0.1843
  206MOL   O23549845   7.675   0.150   4.901  0.9698 -0.0659  0.2451
  206MOL   H23649846   7.732   0.010   5.316  3.7334 -1.7672  3.0201
  206MOL   H23749847   7.766   0.178   5.283  1.3779  0.5061 -0.4300
  206MOL   H23849848   7.523   0.081   5.069  0.3966 -1.0829 -2.3291
  206MOL   H23949849   7.554   7.743   5.210  1.1717 -1.5059  0.3025
  206MOL   H24049850   7.579   7.679   5.053  1.6916 -0.4602 -0.3210
  206MOL   H24149851   7.673   0.230   4.851 -1.3405 -1.3715 -1.9015
  206MOL   H24249852   0.033   7.745   5.057 -0.0767  0.3541 -0.0009
   7.76715   7.76715   7.76715
