;
; Gromacs include topology (itp) file.
; For Molecular Group XYZ
; Force field scheme: opls2005
; Produced from DL_FIELD v4.11
;


[ moleculetype ]
; name    nrexcl
XYZ    3

[ atoms ]
; nr   type   resnr   residu    atom    cgnr    charge    mass
    1        CT    1  MOL      C1     1  -0.1800000   12.0115
    2        CT    1  MOL      C2     2   0.0000000   12.0115
    3        CT    1  MOL      C3     3  -0.1800000   12.0115
    4         C    1  MOL      C4     4   0.5200000   12.0115
    5         O    1  MOL      O5     5  -0.4400000   15.9994
    6        OH    1  MOL      O6     6  -0.5300000   15.9994
    7        HC    1  MOL      H7     7   0.0600000    1.0080
    8        HC    1  MOL      H8     8   0.0600000    1.0080
    9        HC    1  MOL      H9     9   0.0600000    1.0080
   10        HC    1  MOL     H10    10   0.0600000    1.0080
   11        HC    1  MOL     H11    11   0.0600000    1.0080
   12        HO    1  MOL     H12    12   0.4500000    1.0080
   13        HC    1  MOL     H13    13   0.0600000    1.0080
   14        CT    1  MOL     C14    14  -0.1200000   12.0115
   15        CT    1  MOL     C15    15   0.0000000   12.0115
   16        CT    1  MOL     C16    16  -0.1800000   12.0115
   17         C    1  MOL     C17    17   0.5200000   12.0115
   18         O    1  MOL     O18    18  -0.4400000   15.9994
   19        OH    1  MOL     O19    19  -0.5300000   15.9994
   20        HC    1  MOL     H20    20   0.0600000    1.0080
   21        HC    1  MOL     H21    21   0.0600000    1.0080
   22        HC    1  MOL     H22    22   0.0600000    1.0080
   23        HC    1  MOL     H23    23   0.0600000    1.0080
   24        HC    1  MOL     H24    24   0.0600000    1.0080
   25        HO    1  MOL     H25    25   0.4500000    1.0080
   26        CT    1  MOL     C26    26  -0.1200000   12.0115
   27        CT    1  MOL     C27    27   0.0000000   12.0115
   28        CT    1  MOL     C28    28  -0.1800000   12.0115
   29         C    1  MOL     C29    29   0.5200000   12.0115
   30         O    1  MOL     O30    30  -0.4400000   15.9994
   31        OH    1  MOL     O31    31  -0.5300000   15.9994
   32        HC    1  MOL     H32    32   0.0600000    1.0080
   33        HC    1  MOL     H33    33   0.0600000    1.0080
   34        HC    1  MOL     H34    34   0.0600000    1.0080
   35        HC    1  MOL     H35    35   0.0600000    1.0080
   36        HC    1  MOL     H36    36   0.0600000    1.0080
   37        HO    1  MOL     H37    37   0.4500000    1.0080
   38        CT    1  MOL     C38    38  -0.1200000   12.0115
   39        CT    1  MOL     C39    39   0.0000000   12.0115
   40        CT    1  MOL     C40    40  -0.1800000   12.0115
   41         C    1  MOL     C41    41   0.5200000   12.0115
   42         O    1  MOL     O42    42  -0.4400000   15.9994
   43        OH    1  MOL     O43    43  -0.5300000   15.9994
   44        HC    1  MOL     H44    44   0.0600000    1.0080
   45        HC    1  MOL     H45    45   0.0600000    1.0080
   46        HC    1  MOL     H46    46   0.0600000    1.0080
   47        HC    1  MOL     H47    47   0.0600000    1.0080
   48        HC    1  MOL     H48    48   0.0600000    1.0080
   49        HO    1  MOL     H49    49   0.4500000    1.0080
   50        CT    1  MOL     C50    50  -0.1200000   12.0115
   51        CT    1  MOL     C51    51   0.0000000   12.0115
   52        CT    1  MOL     C52    52  -0.1800000   12.0115
   53         C    1  MOL     C53    53   0.5200000   12.0115
   54         O    1  MOL     O54    54  -0.4400000   15.9994
   55        OH    1  MOL     O55    55  -0.5300000   15.9994
   56        HC    1  MOL     H56    56   0.0600000    1.0080
   57        HC    1  MOL     H57    57   0.0600000    1.0080
   58        HC    1  MOL     H58    58   0.0600000    1.0080
   59        HC    1  MOL     H59    59   0.0600000    1.0080
   60        HC    1  MOL     H60    60   0.0600000    1.0080
   61        HO    1  MOL     H61    61   0.4500000    1.0080
   62        CT    1  MOL     C62    62  -0.1200000   12.0115
   63        CT    1  MOL     C63    63   0.0000000   12.0115
   64        CT    1  MOL     C64    64  -0.1800000   12.0115
   65         C    1  MOL     C65    65   0.5200000   12.0115
   66         O    1  MOL     O66    66  -0.4400000   15.9994
   67        OH    1  MOL     O67    67  -0.5300000   15.9994
   68        HC    1  MOL     H68    68   0.0600000    1.0080
   69        HC    1  MOL     H69    69   0.0600000    1.0080
   70        HC    1  MOL     H70    70   0.0600000    1.0080
   71        HC    1  MOL     H71    71   0.0600000    1.0080
   72        HC    1  MOL     H72    72   0.0600000    1.0080
   73        HO    1  MOL     H73    73   0.4500000    1.0080
   74        CT    1  MOL     C74    74  -0.1200000   12.0115
   75        CT    1  MOL     C75    75   0.0000000   12.0115
   76        CT    1  MOL     C76    76  -0.1800000   12.0115
   77         C    1  MOL     C77    77   0.5200000   12.0115
   78         O    1  MOL     O78    78  -0.4400000   15.9994
   79        OH    1  MOL     O79    79  -0.5300000   15.9994
   80        HC    1  MOL     H80    80   0.0600000    1.0080
   81        HC    1  MOL     H81    81   0.0600000    1.0080
   82        HC    1  MOL     H82    82   0.0600000    1.0080
   83        HC    1  MOL     H83    83   0.0600000    1.0080
   84        HC    1  MOL     H84    84   0.0600000    1.0080
   85        HO    1  MOL     H85    85   0.4500000    1.0080
   86        CT    1  MOL     C86    86  -0.1200000   12.0115
   87        CT    1  MOL     C87    87   0.0000000   12.0115
   88        CT    1  MOL     C88    88  -0.1800000   12.0115
   89         C    1  MOL     C89    89   0.5200000   12.0115
   90         O    1  MOL     O90    90  -0.4400000   15.9994
   91        OH    1  MOL     O91    91  -0.5300000   15.9994
   92        HC    1  MOL     H92    92   0.0600000    1.0080
   93        HC    1  MOL     H93    93   0.0600000    1.0080
   94        HC    1  MOL     H94    94   0.0600000    1.0080
   95        HC    1  MOL     H95    95   0.0600000    1.0080
   96        HC    1  MOL     H96    96   0.0600000    1.0080
   97        HO    1  MOL     H97    97   0.4500000    1.0080
   98        CT    1  MOL     C98    98  -0.1200000   12.0115
   99        CT    1  MOL     C99    99   0.0000000   12.0115
  100        CT    1  MOL    C100   100  -0.1800000   12.0115
  101         C    1  MOL    C101   101   0.5200000   12.0115
  102         O    1  MOL    O102   102  -0.4400000   15.9994
  103        OH    1  MOL    O103   103  -0.5300000   15.9994
  104        HC    1  MOL    H104   104   0.0600000    1.0080
  105        HC    1  MOL    H105   105   0.0600000    1.0080
  106        HC    1  MOL    H106   106   0.0600000    1.0080
  107        HC    1  MOL    H107   107   0.0600000    1.0080
  108        HC    1  MOL    H108   108   0.0600000    1.0080
  109        HO    1  MOL    H109   109   0.4500000    1.0080
  110        CT    1  MOL    C110   110  -0.1200000   12.0115
  111        CT    1  MOL    C111   111   0.0000000   12.0115
  112        CT    1  MOL    C112   112  -0.1800000   12.0115
  113         C    1  MOL    C113   113   0.5200000   12.0115
  114         O    1  MOL    O114   114  -0.4400000   15.9994
  115        OH    1  MOL    O115   115  -0.5300000   15.9994
  116        HC    1  MOL    H116   116   0.0600000    1.0080
  117        HC    1  MOL    H117   117   0.0600000    1.0080
  118        HC    1  MOL    H118   118   0.0600000    1.0080
  119        HC    1  MOL    H119   119   0.0600000    1.0080
  120        HC    1  MOL    H120   120   0.0600000    1.0080
  121        HO    1  MOL    H121   121   0.4500000    1.0080
  122        CT    1  MOL    C122   122  -0.1200000   12.0115
  123        CT    1  MOL    C123   123   0.0000000   12.0115
  124        CT    1  MOL    C124   124  -0.1800000   12.0115
  125         C    1  MOL    C125   125   0.5200000   12.0115
  126         O    1  MOL    O126   126  -0.4400000   15.9994
  127        OH    1  MOL    O127   127  -0.5300000   15.9994
  128        HC    1  MOL    H128   128   0.0600000    1.0080
  129        HC    1  MOL    H129   129   0.0600000    1.0080
  130        HC    1  MOL    H130   130   0.0600000    1.0080
  131        HC    1  MOL    H131   131   0.0600000    1.0080
  132        HC    1  MOL    H132   132   0.0600000    1.0080
  133        HO    1  MOL    H133   133   0.4500000    1.0080
  134        CT    1  MOL    C134   134  -0.1200000   12.0115
  135        CT    1  MOL    C135   135   0.0000000   12.0115
  136        CT    1  MOL    C136   136  -0.1800000   12.0115
  137         C    1  MOL    C137   137   0.5200000   12.0115
  138         O    1  MOL    O138   138  -0.4400000   15.9994
  139        OH    1  MOL    O139   139  -0.5300000   15.9994
  140        HC    1  MOL    H140   140   0.0600000    1.0080
  141        HC    1  MOL    H141   141   0.0600000    1.0080
  142        HC    1  MOL    H142   142   0.0600000    1.0080
  143        HC    1  MOL    H143   143   0.0600000    1.0080
  144        HC    1  MOL    H144   144   0.0600000    1.0080
  145        HO    1  MOL    H145   145   0.4500000    1.0080
  146        CT    1  MOL    C146   146  -0.1200000   12.0115
  147        CT    1  MOL    C147   147   0.0000000   12.0115
  148        CT    1  MOL    C148   148  -0.1800000   12.0115
  149         C    1  MOL    C149   149   0.5200000   12.0115
  150         O    1  MOL    O150   150  -0.4400000   15.9994
  151        OH    1  MOL    O151   151  -0.5300000   15.9994
  152        HC    1  MOL    H152   152   0.0600000    1.0080
  153        HC    1  MOL    H153   153   0.0600000    1.0080
  154        HC    1  MOL    H154   154   0.0600000    1.0080
  155        HC    1  MOL    H155   155   0.0600000    1.0080
  156        HC    1  MOL    H156   156   0.0600000    1.0080
  157        HO    1  MOL    H157   157   0.4500000    1.0080
  158        CT    1  MOL    C158   158  -0.1200000   12.0115
  159        CT    1  MOL    C159   159   0.0000000   12.0115
  160        CT    1  MOL    C160   160  -0.1800000   12.0115
  161         C    1  MOL    C161   161   0.5200000   12.0115
  162         O    1  MOL    O162   162  -0.4400000   15.9994
  163        OH    1  MOL    O163   163  -0.5300000   15.9994
  164        HC    1  MOL    H164   164   0.0600000    1.0080
  165        HC    1  MOL    H165   165   0.0600000    1.0080
  166        HC    1  MOL    H166   166   0.0600000    1.0080
  167        HC    1  MOL    H167   167   0.0600000    1.0080
  168        HC    1  MOL    H168   168   0.0600000    1.0080
  169        HO    1  MOL    H169   169   0.4500000    1.0080
  170        CT    1  MOL    C170   170  -0.1200000   12.0115
  171        CT    1  MOL    C171   171   0.0000000   12.0115
  172        CT    1  MOL    C172   172  -0.1800000   12.0115
  173         C    1  MOL    C173   173   0.5200000   12.0115
  174         O    1  MOL    O174   174  -0.4400000   15.9994
  175        OH    1  MOL    O175   175  -0.5300000   15.9994
  176        HC    1  MOL    H176   176   0.0600000    1.0080
  177        HC    1  MOL    H177   177   0.0600000    1.0080
  178        HC    1  MOL    H178   178   0.0600000    1.0080
  179        HC    1  MOL    H179   179   0.0600000    1.0080
  180        HC    1  MOL    H180   180   0.0600000    1.0080
  181        HO    1  MOL    H181   181   0.4500000    1.0080
  182        CT    1  MOL    C182   182  -0.1200000   12.0115
  183        CT    1  MOL    C183   183   0.0000000   12.0115
  184        CT    1  MOL    C184   184  -0.1800000   12.0115
  185         C    1  MOL    C185   185   0.5200000   12.0115
  186         O    1  MOL    O186   186  -0.4400000   15.9994
  187        OH    1  MOL    O187   187  -0.5300000   15.9994
  188        HC    1  MOL    H188   188   0.0600000    1.0080
  189        HC    1  MOL    H189   189   0.0600000    1.0080
  190        HC    1  MOL    H190   190   0.0600000    1.0080
  191        HC    1  MOL    H191   191   0.0600000    1.0080
  192        HC    1  MOL    H192   192   0.0600000    1.0080
  193        HO    1  MOL    H193   193   0.4500000    1.0080
  194        CT    1  MOL    C194   194  -0.1200000   12.0115
  195        CT    1  MOL    C195   195   0.0000000   12.0115
  196        CT    1  MOL    C196   196  -0.1800000   12.0115
  197         C    1  MOL    C197   197   0.5200000   12.0115
  198         O    1  MOL    O198   198  -0.4400000   15.9994
  199        OH    1  MOL    O199   199  -0.5300000   15.9994
  200        HC    1  MOL    H200   200   0.0600000    1.0080
  201        HC    1  MOL    H201   201   0.0600000    1.0080
  202        HC    1  MOL    H202   202   0.0600000    1.0080
  203        HC    1  MOL    H203   203   0.0600000    1.0080
  204        HC    1  MOL    H204   204   0.0600000    1.0080
  205        HO    1  MOL    H205   205   0.4500000    1.0080
  206        CT    1  MOL    C206   206  -0.1200000   12.0115
  207        CT    1  MOL    C207   207   0.0000000   12.0115
  208        CT    1  MOL    C208   208  -0.1800000   12.0115
  209         C    1  MOL    C209   209   0.5200000   12.0115
  210         O    1  MOL    O210   210  -0.4400000   15.9994
  211        OH    1  MOL    O211   211  -0.5300000   15.9994
  212        HC    1  MOL    H212   212   0.0600000    1.0080
  213        HC    1  MOL    H213   213   0.0600000    1.0080
  214        HC    1  MOL    H214   214   0.0600000    1.0080
  215        HC    1  MOL    H215   215   0.0600000    1.0080
  216        HC    1  MOL    H216   216   0.0600000    1.0080
  217        HO    1  MOL    H217   217   0.4500000    1.0080
  218        CT    1  MOL    C218   218  -0.1200000   12.0115
  219        CT    1  MOL    C219   219   0.0000000   12.0115
  220        CT    1  MOL    C220   220  -0.1800000   12.0115
  221         C    1  MOL    C221   221   0.5200000   12.0115
  222         O    1  MOL    O222   222  -0.4400000   15.9994
  223        OH    1  MOL    O223   223  -0.5300000   15.9994
  224        HC    1  MOL    H224   224   0.0600000    1.0080
  225        HC    1  MOL    H225   225   0.0600000    1.0080
  226        HC    1  MOL    H226   226   0.0600000    1.0080
  227        HC    1  MOL    H227   227   0.0600000    1.0080
  228        HC    1  MOL    H228   228   0.0600000    1.0080
  229        HO    1  MOL    H229   229   0.4500000    1.0080
  230        CT    1  MOL    C230   230  -0.1200000   12.0115
  231        CT    1  MOL    C231   231  -0.0600000   12.0115
  232        CT    1  MOL    C232   232  -0.1800000   12.0115
  233         C    1  MOL    C233   233   0.5200000   12.0115
  234         O    1  MOL    O234   234  -0.4400000   15.9994
  235        OH    1  MOL    O235   235  -0.5300000   15.9994
  236        HC    1  MOL    H236   236   0.0600000    1.0080
  237        HC    1  MOL    H237   237   0.0600000    1.0080
  238        HC    1  MOL    H238   238   0.0600000    1.0080
  239        HC    1  MOL    H239   239   0.0600000    1.0080
  240        HC    1  MOL    H240   240   0.0600000    1.0080
  241        HO    1  MOL    H241   241   0.4500000    1.0080
  242        HC    1  MOL    H242   242   0.0600000    1.0080

[ bonds ]
      1      2   1      0.1529 224262.4000
      1      7   1      0.1090 284512.0000
      1      8   1      0.1090 284512.0000
      1     13   1      0.1090 284512.0000
      2      3   1      0.1529 224262.4000
      2      4   1      0.1522 265265.6000
      2     14   1      0.1529 224262.4000
      3      9   1      0.1090 284512.0000
      3     10   1      0.1090 284512.0000
      3     11   1      0.1090 284512.0000
      4      5   1      0.1229 476976.0000
      4      6   1      0.1364 376560.0000
      6     12   1      0.0945 462750.4000
     14     15   1      0.1529 224262.4000
     14     20   1      0.1090 284512.0000
     14     21   1      0.1090 284512.0000
     15     16   1      0.1529 224262.4000
     15     17   1      0.1522 265265.6000
     15     26   1      0.1529 224262.4000
     16     22   1      0.1090 284512.0000
     16     23   1      0.1090 284512.0000
     16     24   1      0.1090 284512.0000
     17     18   1      0.1229 476976.0000
     17     19   1      0.1364 376560.0000
     19     25   1      0.0945 462750.4000
     26     27   1      0.1529 224262.4000
     26     32   1      0.1090 284512.0000
     26     33   1      0.1090 284512.0000
     27     28   1      0.1529 224262.4000
     27     29   1      0.1522 265265.6000
     27     38   1      0.1529 224262.4000
     28     34   1      0.1090 284512.0000
     28     35   1      0.1090 284512.0000
     28     36   1      0.1090 284512.0000
     29     30   1      0.1229 476976.0000
     29     31   1      0.1364 376560.0000
     31     37   1      0.0945 462750.4000
     38     39   1      0.1529 224262.4000
     38     44   1      0.1090 284512.0000
     38     45   1      0.1090 284512.0000
     39     40   1      0.1529 224262.4000
     39     41   1      0.1522 265265.6000
     39     50   1      0.1529 224262.4000
     40     46   1      0.1090 284512.0000
     40     47   1      0.1090 284512.0000
     40     48   1      0.1090 284512.0000
     41     42   1      0.1229 476976.0000
     41     43   1      0.1364 376560.0000
     43     49   1      0.0945 462750.4000
     50     51   1      0.1529 224262.4000
     50     56   1      0.1090 284512.0000
     50     57   1      0.1090 284512.0000
     51     52   1      0.1529 224262.4000
     51     53   1      0.1522 265265.6000
     51     62   1      0.1529 224262.4000
     52     58   1      0.1090 284512.0000
     52     59   1      0.1090 284512.0000
     52     60   1      0.1090 284512.0000
     53     54   1      0.1229 476976.0000
     53     55   1      0.1364 376560.0000
     55     61   1      0.0945 462750.4000
     62     63   1      0.1529 224262.4000
     62     68   1      0.1090 284512.0000
     62     69   1      0.1090 284512.0000
     63     64   1      0.1529 224262.4000
     63     65   1      0.1522 265265.6000
     63     74   1      0.1529 224262.4000
     64     70   1      0.1090 284512.0000
     64     71   1      0.1090 284512.0000
     64     72   1      0.1090 284512.0000
     65     66   1      0.1229 476976.0000
     65     67   1      0.1364 376560.0000
     67     73   1      0.0945 462750.4000
     74     75   1      0.1529 224262.4000
     74     80   1      0.1090 284512.0000
     74     81   1      0.1090 284512.0000
     75     76   1      0.1529 224262.4000
     75     77   1      0.1522 265265.6000
     75     86   1      0.1529 224262.4000
     76     82   1      0.1090 284512.0000
     76     83   1      0.1090 284512.0000
     76     84   1      0.1090 284512.0000
     77     78   1      0.1229 476976.0000
     77     79   1      0.1364 376560.0000
     79     85   1      0.0945 462750.4000
     86     87   1      0.1529 224262.4000
     86     92   1      0.1090 284512.0000
     86     93   1      0.1090 284512.0000
     87     88   1      0.1529 224262.4000
     87     89   1      0.1522 265265.6000
     87     98   1      0.1529 224262.4000
     88     94   1      0.1090 284512.0000
     88     95   1      0.1090 284512.0000
     88     96   1      0.1090 284512.0000
     89     90   1      0.1229 476976.0000
     89     91   1      0.1364 376560.0000
     91     97   1      0.0945 462750.4000
     98     99   1      0.1529 224262.4000
     98    104   1      0.1090 284512.0000
     98    105   1      0.1090 284512.0000
     99    100   1      0.1529 224262.4000
     99    101   1      0.1522 265265.6000
     99    110   1      0.1529 224262.4000
    100    106   1      0.1090 284512.0000
    100    107   1      0.1090 284512.0000
    100    108   1      0.1090 284512.0000
    101    102   1      0.1229 476976.0000
    101    103   1      0.1364 376560.0000
    103    109   1      0.0945 462750.4000
    110    111   1      0.1529 224262.4000
    110    116   1      0.1090 284512.0000
    110    117   1      0.1090 284512.0000
    111    112   1      0.1529 224262.4000
    111    113   1      0.1522 265265.6000
    111    122   1      0.1529 224262.4000
    112    118   1      0.1090 284512.0000
    112    119   1      0.1090 284512.0000
    112    120   1      0.1090 284512.0000
    113    114   1      0.1229 476976.0000
    113    115   1      0.1364 376560.0000
    115    121   1      0.0945 462750.4000
    122    123   1      0.1529 224262.4000
    122    128   1      0.1090 284512.0000
    122    129   1      0.1090 284512.0000
    123    124   1      0.1529 224262.4000
    123    125   1      0.1522 265265.6000
    123    134   1      0.1529 224262.4000
    124    130   1      0.1090 284512.0000
    124    131   1      0.1090 284512.0000
    124    132   1      0.1090 284512.0000
    125    126   1      0.1229 476976.0000
    125    127   1      0.1364 376560.0000
    127    133   1      0.0945 462750.4000
    134    135   1      0.1529 224262.4000
    134    140   1      0.1090 284512.0000
    134    141   1      0.1090 284512.0000
    135    136   1      0.1529 224262.4000
    135    137   1      0.1522 265265.6000
    135    146   1      0.1529 224262.4000
    136    142   1      0.1090 284512.0000
    136    143   1      0.1090 284512.0000
    136    144   1      0.1090 284512.0000
    137    138   1      0.1229 476976.0000
    137    139   1      0.1364 376560.0000
    139    145   1      0.0945 462750.4000
    146    147   1      0.1529 224262.4000
    146    152   1      0.1090 284512.0000
    146    153   1      0.1090 284512.0000
    147    148   1      0.1529 224262.4000
    147    149   1      0.1522 265265.6000
    147    158   1      0.1529 224262.4000
    148    154   1      0.1090 284512.0000
    148    155   1      0.1090 284512.0000
    148    156   1      0.1090 284512.0000
    149    150   1      0.1229 476976.0000
    149    151   1      0.1364 376560.0000
    151    157   1      0.0945 462750.4000
    158    159   1      0.1529 224262.4000
    158    164   1      0.1090 284512.0000
    158    165   1      0.1090 284512.0000
    159    160   1      0.1529 224262.4000
    159    161   1      0.1522 265265.6000
    159    170   1      0.1529 224262.4000
    160    166   1      0.1090 284512.0000
    160    167   1      0.1090 284512.0000
    160    168   1      0.1090 284512.0000
    161    162   1      0.1229 476976.0000
    161    163   1      0.1364 376560.0000
    163    169   1      0.0945 462750.4000
    170    171   1      0.1529 224262.4000
    170    176   1      0.1090 284512.0000
    170    177   1      0.1090 284512.0000
    171    172   1      0.1529 224262.4000
    171    173   1      0.1522 265265.6000
    171    182   1      0.1529 224262.4000
    172    178   1      0.1090 284512.0000
    172    179   1      0.1090 284512.0000
    172    180   1      0.1090 284512.0000
    173    174   1      0.1229 476976.0000
    173    175   1      0.1364 376560.0000
    175    181   1      0.0945 462750.4000
    182    183   1      0.1529 224262.4000
    182    188   1      0.1090 284512.0000
    182    189   1      0.1090 284512.0000
    183    184   1      0.1529 224262.4000
    183    185   1      0.1522 265265.6000
    183    194   1      0.1529 224262.4000
    184    190   1      0.1090 284512.0000
    184    191   1      0.1090 284512.0000
    184    192   1      0.1090 284512.0000
    185    186   1      0.1229 476976.0000
    185    187   1      0.1364 376560.0000
    187    193   1      0.0945 462750.4000
    194    195   1      0.1529 224262.4000
    194    200   1      0.1090 284512.0000
    194    201   1      0.1090 284512.0000
    195    196   1      0.1529 224262.4000
    195    197   1      0.1522 265265.6000
    195    206   1      0.1529 224262.4000
    196    202   1      0.1090 284512.0000
    196    203   1      0.1090 284512.0000
    196    204   1      0.1090 284512.0000
    197    198   1      0.1229 476976.0000
    197    199   1      0.1364 376560.0000
    199    205   1      0.0945 462750.4000
    206    207   1      0.1529 224262.4000
    206    212   1      0.1090 284512.0000
    206    213   1      0.1090 284512.0000
    207    208   1      0.1529 224262.4000
    207    209   1      0.1522 265265.6000
    207    218   1      0.1529 224262.4000
    208    214   1      0.1090 284512.0000
    208    215   1      0.1090 284512.0000
    208    216   1      0.1090 284512.0000
    209    210   1      0.1229 476976.0000
    209    211   1      0.1364 376560.0000
    211    217   1      0.0945 462750.4000
    218    219   1      0.1529 224262.4000
    218    224   1      0.1090 284512.0000
    218    225   1      0.1090 284512.0000
    219    220   1      0.1529 224262.4000
    219    221   1      0.1522 265265.6000
    219    230   1      0.1529 224262.4000
    220    226   1      0.1090 284512.0000
    220    227   1      0.1090 284512.0000
    220    228   1      0.1090 284512.0000
    221    222   1      0.1229 476976.0000
    221    223   1      0.1364 376560.0000
    223    229   1      0.0945 462750.4000
    230    231   1      0.1529 224262.4000
    230    236   1      0.1090 284512.0000
    230    237   1      0.1090 284512.0000
    231    232   1      0.1529 224262.4000
    231    233   1      0.1522 265265.6000
    231    242   1      0.1090 284512.0000
    232    238   1      0.1090 284512.0000
    232    239   1      0.1090 284512.0000
    232    240   1      0.1090 284512.0000
    233    234   1      0.1229 476976.0000
    233    235   1      0.1364 376560.0000
    235    241   1      0.0945 462750.4000

[ pairs ]
; ai   aj   funct   fudge_QQ  charge_i   charge_j   c6    c12
      7      3   2   0.50000     0.0600000   -0.1800000   2.494471e-04  1.671101e-07
      7      4   2   0.50000     0.0600000    0.5200000   3.869820e-04  3.188634e-07
      7     14   2   0.50000     0.0600000   -0.1200000   2.494471e-04  1.671101e-07
      8      3   2   0.50000     0.0600000   -0.1800000   2.494471e-04  1.671101e-07
      8      4   2   0.50000     0.0600000    0.5200000   3.869820e-04  3.188634e-07
      8     14   2   0.50000     0.0600000   -0.1200000   2.494471e-04  1.671101e-07
     13      3   2   0.50000     0.0600000   -0.1800000   2.494471e-04  1.671101e-07
     13      4   2   0.50000     0.0600000    0.5200000   3.869820e-04  3.188634e-07
     13     14   2   0.50000     0.0600000   -0.1200000   2.494471e-04  1.671101e-07
      1      9   2   0.50000    -0.1800000    0.0600000   2.494471e-04  1.671101e-07
      1     10   2   0.50000    -0.1800000    0.0600000   2.494471e-04  1.671101e-07
      1     11   2   0.50000    -0.1800000    0.0600000   2.494471e-04  1.671101e-07
      4      9   2   0.50000     0.5200000    0.0600000   3.869820e-04  3.188634e-07
      4     10   2   0.50000     0.5200000    0.0600000   3.869820e-04  3.188634e-07
      4     11   2   0.50000     0.5200000    0.0600000   3.869820e-04  3.188634e-07
     14      9   2   0.50000    -0.1200000    0.0600000   2.494471e-04  1.671101e-07
     14     10   2   0.50000    -0.1200000    0.0600000   2.494471e-04  1.671101e-07
     14     11   2   0.50000    -0.1200000    0.0600000   2.494471e-04  1.671101e-07
      1      5   2   0.50000    -0.1800000   -0.4400000   1.095425e-03  1.218041e-06
      1      6   2   0.50000    -0.1800000   -0.5300000   1.026091e-03  1.187829e-06
      3      5   2   0.50000    -0.1800000   -0.4400000   1.095425e-03  1.218041e-06
      3      6   2   0.50000    -0.1800000   -0.5300000   1.026091e-03  1.187829e-06
     14      5   2   0.50000    -0.1200000   -0.4400000   1.095425e-03  1.218041e-06
     14      6   2   0.50000    -0.1200000   -0.5300000   1.026091e-03  1.187829e-06
      1     15   2   0.50000    -0.1800000    0.0000000   1.015252e-03  1.866303e-06
      1     20   2   0.50000    -0.1800000    0.0600000   2.494471e-04  1.671101e-07
      1     21   2   0.50000    -0.1800000    0.0600000   2.494471e-04  1.671101e-07
      3     15   2   0.50000    -0.1800000    0.0000000   1.015252e-03  1.866303e-06
      3     20   2   0.50000    -0.1800000    0.0600000   2.494471e-04  1.671101e-07
      3     21   2   0.50000    -0.1800000    0.0600000   2.494471e-04  1.671101e-07
      4     15   2   0.50000     0.5200000    0.0000000   1.575021e-03  3.561100e-06
      4     20   2   0.50000     0.5200000    0.0600000   3.869820e-04  3.188634e-07
      4     21   2   0.50000     0.5200000    0.0600000   3.869820e-04  3.188634e-07
      2     12   2   0.50000     0.0000000    0.4500000   1.995577e-06  1.069504e-11
      5     12   2   0.50000    -0.4400000    0.4500000   2.153164e-06  6.980110e-12
      2     16   2   0.50000     0.0000000   -0.1800000   1.015252e-03  1.866303e-06
      2     17   2   0.50000     0.0000000    0.5200000   1.575021e-03  3.561100e-06
      2     26   2   0.50000     0.0000000   -0.1200000   1.015252e-03  1.866303e-06
     20     16   2   0.50000     0.0600000   -0.1800000   2.494471e-04  1.671101e-07
     20     17   2   0.50000     0.0600000    0.5200000   3.869820e-04  3.188634e-07
     20     26   2   0.50000     0.0600000   -0.1200000   2.494471e-04  1.671101e-07
     21     16   2   0.50000     0.0600000   -0.1800000   2.494471e-04  1.671101e-07
     21     17   2   0.50000     0.0600000    0.5200000   3.869820e-04  3.188634e-07
     21     26   2   0.50000     0.0600000   -0.1200000   2.494471e-04  1.671101e-07
     14     22   2   0.50000    -0.1200000    0.0600000   2.494471e-04  1.671101e-07
     14     23   2   0.50000    -0.1200000    0.0600000   2.494471e-04  1.671101e-07
     14     24   2   0.50000    -0.1200000    0.0600000   2.494471e-04  1.671101e-07
     17     22   2   0.50000     0.5200000    0.0600000   3.869820e-04  3.188634e-07
     17     23   2   0.50000     0.5200000    0.0600000   3.869820e-04  3.188634e-07
     17     24   2   0.50000     0.5200000    0.0600000   3.869820e-04  3.188634e-07
     26     22   2   0.50000    -0.1200000    0.0600000   2.494471e-04  1.671101e-07
     26     23   2   0.50000    -0.1200000    0.0600000   2.494471e-04  1.671101e-07
     26     24   2   0.50000    -0.1200000    0.0600000   2.494471e-04  1.671101e-07
     14     18   2   0.50000    -0.1200000   -0.4400000   1.095425e-03  1.218041e-06
     14     19   2   0.50000    -0.1200000   -0.5300000   1.026091e-03  1.187829e-06
     16     18   2   0.50000    -0.1800000   -0.4400000   1.095425e-03  1.218041e-06
     16     19   2   0.50000    -0.1800000   -0.5300000   1.026091e-03  1.187829e-06
     26     18   2   0.50000    -0.1200000   -0.4400000   1.095425e-03  1.218041e-06
     26     19   2   0.50000    -0.1200000   -0.5300000   1.026091e-03  1.187829e-06
     14     27   2   0.50000    -0.1200000    0.0000000   1.015252e-03  1.866303e-06
     14     32   2   0.50000    -0.1200000    0.0600000   2.494471e-04  1.671101e-07
     14     33   2   0.50000    -0.1200000    0.0600000   2.494471e-04  1.671101e-07
     16     27   2   0.50000    -0.1800000    0.0000000   1.015252e-03  1.866303e-06
     16     32   2   0.50000    -0.1800000    0.0600000   2.494471e-04  1.671101e-07
     16     33   2   0.50000    -0.1800000    0.0600000   2.494471e-04  1.671101e-07
     17     27   2   0.50000     0.5200000    0.0000000   1.575021e-03  3.561100e-06
     17     32   2   0.50000     0.5200000    0.0600000   3.869820e-04  3.188634e-07
     17     33   2   0.50000     0.5200000    0.0600000   3.869820e-04  3.188634e-07
     15     25   2   0.50000     0.0000000    0.4500000   1.995577e-06  1.069504e-11
     18     25   2   0.50000    -0.4400000    0.4500000   2.153164e-06  6.980110e-12
     15     28   2   0.50000     0.0000000   -0.1800000   1.015252e-03  1.866303e-06
     15     29   2   0.50000     0.0000000    0.5200000   1.575021e-03  3.561100e-06
     15     38   2   0.50000     0.0000000   -0.1200000   1.015252e-03  1.866303e-06
     32     28   2   0.50000     0.0600000   -0.1800000   2.494471e-04  1.671101e-07
     32     29   2   0.50000     0.0600000    0.5200000   3.869820e-04  3.188634e-07
     32     38   2   0.50000     0.0600000   -0.1200000   2.494471e-04  1.671101e-07
     33     28   2   0.50000     0.0600000   -0.1800000   2.494471e-04  1.671101e-07
     33     29   2   0.50000     0.0600000    0.5200000   3.869820e-04  3.188634e-07
     33     38   2   0.50000     0.0600000   -0.1200000   2.494471e-04  1.671101e-07
     26     34   2   0.50000    -0.1200000    0.0600000   2.494471e-04  1.671101e-07
     26     35   2   0.50000    -0.1200000    0.0600000   2.494471e-04  1.671101e-07
     26     36   2   0.50000    -0.1200000    0.0600000   2.494471e-04  1.671101e-07
     29     34   2   0.50000     0.5200000    0.0600000   3.869820e-04  3.188634e-07
     29     35   2   0.50000     0.5200000    0.0600000   3.869820e-04  3.188634e-07
     29     36   2   0.50000     0.5200000    0.0600000   3.869820e-04  3.188634e-07
     38     34   2   0.50000    -0.1200000    0.0600000   2.494471e-04  1.671101e-07
     38     35   2   0.50000    -0.1200000    0.0600000   2.494471e-04  1.671101e-07
     38     36   2   0.50000    -0.1200000    0.0600000   2.494471e-04  1.671101e-07
     26     30   2   0.50000    -0.1200000   -0.4400000   1.095425e-03  1.218041e-06
     26     31   2   0.50000    -0.1200000   -0.5300000   1.026091e-03  1.187829e-06
     28     30   2   0.50000    -0.1800000   -0.4400000   1.095425e-03  1.218041e-06
     28     31   2   0.50000    -0.1800000   -0.5300000   1.026091e-03  1.187829e-06
     38     30   2   0.50000    -0.1200000   -0.4400000   1.095425e-03  1.218041e-06
     38     31   2   0.50000    -0.1200000   -0.5300000   1.026091e-03  1.187829e-06
     26     39   2   0.50000    -0.1200000    0.0000000   1.015252e-03  1.866303e-06
     26     44   2   0.50000    -0.1200000    0.0600000   2.494471e-04  1.671101e-07
     26     45   2   0.50000    -0.1200000    0.0600000   2.494471e-04  1.671101e-07
     28     39   2   0.50000    -0.1800000    0.0000000   1.015252e-03  1.866303e-06
     28     44   2   0.50000    -0.1800000    0.0600000   2.494471e-04  1.671101e-07
     28     45   2   0.50000    -0.1800000    0.0600000   2.494471e-04  1.671101e-07
     29     39   2   0.50000     0.5200000    0.0000000   1.575021e-03  3.561100e-06
     29     44   2   0.50000     0.5200000    0.0600000   3.869820e-04  3.188634e-07
     29     45   2   0.50000     0.5200000    0.0600000   3.869820e-04  3.188634e-07
     27     37   2   0.50000     0.0000000    0.4500000   1.995577e-06  1.069504e-11
     30     37   2   0.50000    -0.4400000    0.4500000   2.153164e-06  6.980110e-12
     27     40   2   0.50000     0.0000000   -0.1800000   1.015252e-03  1.866303e-06
     27     41   2   0.50000     0.0000000    0.5200000   1.575021e-03  3.561100e-06
     27     50   2   0.50000     0.0000000   -0.1200000   1.015252e-03  1.866303e-06
     44     40   2   0.50000     0.0600000   -0.1800000   2.494471e-04  1.671101e-07
     44     41   2   0.50000     0.0600000    0.5200000   3.869820e-04  3.188634e-07
     44     50   2   0.50000     0.0600000   -0.1200000   2.494471e-04  1.671101e-07
     45     40   2   0.50000     0.0600000   -0.1800000   2.494471e-04  1.671101e-07
     45     41   2   0.50000     0.0600000    0.5200000   3.869820e-04  3.188634e-07
     45     50   2   0.50000     0.0600000   -0.1200000   2.494471e-04  1.671101e-07
     38     46   2   0.50000    -0.1200000    0.0600000   2.494471e-04  1.671101e-07
     38     47   2   0.50000    -0.1200000    0.0600000   2.494471e-04  1.671101e-07
     38     48   2   0.50000    -0.1200000    0.0600000   2.494471e-04  1.671101e-07
     41     46   2   0.50000     0.5200000    0.0600000   3.869820e-04  3.188634e-07
     41     47   2   0.50000     0.5200000    0.0600000   3.869820e-04  3.188634e-07
     41     48   2   0.50000     0.5200000    0.0600000   3.869820e-04  3.188634e-07
     50     46   2   0.50000    -0.1200000    0.0600000   2.494471e-04  1.671101e-07
     50     47   2   0.50000    -0.1200000    0.0600000   2.494471e-04  1.671101e-07
     50     48   2   0.50000    -0.1200000    0.0600000   2.494471e-04  1.671101e-07
     38     42   2   0.50000    -0.1200000   -0.4400000   1.095425e-03  1.218041e-06
     38     43   2   0.50000    -0.1200000   -0.5300000   1.026091e-03  1.187829e-06
     40     42   2   0.50000    -0.1800000   -0.4400000   1.095425e-03  1.218041e-06
     40     43   2   0.50000    -0.1800000   -0.5300000   1.026091e-03  1.187829e-06
     50     42   2   0.50000    -0.1200000   -0.4400000   1.095425e-03  1.218041e-06
     50     43   2   0.50000    -0.1200000   -0.5300000   1.026091e-03  1.187829e-06
     38     51   2   0.50000    -0.1200000    0.0000000   1.015252e-03  1.866303e-06
     38     56   2   0.50000    -0.1200000    0.0600000   2.494471e-04  1.671101e-07
     38     57   2   0.50000    -0.1200000    0.0600000   2.494471e-04  1.671101e-07
     40     51   2   0.50000    -0.1800000    0.0000000   1.015252e-03  1.866303e-06
     40     56   2   0.50000    -0.1800000    0.0600000   2.494471e-04  1.671101e-07
     40     57   2   0.50000    -0.1800000    0.0600000   2.494471e-04  1.671101e-07
     41     51   2   0.50000     0.5200000    0.0000000   1.575021e-03  3.561100e-06
     41     56   2   0.50000     0.5200000    0.0600000   3.869820e-04  3.188634e-07
     41     57   2   0.50000     0.5200000    0.0600000   3.869820e-04  3.188634e-07
     39     49   2   0.50000     0.0000000    0.4500000   1.995577e-06  1.069504e-11
     42     49   2   0.50000    -0.4400000    0.4500000   2.153164e-06  6.980110e-12
     39     52   2   0.50000     0.0000000   -0.1800000   1.015252e-03  1.866303e-06
     39     53   2   0.50000     0.0000000    0.5200000   1.575021e-03  3.561100e-06
     39     62   2   0.50000     0.0000000   -0.1200000   1.015252e-03  1.866303e-06
     56     52   2   0.50000     0.0600000   -0.1800000   2.494471e-04  1.671101e-07
     56     53   2   0.50000     0.0600000    0.5200000   3.869820e-04  3.188634e-07
     56     62   2   0.50000     0.0600000   -0.1200000   2.494471e-04  1.671101e-07
     57     52   2   0.50000     0.0600000   -0.1800000   2.494471e-04  1.671101e-07
     57     53   2   0.50000     0.0600000    0.5200000   3.869820e-04  3.188634e-07
     57     62   2   0.50000     0.0600000   -0.1200000   2.494471e-04  1.671101e-07
     50     58   2   0.50000    -0.1200000    0.0600000   2.494471e-04  1.671101e-07
     50     59   2   0.50000    -0.1200000    0.0600000   2.494471e-04  1.671101e-07
     50     60   2   0.50000    -0.1200000    0.0600000   2.494471e-04  1.671101e-07
     53     58   2   0.50000     0.5200000    0.0600000   3.869820e-04  3.188634e-07
     53     59   2   0.50000     0.5200000    0.0600000   3.869820e-04  3.188634e-07
     53     60   2   0.50000     0.5200000    0.0600000   3.869820e-04  3.188634e-07
     62     58   2   0.50000    -0.1200000    0.0600000   2.494471e-04  1.671101e-07
     62     59   2   0.50000    -0.1200000    0.0600000   2.494471e-04  1.671101e-07
     62     60   2   0.50000    -0.1200000    0.0600000   2.494471e-04  1.671101e-07
     50     54   2   0.50000    -0.1200000   -0.4400000   1.095425e-03  1.218041e-06
     50     55   2   0.50000    -0.1200000   -0.5300000   1.026091e-03  1.187829e-06
     52     54   2   0.50000    -0.1800000   -0.4400000   1.095425e-03  1.218041e-06
     52     55   2   0.50000    -0.1800000   -0.5300000   1.026091e-03  1.187829e-06
     62     54   2   0.50000    -0.1200000   -0.4400000   1.095425e-03  1.218041e-06
     62     55   2   0.50000    -0.1200000   -0.5300000   1.026091e-03  1.187829e-06
     50     63   2   0.50000    -0.1200000    0.0000000   1.015252e-03  1.866303e-06
     50     68   2   0.50000    -0.1200000    0.0600000   2.494471e-04  1.671101e-07
     50     69   2   0.50000    -0.1200000    0.0600000   2.494471e-04  1.671101e-07
     52     63   2   0.50000    -0.1800000    0.0000000   1.015252e-03  1.866303e-06
     52     68   2   0.50000    -0.1800000    0.0600000   2.494471e-04  1.671101e-07
     52     69   2   0.50000    -0.1800000    0.0600000   2.494471e-04  1.671101e-07
     53     63   2   0.50000     0.5200000    0.0000000   1.575021e-03  3.561100e-06
     53     68   2   0.50000     0.5200000    0.0600000   3.869820e-04  3.188634e-07
     53     69   2   0.50000     0.5200000    0.0600000   3.869820e-04  3.188634e-07
     51     61   2   0.50000     0.0000000    0.4500000   1.995577e-06  1.069504e-11
     54     61   2   0.50000    -0.4400000    0.4500000   2.153164e-06  6.980110e-12
     51     64   2   0.50000     0.0000000   -0.1800000   1.015252e-03  1.866303e-06
     51     65   2   0.50000     0.0000000    0.5200000   1.575021e-03  3.561100e-06
     51     74   2   0.50000     0.0000000   -0.1200000   1.015252e-03  1.866303e-06
     68     64   2   0.50000     0.0600000   -0.1800000   2.494471e-04  1.671101e-07
     68     65   2   0.50000     0.0600000    0.5200000   3.869820e-04  3.188634e-07
     68     74   2   0.50000     0.0600000   -0.1200000   2.494471e-04  1.671101e-07
     69     64   2   0.50000     0.0600000   -0.1800000   2.494471e-04  1.671101e-07
     69     65   2   0.50000     0.0600000    0.5200000   3.869820e-04  3.188634e-07
     69     74   2   0.50000     0.0600000   -0.1200000   2.494471e-04  1.671101e-07
     62     70   2   0.50000    -0.1200000    0.0600000   2.494471e-04  1.671101e-07
     62     71   2   0.50000    -0.1200000    0.0600000   2.494471e-04  1.671101e-07
     62     72   2   0.50000    -0.1200000    0.0600000   2.494471e-04  1.671101e-07
     65     70   2   0.50000     0.5200000    0.0600000   3.869820e-04  3.188634e-07
     65     71   2   0.50000     0.5200000    0.0600000   3.869820e-04  3.188634e-07
     65     72   2   0.50000     0.5200000    0.0600000   3.869820e-04  3.188634e-07
     74     70   2   0.50000    -0.1200000    0.0600000   2.494471e-04  1.671101e-07
     74     71   2   0.50000    -0.1200000    0.0600000   2.494471e-04  1.671101e-07
     74     72   2   0.50000    -0.1200000    0.0600000   2.494471e-04  1.671101e-07
     62     66   2   0.50000    -0.1200000   -0.4400000   1.095425e-03  1.218041e-06
     62     67   2   0.50000    -0.1200000   -0.5300000   1.026091e-03  1.187829e-06
     64     66   2   0.50000    -0.1800000   -0.4400000   1.095425e-03  1.218041e-06
     64     67   2   0.50000    -0.1800000   -0.5300000   1.026091e-03  1.187829e-06
     74     66   2   0.50000    -0.1200000   -0.4400000   1.095425e-03  1.218041e-06
     74     67   2   0.50000    -0.1200000   -0.5300000   1.026091e-03  1.187829e-06
     62     75   2   0.50000    -0.1200000    0.0000000   1.015252e-03  1.866303e-06
     62     80   2   0.50000    -0.1200000    0.0600000   2.494471e-04  1.671101e-07
     62     81   2   0.50000    -0.1200000    0.0600000   2.494471e-04  1.671101e-07
     64     75   2   0.50000    -0.1800000    0.0000000   1.015252e-03  1.866303e-06
     64     80   2   0.50000    -0.1800000    0.0600000   2.494471e-04  1.671101e-07
     64     81   2   0.50000    -0.1800000    0.0600000   2.494471e-04  1.671101e-07
     65     75   2   0.50000     0.5200000    0.0000000   1.575021e-03  3.561100e-06
     65     80   2   0.50000     0.5200000    0.0600000   3.869820e-04  3.188634e-07
     65     81   2   0.50000     0.5200000    0.0600000   3.869820e-04  3.188634e-07
     63     73   2   0.50000     0.0000000    0.4500000   1.995577e-06  1.069504e-11
     66     73   2   0.50000    -0.4400000    0.4500000   2.153164e-06  6.980110e-12
     63     76   2   0.50000     0.0000000   -0.1800000   1.015252e-03  1.866303e-06
     63     77   2   0.50000     0.0000000    0.5200000   1.575021e-03  3.561100e-06
     63     86   2   0.50000     0.0000000   -0.1200000   1.015252e-03  1.866303e-06
     80     76   2   0.50000     0.0600000   -0.1800000   2.494471e-04  1.671101e-07
     80     77   2   0.50000     0.0600000    0.5200000   3.869820e-04  3.188634e-07
     80     86   2   0.50000     0.0600000   -0.1200000   2.494471e-04  1.671101e-07
     81     76   2   0.50000     0.0600000   -0.1800000   2.494471e-04  1.671101e-07
     81     77   2   0.50000     0.0600000    0.5200000   3.869820e-04  3.188634e-07
     81     86   2   0.50000     0.0600000   -0.1200000   2.494471e-04  1.671101e-07
     74     82   2   0.50000    -0.1200000    0.0600000   2.494471e-04  1.671101e-07
     74     83   2   0.50000    -0.1200000    0.0600000   2.494471e-04  1.671101e-07
     74     84   2   0.50000    -0.1200000    0.0600000   2.494471e-04  1.671101e-07
     77     82   2   0.50000     0.5200000    0.0600000   3.869820e-04  3.188634e-07
     77     83   2   0.50000     0.5200000    0.0600000   3.869820e-04  3.188634e-07
     77     84   2   0.50000     0.5200000    0.0600000   3.869820e-04  3.188634e-07
     86     82   2   0.50000    -0.1200000    0.0600000   2.494471e-04  1.671101e-07
     86     83   2   0.50000    -0.1200000    0.0600000   2.494471e-04  1.671101e-07
     86     84   2   0.50000    -0.1200000    0.0600000   2.494471e-04  1.671101e-07
     74     78   2   0.50000    -0.1200000   -0.4400000   1.095425e-03  1.218041e-06
     74     79   2   0.50000    -0.1200000   -0.5300000   1.026091e-03  1.187829e-06
     76     78   2   0.50000    -0.1800000   -0.4400000   1.095425e-03  1.218041e-06
     76     79   2   0.50000    -0.1800000   -0.5300000   1.026091e-03  1.187829e-06
     86     78   2   0.50000    -0.1200000   -0.4400000   1.095425e-03  1.218041e-06
     86     79   2   0.50000    -0.1200000   -0.5300000   1.026091e-03  1.187829e-06
     74     87   2   0.50000    -0.1200000    0.0000000   1.015252e-03  1.866303e-06
     74     92   2   0.50000    -0.1200000    0.0600000   2.494471e-04  1.671101e-07
     74     93   2   0.50000    -0.1200000    0.0600000   2.494471e-04  1.671101e-07
     76     87   2   0.50000    -0.1800000    0.0000000   1.015252e-03  1.866303e-06
     76     92   2   0.50000    -0.1800000    0.0600000   2.494471e-04  1.671101e-07
     76     93   2   0.50000    -0.1800000    0.0600000   2.494471e-04  1.671101e-07
     77     87   2   0.50000     0.5200000    0.0000000   1.575021e-03  3.561100e-06
     77     92   2   0.50000     0.5200000    0.0600000   3.869820e-04  3.188634e-07
     77     93   2   0.50000     0.5200000    0.0600000   3.869820e-04  3.188634e-07
     75     85   2   0.50000     0.0000000    0.4500000   1.995577e-06  1.069504e-11
     78     85   2   0.50000    -0.4400000    0.4500000   2.153164e-06  6.980110e-12
     75     88   2   0.50000     0.0000000   -0.1800000   1.015252e-03  1.866303e-06
     75     89   2   0.50000     0.0000000    0.5200000   1.575021e-03  3.561100e-06
     75     98   2   0.50000     0.0000000   -0.1200000   1.015252e-03  1.866303e-06
     92     88   2   0.50000     0.0600000   -0.1800000   2.494471e-04  1.671101e-07
     92     89   2   0.50000     0.0600000    0.5200000   3.869820e-04  3.188634e-07
     92     98   2   0.50000     0.0600000   -0.1200000   2.494471e-04  1.671101e-07
     93     88   2   0.50000     0.0600000   -0.1800000   2.494471e-04  1.671101e-07
     93     89   2   0.50000     0.0600000    0.5200000   3.869820e-04  3.188634e-07
     93     98   2   0.50000     0.0600000   -0.1200000   2.494471e-04  1.671101e-07
     86     94   2   0.50000    -0.1200000    0.0600000   2.494471e-04  1.671101e-07
     86     95   2   0.50000    -0.1200000    0.0600000   2.494471e-04  1.671101e-07
     86     96   2   0.50000    -0.1200000    0.0600000   2.494471e-04  1.671101e-07
     89     94   2   0.50000     0.5200000    0.0600000   3.869820e-04  3.188634e-07
     89     95   2   0.50000     0.5200000    0.0600000   3.869820e-04  3.188634e-07
     89     96   2   0.50000     0.5200000    0.0600000   3.869820e-04  3.188634e-07
     98     94   2   0.50000    -0.1200000    0.0600000   2.494471e-04  1.671101e-07
     98     95   2   0.50000    -0.1200000    0.0600000   2.494471e-04  1.671101e-07
     98     96   2   0.50000    -0.1200000    0.0600000   2.494471e-04  1.671101e-07
     86     90   2   0.50000    -0.1200000   -0.4400000   1.095425e-03  1.218041e-06
     86     91   2   0.50000    -0.1200000   -0.5300000   1.026091e-03  1.187829e-06
     88     90   2   0.50000    -0.1800000   -0.4400000   1.095425e-03  1.218041e-06
     88     91   2   0.50000    -0.1800000   -0.5300000   1.026091e-03  1.187829e-06
     98     90   2   0.50000    -0.1200000   -0.4400000   1.095425e-03  1.218041e-06
     98     91   2   0.50000    -0.1200000   -0.5300000   1.026091e-03  1.187829e-06
     86     99   2   0.50000    -0.1200000    0.0000000   1.015252e-03  1.866303e-06
     86    104   2   0.50000    -0.1200000    0.0600000   2.494471e-04  1.671101e-07
     86    105   2   0.50000    -0.1200000    0.0600000   2.494471e-04  1.671101e-07
     88     99   2   0.50000    -0.1800000    0.0000000   1.015252e-03  1.866303e-06
     88    104   2   0.50000    -0.1800000    0.0600000   2.494471e-04  1.671101e-07
     88    105   2   0.50000    -0.1800000    0.0600000   2.494471e-04  1.671101e-07
     89     99   2   0.50000     0.5200000    0.0000000   1.575021e-03  3.561100e-06
     89    104   2   0.50000     0.5200000    0.0600000   3.869820e-04  3.188634e-07
     89    105   2   0.50000     0.5200000    0.0600000   3.869820e-04  3.188634e-07
     87     97   2   0.50000     0.0000000    0.4500000   1.995577e-06  1.069504e-11
     90     97   2   0.50000    -0.4400000    0.4500000   2.153164e-06  6.980110e-12
     87    100   2   0.50000     0.0000000   -0.1800000   1.015252e-03  1.866303e-06
     87    101   2   0.50000     0.0000000    0.5200000   1.575021e-03  3.561100e-06
     87    110   2   0.50000     0.0000000   -0.1200000   1.015252e-03  1.866303e-06
    104    100   2   0.50000     0.0600000   -0.1800000   2.494471e-04  1.671101e-07
    104    101   2   0.50000     0.0600000    0.5200000   3.869820e-04  3.188634e-07
    104    110   2   0.50000     0.0600000   -0.1200000   2.494471e-04  1.671101e-07
    105    100   2   0.50000     0.0600000   -0.1800000   2.494471e-04  1.671101e-07
    105    101   2   0.50000     0.0600000    0.5200000   3.869820e-04  3.188634e-07
    105    110   2   0.50000     0.0600000   -0.1200000   2.494471e-04  1.671101e-07
     98    106   2   0.50000    -0.1200000    0.0600000   2.494471e-04  1.671101e-07
     98    107   2   0.50000    -0.1200000    0.0600000   2.494471e-04  1.671101e-07
     98    108   2   0.50000    -0.1200000    0.0600000   2.494471e-04  1.671101e-07
    101    106   2   0.50000     0.5200000    0.0600000   3.869820e-04  3.188634e-07
    101    107   2   0.50000     0.5200000    0.0600000   3.869820e-04  3.188634e-07
    101    108   2   0.50000     0.5200000    0.0600000   3.869820e-04  3.188634e-07
    110    106   2   0.50000    -0.1200000    0.0600000   2.494471e-04  1.671101e-07
    110    107   2   0.50000    -0.1200000    0.0600000   2.494471e-04  1.671101e-07
    110    108   2   0.50000    -0.1200000    0.0600000   2.494471e-04  1.671101e-07
     98    102   2   0.50000    -0.1200000   -0.4400000   1.095425e-03  1.218041e-06
     98    103   2   0.50000    -0.1200000   -0.5300000   1.026091e-03  1.187829e-06
    100    102   2   0.50000    -0.1800000   -0.4400000   1.095425e-03  1.218041e-06
    100    103   2   0.50000    -0.1800000   -0.5300000   1.026091e-03  1.187829e-06
    110    102   2   0.50000    -0.1200000   -0.4400000   1.095425e-03  1.218041e-06
    110    103   2   0.50000    -0.1200000   -0.5300000   1.026091e-03  1.187829e-06
     98    111   2   0.50000    -0.1200000    0.0000000   1.015252e-03  1.866303e-06
     98    116   2   0.50000    -0.1200000    0.0600000   2.494471e-04  1.671101e-07
     98    117   2   0.50000    -0.1200000    0.0600000   2.494471e-04  1.671101e-07
    100    111   2   0.50000    -0.1800000    0.0000000   1.015252e-03  1.866303e-06
    100    116   2   0.50000    -0.1800000    0.0600000   2.494471e-04  1.671101e-07
    100    117   2   0.50000    -0.1800000    0.0600000   2.494471e-04  1.671101e-07
    101    111   2   0.50000     0.5200000    0.0000000   1.575021e-03  3.561100e-06
    101    116   2   0.50000     0.5200000    0.0600000   3.869820e-04  3.188634e-07
    101    117   2   0.50000     0.5200000    0.0600000   3.869820e-04  3.188634e-07
     99    109   2   0.50000     0.0000000    0.4500000   1.995577e-06  1.069504e-11
    102    109   2   0.50000    -0.4400000    0.4500000   2.153164e-06  6.980110e-12
     99    112   2   0.50000     0.0000000   -0.1800000   1.015252e-03  1.866303e-06
     99    113   2   0.50000     0.0000000    0.5200000   1.575021e-03  3.561100e-06
     99    122   2   0.50000     0.0000000   -0.1200000   1.015252e-03  1.866303e-06
    116    112   2   0.50000     0.0600000   -0.1800000   2.494471e-04  1.671101e-07
    116    113   2   0.50000     0.0600000    0.5200000   3.869820e-04  3.188634e-07
    116    122   2   0.50000     0.0600000   -0.1200000   2.494471e-04  1.671101e-07
    117    112   2   0.50000     0.0600000   -0.1800000   2.494471e-04  1.671101e-07
    117    113   2   0.50000     0.0600000    0.5200000   3.869820e-04  3.188634e-07
    117    122   2   0.50000     0.0600000   -0.1200000   2.494471e-04  1.671101e-07
    110    118   2   0.50000    -0.1200000    0.0600000   2.494471e-04  1.671101e-07
    110    119   2   0.50000    -0.1200000    0.0600000   2.494471e-04  1.671101e-07
    110    120   2   0.50000    -0.1200000    0.0600000   2.494471e-04  1.671101e-07
    113    118   2   0.50000     0.5200000    0.0600000   3.869820e-04  3.188634e-07
    113    119   2   0.50000     0.5200000    0.0600000   3.869820e-04  3.188634e-07
    113    120   2   0.50000     0.5200000    0.0600000   3.869820e-04  3.188634e-07
    122    118   2   0.50000    -0.1200000    0.0600000   2.494471e-04  1.671101e-07
    122    119   2   0.50000    -0.1200000    0.0600000   2.494471e-04  1.671101e-07
    122    120   2   0.50000    -0.1200000    0.0600000   2.494471e-04  1.671101e-07
    110    114   2   0.50000    -0.1200000   -0.4400000   1.095425e-03  1.218041e-06
    110    115   2   0.50000    -0.1200000   -0.5300000   1.026091e-03  1.187829e-06
    112    114   2   0.50000    -0.1800000   -0.4400000   1.095425e-03  1.218041e-06
    112    115   2   0.50000    -0.1800000   -0.5300000   1.026091e-03  1.187829e-06
    122    114   2   0.50000    -0.1200000   -0.4400000   1.095425e-03  1.218041e-06
    122    115   2   0.50000    -0.1200000   -0.5300000   1.026091e-03  1.187829e-06
    110    123   2   0.50000    -0.1200000    0.0000000   1.015252e-03  1.866303e-06
    110    128   2   0.50000    -0.1200000    0.0600000   2.494471e-04  1.671101e-07
    110    129   2   0.50000    -0.1200000    0.0600000   2.494471e-04  1.671101e-07
    112    123   2   0.50000    -0.1800000    0.0000000   1.015252e-03  1.866303e-06
    112    128   2   0.50000    -0.1800000    0.0600000   2.494471e-04  1.671101e-07
    112    129   2   0.50000    -0.1800000    0.0600000   2.494471e-04  1.671101e-07
    113    123   2   0.50000     0.5200000    0.0000000   1.575021e-03  3.561100e-06
    113    128   2   0.50000     0.5200000    0.0600000   3.869820e-04  3.188634e-07
    113    129   2   0.50000     0.5200000    0.0600000   3.869820e-04  3.188634e-07
    111    121   2   0.50000     0.0000000    0.4500000   1.995577e-06  1.069504e-11
    114    121   2   0.50000    -0.4400000    0.4500000   2.153164e-06  6.980110e-12
    111    124   2   0.50000     0.0000000   -0.1800000   1.015252e-03  1.866303e-06
    111    125   2   0.50000     0.0000000    0.5200000   1.575021e-03  3.561100e-06
    111    134   2   0.50000     0.0000000   -0.1200000   1.015252e-03  1.866303e-06
    128    124   2   0.50000     0.0600000   -0.1800000   2.494471e-04  1.671101e-07
    128    125   2   0.50000     0.0600000    0.5200000   3.869820e-04  3.188634e-07
    128    134   2   0.50000     0.0600000   -0.1200000   2.494471e-04  1.671101e-07
    129    124   2   0.50000     0.0600000   -0.1800000   2.494471e-04  1.671101e-07
    129    125   2   0.50000     0.0600000    0.5200000   3.869820e-04  3.188634e-07
    129    134   2   0.50000     0.0600000   -0.1200000   2.494471e-04  1.671101e-07
    122    130   2   0.50000    -0.1200000    0.0600000   2.494471e-04  1.671101e-07
    122    131   2   0.50000    -0.1200000    0.0600000   2.494471e-04  1.671101e-07
    122    132   2   0.50000    -0.1200000    0.0600000   2.494471e-04  1.671101e-07
    125    130   2   0.50000     0.5200000    0.0600000   3.869820e-04  3.188634e-07
    125    131   2   0.50000     0.5200000    0.0600000   3.869820e-04  3.188634e-07
    125    132   2   0.50000     0.5200000    0.0600000   3.869820e-04  3.188634e-07
    134    130   2   0.50000    -0.1200000    0.0600000   2.494471e-04  1.671101e-07
    134    131   2   0.50000    -0.1200000    0.0600000   2.494471e-04  1.671101e-07
    134    132   2   0.50000    -0.1200000    0.0600000   2.494471e-04  1.671101e-07
    122    126   2   0.50000    -0.1200000   -0.4400000   1.095425e-03  1.218041e-06
    122    127   2   0.50000    -0.1200000   -0.5300000   1.026091e-03  1.187829e-06
    124    126   2   0.50000    -0.1800000   -0.4400000   1.095425e-03  1.218041e-06
    124    127   2   0.50000    -0.1800000   -0.5300000   1.026091e-03  1.187829e-06
    134    126   2   0.50000    -0.1200000   -0.4400000   1.095425e-03  1.218041e-06
    134    127   2   0.50000    -0.1200000   -0.5300000   1.026091e-03  1.187829e-06
    122    135   2   0.50000    -0.1200000    0.0000000   1.015252e-03  1.866303e-06
    122    140   2   0.50000    -0.1200000    0.0600000   2.494471e-04  1.671101e-07
    122    141   2   0.50000    -0.1200000    0.0600000   2.494471e-04  1.671101e-07
    124    135   2   0.50000    -0.1800000    0.0000000   1.015252e-03  1.866303e-06
    124    140   2   0.50000    -0.1800000    0.0600000   2.494471e-04  1.671101e-07
    124    141   2   0.50000    -0.1800000    0.0600000   2.494471e-04  1.671101e-07
    125    135   2   0.50000     0.5200000    0.0000000   1.575021e-03  3.561100e-06
    125    140   2   0.50000     0.5200000    0.0600000   3.869820e-04  3.188634e-07
    125    141   2   0.50000     0.5200000    0.0600000   3.869820e-04  3.188634e-07
    123    133   2   0.50000     0.0000000    0.4500000   1.995577e-06  1.069504e-11
    126    133   2   0.50000    -0.4400000    0.4500000   2.153164e-06  6.980110e-12
    123    136   2   0.50000     0.0000000   -0.1800000   1.015252e-03  1.866303e-06
    123    137   2   0.50000     0.0000000    0.5200000   1.575021e-03  3.561100e-06
    123    146   2   0.50000     0.0000000   -0.1200000   1.015252e-03  1.866303e-06
    140    136   2   0.50000     0.0600000   -0.1800000   2.494471e-04  1.671101e-07
    140    137   2   0.50000     0.0600000    0.5200000   3.869820e-04  3.188634e-07
    140    146   2   0.50000     0.0600000   -0.1200000   2.494471e-04  1.671101e-07
    141    136   2   0.50000     0.0600000   -0.1800000   2.494471e-04  1.671101e-07
    141    137   2   0.50000     0.0600000    0.5200000   3.869820e-04  3.188634e-07
    141    146   2   0.50000     0.0600000   -0.1200000   2.494471e-04  1.671101e-07
    134    142   2   0.50000    -0.1200000    0.0600000   2.494471e-04  1.671101e-07
    134    143   2   0.50000    -0.1200000    0.0600000   2.494471e-04  1.671101e-07
    134    144   2   0.50000    -0.1200000    0.0600000   2.494471e-04  1.671101e-07
    137    142   2   0.50000     0.5200000    0.0600000   3.869820e-04  3.188634e-07
    137    143   2   0.50000     0.5200000    0.0600000   3.869820e-04  3.188634e-07
    137    144   2   0.50000     0.5200000    0.0600000   3.869820e-04  3.188634e-07
    146    142   2   0.50000    -0.1200000    0.0600000   2.494471e-04  1.671101e-07
    146    143   2   0.50000    -0.1200000    0.0600000   2.494471e-04  1.671101e-07
    146    144   2   0.50000    -0.1200000    0.0600000   2.494471e-04  1.671101e-07
    134    138   2   0.50000    -0.1200000   -0.4400000   1.095425e-03  1.218041e-06
    134    139   2   0.50000    -0.1200000   -0.5300000   1.026091e-03  1.187829e-06
    136    138   2   0.50000    -0.1800000   -0.4400000   1.095425e-03  1.218041e-06
    136    139   2   0.50000    -0.1800000   -0.5300000   1.026091e-03  1.187829e-06
    146    138   2   0.50000    -0.1200000   -0.4400000   1.095425e-03  1.218041e-06
    146    139   2   0.50000    -0.1200000   -0.5300000   1.026091e-03  1.187829e-06
    134    147   2   0.50000    -0.1200000    0.0000000   1.015252e-03  1.866303e-06
    134    152   2   0.50000    -0.1200000    0.0600000   2.494471e-04  1.671101e-07
    134    153   2   0.50000    -0.1200000    0.0600000   2.494471e-04  1.671101e-07
    136    147   2   0.50000    -0.1800000    0.0000000   1.015252e-03  1.866303e-06
    136    152   2   0.50000    -0.1800000    0.0600000   2.494471e-04  1.671101e-07
    136    153   2   0.50000    -0.1800000    0.0600000   2.494471e-04  1.671101e-07
    137    147   2   0.50000     0.5200000    0.0000000   1.575021e-03  3.561100e-06
    137    152   2   0.50000     0.5200000    0.0600000   3.869820e-04  3.188634e-07
    137    153   2   0.50000     0.5200000    0.0600000   3.869820e-04  3.188634e-07
    135    145   2   0.50000     0.0000000    0.4500000   1.995577e-06  1.069504e-11
    138    145   2   0.50000    -0.4400000    0.4500000   2.153164e-06  6.980110e-12
    135    148   2   0.50000     0.0000000   -0.1800000   1.015252e-03  1.866303e-06
    135    149   2   0.50000     0.0000000    0.5200000   1.575021e-03  3.561100e-06
    135    158   2   0.50000     0.0000000   -0.1200000   1.015252e-03  1.866303e-06
    152    148   2   0.50000     0.0600000   -0.1800000   2.494471e-04  1.671101e-07
    152    149   2   0.50000     0.0600000    0.5200000   3.869820e-04  3.188634e-07
    152    158   2   0.50000     0.0600000   -0.1200000   2.494471e-04  1.671101e-07
    153    148   2   0.50000     0.0600000   -0.1800000   2.494471e-04  1.671101e-07
    153    149   2   0.50000     0.0600000    0.5200000   3.869820e-04  3.188634e-07
    153    158   2   0.50000     0.0600000   -0.1200000   2.494471e-04  1.671101e-07
    146    154   2   0.50000    -0.1200000    0.0600000   2.494471e-04  1.671101e-07
    146    155   2   0.50000    -0.1200000    0.0600000   2.494471e-04  1.671101e-07
    146    156   2   0.50000    -0.1200000    0.0600000   2.494471e-04  1.671101e-07
    149    154   2   0.50000     0.5200000    0.0600000   3.869820e-04  3.188634e-07
    149    155   2   0.50000     0.5200000    0.0600000   3.869820e-04  3.188634e-07
    149    156   2   0.50000     0.5200000    0.0600000   3.869820e-04  3.188634e-07
    158    154   2   0.50000    -0.1200000    0.0600000   2.494471e-04  1.671101e-07
    158    155   2   0.50000    -0.1200000    0.0600000   2.494471e-04  1.671101e-07
    158    156   2   0.50000    -0.1200000    0.0600000   2.494471e-04  1.671101e-07
    146    150   2   0.50000    -0.1200000   -0.4400000   1.095425e-03  1.218041e-06
    146    151   2   0.50000    -0.1200000   -0.5300000   1.026091e-03  1.187829e-06
    148    150   2   0.50000    -0.1800000   -0.4400000   1.095425e-03  1.218041e-06
    148    151   2   0.50000    -0.1800000   -0.5300000   1.026091e-03  1.187829e-06
    158    150   2   0.50000    -0.1200000   -0.4400000   1.095425e-03  1.218041e-06
    158    151   2   0.50000    -0.1200000   -0.5300000   1.026091e-03  1.187829e-06
    146    159   2   0.50000    -0.1200000    0.0000000   1.015252e-03  1.866303e-06
    146    164   2   0.50000    -0.1200000    0.0600000   2.494471e-04  1.671101e-07
    146    165   2   0.50000    -0.1200000    0.0600000   2.494471e-04  1.671101e-07
    148    159   2   0.50000    -0.1800000    0.0000000   1.015252e-03  1.866303e-06
    148    164   2   0.50000    -0.1800000    0.0600000   2.494471e-04  1.671101e-07
    148    165   2   0.50000    -0.1800000    0.0600000   2.494471e-04  1.671101e-07
    149    159   2   0.50000     0.5200000    0.0000000   1.575021e-03  3.561100e-06
    149    164   2   0.50000     0.5200000    0.0600000   3.869820e-04  3.188634e-07
    149    165   2   0.50000     0.5200000    0.0600000   3.869820e-04  3.188634e-07
    147    157   2   0.50000     0.0000000    0.4500000   1.995577e-06  1.069504e-11
    150    157   2   0.50000    -0.4400000    0.4500000   2.153164e-06  6.980110e-12
    147    160   2   0.50000     0.0000000   -0.1800000   1.015252e-03  1.866303e-06
    147    161   2   0.50000     0.0000000    0.5200000   1.575021e-03  3.561100e-06
    147    170   2   0.50000     0.0000000   -0.1200000   1.015252e-03  1.866303e-06
    164    160   2   0.50000     0.0600000   -0.1800000   2.494471e-04  1.671101e-07
    164    161   2   0.50000     0.0600000    0.5200000   3.869820e-04  3.188634e-07
    164    170   2   0.50000     0.0600000   -0.1200000   2.494471e-04  1.671101e-07
    165    160   2   0.50000     0.0600000   -0.1800000   2.494471e-04  1.671101e-07
    165    161   2   0.50000     0.0600000    0.5200000   3.869820e-04  3.188634e-07
    165    170   2   0.50000     0.0600000   -0.1200000   2.494471e-04  1.671101e-07
    158    166   2   0.50000    -0.1200000    0.0600000   2.494471e-04  1.671101e-07
    158    167   2   0.50000    -0.1200000    0.0600000   2.494471e-04  1.671101e-07
    158    168   2   0.50000    -0.1200000    0.0600000   2.494471e-04  1.671101e-07
    161    166   2   0.50000     0.5200000    0.0600000   3.869820e-04  3.188634e-07
    161    167   2   0.50000     0.5200000    0.0600000   3.869820e-04  3.188634e-07
    161    168   2   0.50000     0.5200000    0.0600000   3.869820e-04  3.188634e-07
    170    166   2   0.50000    -0.1200000    0.0600000   2.494471e-04  1.671101e-07
    170    167   2   0.50000    -0.1200000    0.0600000   2.494471e-04  1.671101e-07
    170    168   2   0.50000    -0.1200000    0.0600000   2.494471e-04  1.671101e-07
    158    162   2   0.50000    -0.1200000   -0.4400000   1.095425e-03  1.218041e-06
    158    163   2   0.50000    -0.1200000   -0.5300000   1.026091e-03  1.187829e-06
    160    162   2   0.50000    -0.1800000   -0.4400000   1.095425e-03  1.218041e-06
    160    163   2   0.50000    -0.1800000   -0.5300000   1.026091e-03  1.187829e-06
    170    162   2   0.50000    -0.1200000   -0.4400000   1.095425e-03  1.218041e-06
    170    163   2   0.50000    -0.1200000   -0.5300000   1.026091e-03  1.187829e-06
    158    171   2   0.50000    -0.1200000    0.0000000   1.015252e-03  1.866303e-06
    158    176   2   0.50000    -0.1200000    0.0600000   2.494471e-04  1.671101e-07
    158    177   2   0.50000    -0.1200000    0.0600000   2.494471e-04  1.671101e-07
    160    171   2   0.50000    -0.1800000    0.0000000   1.015252e-03  1.866303e-06
    160    176   2   0.50000    -0.1800000    0.0600000   2.494471e-04  1.671101e-07
    160    177   2   0.50000    -0.1800000    0.0600000   2.494471e-04  1.671101e-07
    161    171   2   0.50000     0.5200000    0.0000000   1.575021e-03  3.561100e-06
    161    176   2   0.50000     0.5200000    0.0600000   3.869820e-04  3.188634e-07
    161    177   2   0.50000     0.5200000    0.0600000   3.869820e-04  3.188634e-07
    159    169   2   0.50000     0.0000000    0.4500000   1.995577e-06  1.069504e-11
    162    169   2   0.50000    -0.4400000    0.4500000   2.153164e-06  6.980110e-12
    159    172   2   0.50000     0.0000000   -0.1800000   1.015252e-03  1.866303e-06
    159    173   2   0.50000     0.0000000    0.5200000   1.575021e-03  3.561100e-06
    159    182   2   0.50000     0.0000000   -0.1200000   1.015252e-03  1.866303e-06
    176    172   2   0.50000     0.0600000   -0.1800000   2.494471e-04  1.671101e-07
    176    173   2   0.50000     0.0600000    0.5200000   3.869820e-04  3.188634e-07
    176    182   2   0.50000     0.0600000   -0.1200000   2.494471e-04  1.671101e-07
    177    172   2   0.50000     0.0600000   -0.1800000   2.494471e-04  1.671101e-07
    177    173   2   0.50000     0.0600000    0.5200000   3.869820e-04  3.188634e-07
    177    182   2   0.50000     0.0600000   -0.1200000   2.494471e-04  1.671101e-07
    170    178   2   0.50000    -0.1200000    0.0600000   2.494471e-04  1.671101e-07
    170    179   2   0.50000    -0.1200000    0.0600000   2.494471e-04  1.671101e-07
    170    180   2   0.50000    -0.1200000    0.0600000   2.494471e-04  1.671101e-07
    173    178   2   0.50000     0.5200000    0.0600000   3.869820e-04  3.188634e-07
    173    179   2   0.50000     0.5200000    0.0600000   3.869820e-04  3.188634e-07
    173    180   2   0.50000     0.5200000    0.0600000   3.869820e-04  3.188634e-07
    182    178   2   0.50000    -0.1200000    0.0600000   2.494471e-04  1.671101e-07
    182    179   2   0.50000    -0.1200000    0.0600000   2.494471e-04  1.671101e-07
    182    180   2   0.50000    -0.1200000    0.0600000   2.494471e-04  1.671101e-07
    170    174   2   0.50000    -0.1200000   -0.4400000   1.095425e-03  1.218041e-06
    170    175   2   0.50000    -0.1200000   -0.5300000   1.026091e-03  1.187829e-06
    172    174   2   0.50000    -0.1800000   -0.4400000   1.095425e-03  1.218041e-06
    172    175   2   0.50000    -0.1800000   -0.5300000   1.026091e-03  1.187829e-06
    182    174   2   0.50000    -0.1200000   -0.4400000   1.095425e-03  1.218041e-06
    182    175   2   0.50000    -0.1200000   -0.5300000   1.026091e-03  1.187829e-06
    170    183   2   0.50000    -0.1200000    0.0000000   1.015252e-03  1.866303e-06
    170    188   2   0.50000    -0.1200000    0.0600000   2.494471e-04  1.671101e-07
    170    189   2   0.50000    -0.1200000    0.0600000   2.494471e-04  1.671101e-07
    172    183   2   0.50000    -0.1800000    0.0000000   1.015252e-03  1.866303e-06
    172    188   2   0.50000    -0.1800000    0.0600000   2.494471e-04  1.671101e-07
    172    189   2   0.50000    -0.1800000    0.0600000   2.494471e-04  1.671101e-07
    173    183   2   0.50000     0.5200000    0.0000000   1.575021e-03  3.561100e-06
    173    188   2   0.50000     0.5200000    0.0600000   3.869820e-04  3.188634e-07
    173    189   2   0.50000     0.5200000    0.0600000   3.869820e-04  3.188634e-07
    171    181   2   0.50000     0.0000000    0.4500000   1.995577e-06  1.069504e-11
    174    181   2   0.50000    -0.4400000    0.4500000   2.153164e-06  6.980110e-12
    171    184   2   0.50000     0.0000000   -0.1800000   1.015252e-03  1.866303e-06
    171    185   2   0.50000     0.0000000    0.5200000   1.575021e-03  3.561100e-06
    171    194   2   0.50000     0.0000000   -0.1200000   1.015252e-03  1.866303e-06
    188    184   2   0.50000     0.0600000   -0.1800000   2.494471e-04  1.671101e-07
    188    185   2   0.50000     0.0600000    0.5200000   3.869820e-04  3.188634e-07
    188    194   2   0.50000     0.0600000   -0.1200000   2.494471e-04  1.671101e-07
    189    184   2   0.50000     0.0600000   -0.1800000   2.494471e-04  1.671101e-07
    189    185   2   0.50000     0.0600000    0.5200000   3.869820e-04  3.188634e-07
    189    194   2   0.50000     0.0600000   -0.1200000   2.494471e-04  1.671101e-07
    182    190   2   0.50000    -0.1200000    0.0600000   2.494471e-04  1.671101e-07
    182    191   2   0.50000    -0.1200000    0.0600000   2.494471e-04  1.671101e-07
    182    192   2   0.50000    -0.1200000    0.0600000   2.494471e-04  1.671101e-07
    185    190   2   0.50000     0.5200000    0.0600000   3.869820e-04  3.188634e-07
    185    191   2   0.50000     0.5200000    0.0600000   3.869820e-04  3.188634e-07
    185    192   2   0.50000     0.5200000    0.0600000   3.869820e-04  3.188634e-07
    194    190   2   0.50000    -0.1200000    0.0600000   2.494471e-04  1.671101e-07
    194    191   2   0.50000    -0.1200000    0.0600000   2.494471e-04  1.671101e-07
    194    192   2   0.50000    -0.1200000    0.0600000   2.494471e-04  1.671101e-07
    182    186   2   0.50000    -0.1200000   -0.4400000   1.095425e-03  1.218041e-06
    182    187   2   0.50000    -0.1200000   -0.5300000   1.026091e-03  1.187829e-06
    184    186   2   0.50000    -0.1800000   -0.4400000   1.095425e-03  1.218041e-06
    184    187   2   0.50000    -0.1800000   -0.5300000   1.026091e-03  1.187829e-06
    194    186   2   0.50000    -0.1200000   -0.4400000   1.095425e-03  1.218041e-06
    194    187   2   0.50000    -0.1200000   -0.5300000   1.026091e-03  1.187829e-06
    182    195   2   0.50000    -0.1200000    0.0000000   1.015252e-03  1.866303e-06
    182    200   2   0.50000    -0.1200000    0.0600000   2.494471e-04  1.671101e-07
    182    201   2   0.50000    -0.1200000    0.0600000   2.494471e-04  1.671101e-07
    184    195   2   0.50000    -0.1800000    0.0000000   1.015252e-03  1.866303e-06
    184    200   2   0.50000    -0.1800000    0.0600000   2.494471e-04  1.671101e-07
    184    201   2   0.50000    -0.1800000    0.0600000   2.494471e-04  1.671101e-07
    185    195   2   0.50000     0.5200000    0.0000000   1.575021e-03  3.561100e-06
    185    200   2   0.50000     0.5200000    0.0600000   3.869820e-04  3.188634e-07
    185    201   2   0.50000     0.5200000    0.0600000   3.869820e-04  3.188634e-07
    183    193   2   0.50000     0.0000000    0.4500000   1.995577e-06  1.069504e-11
    186    193   2   0.50000    -0.4400000    0.4500000   2.153164e-06  6.980110e-12
    183    196   2   0.50000     0.0000000   -0.1800000   1.015252e-03  1.866303e-06
    183    197   2   0.50000     0.0000000    0.5200000   1.575021e-03  3.561100e-06
    183    206   2   0.50000     0.0000000   -0.1200000   1.015252e-03  1.866303e-06
    200    196   2   0.50000     0.0600000   -0.1800000   2.494471e-04  1.671101e-07
    200    197   2   0.50000     0.0600000    0.5200000   3.869820e-04  3.188634e-07
    200    206   2   0.50000     0.0600000   -0.1200000   2.494471e-04  1.671101e-07
    201    196   2   0.50000     0.0600000   -0.1800000   2.494471e-04  1.671101e-07
    201    197   2   0.50000     0.0600000    0.5200000   3.869820e-04  3.188634e-07
    201    206   2   0.50000     0.0600000   -0.1200000   2.494471e-04  1.671101e-07
    194    202   2   0.50000    -0.1200000    0.0600000   2.494471e-04  1.671101e-07
    194    203   2   0.50000    -0.1200000    0.0600000   2.494471e-04  1.671101e-07
    194    204   2   0.50000    -0.1200000    0.0600000   2.494471e-04  1.671101e-07
    197    202   2   0.50000     0.5200000    0.0600000   3.869820e-04  3.188634e-07
    197    203   2   0.50000     0.5200000    0.0600000   3.869820e-04  3.188634e-07
    197    204   2   0.50000     0.5200000    0.0600000   3.869820e-04  3.188634e-07
    206    202   2   0.50000    -0.1200000    0.0600000   2.494471e-04  1.671101e-07
    206    203   2   0.50000    -0.1200000    0.0600000   2.494471e-04  1.671101e-07
    206    204   2   0.50000    -0.1200000    0.0600000   2.494471e-04  1.671101e-07
    194    198   2   0.50000    -0.1200000   -0.4400000   1.095425e-03  1.218041e-06
    194    199   2   0.50000    -0.1200000   -0.5300000   1.026091e-03  1.187829e-06
    196    198   2   0.50000    -0.1800000   -0.4400000   1.095425e-03  1.218041e-06
    196    199   2   0.50000    -0.1800000   -0.5300000   1.026091e-03  1.187829e-06
    206    198   2   0.50000    -0.1200000   -0.4400000   1.095425e-03  1.218041e-06
    206    199   2   0.50000    -0.1200000   -0.5300000   1.026091e-03  1.187829e-06
    194    207   2   0.50000    -0.1200000    0.0000000   1.015252e-03  1.866303e-06
    194    212   2   0.50000    -0.1200000    0.0600000   2.494471e-04  1.671101e-07
    194    213   2   0.50000    -0.1200000    0.0600000   2.494471e-04  1.671101e-07
    196    207   2   0.50000    -0.1800000    0.0000000   1.015252e-03  1.866303e-06
    196    212   2   0.50000    -0.1800000    0.0600000   2.494471e-04  1.671101e-07
    196    213   2   0.50000    -0.1800000    0.0600000   2.494471e-04  1.671101e-07
    197    207   2   0.50000     0.5200000    0.0000000   1.575021e-03  3.561100e-06
    197    212   2   0.50000     0.5200000    0.0600000   3.869820e-04  3.188634e-07
    197    213   2   0.50000     0.5200000    0.0600000   3.869820e-04  3.188634e-07
    195    205   2   0.50000     0.0000000    0.4500000   1.995577e-06  1.069504e-11
    198    205   2   0.50000    -0.4400000    0.4500000   2.153164e-06  6.980110e-12
    195    208   2   0.50000     0.0000000   -0.1800000   1.015252e-03  1.866303e-06
    195    209   2   0.50000     0.0000000    0.5200000   1.575021e-03  3.561100e-06
    195    218   2   0.50000     0.0000000   -0.1200000   1.015252e-03  1.866303e-06
    212    208   2   0.50000     0.0600000   -0.1800000   2.494471e-04  1.671101e-07
    212    209   2   0.50000     0.0600000    0.5200000   3.869820e-04  3.188634e-07
    212    218   2   0.50000     0.0600000   -0.1200000   2.494471e-04  1.671101e-07
    213    208   2   0.50000     0.0600000   -0.1800000   2.494471e-04  1.671101e-07
    213    209   2   0.50000     0.0600000    0.5200000   3.869820e-04  3.188634e-07
    213    218   2   0.50000     0.0600000   -0.1200000   2.494471e-04  1.671101e-07
    206    214   2   0.50000    -0.1200000    0.0600000   2.494471e-04  1.671101e-07
    206    215   2   0.50000    -0.1200000    0.0600000   2.494471e-04  1.671101e-07
    206    216   2   0.50000    -0.1200000    0.0600000   2.494471e-04  1.671101e-07
    209    214   2   0.50000     0.5200000    0.0600000   3.869820e-04  3.188634e-07
    209    215   2   0.50000     0.5200000    0.0600000   3.869820e-04  3.188634e-07
    209    216   2   0.50000     0.5200000    0.0600000   3.869820e-04  3.188634e-07
    218    214   2   0.50000    -0.1200000    0.0600000   2.494471e-04  1.671101e-07
    218    215   2   0.50000    -0.1200000    0.0600000   2.494471e-04  1.671101e-07
    218    216   2   0.50000    -0.1200000    0.0600000   2.494471e-04  1.671101e-07
    206    210   2   0.50000    -0.1200000   -0.4400000   1.095425e-03  1.218041e-06
    206    211   2   0.50000    -0.1200000   -0.5300000   1.026091e-03  1.187829e-06
    208    210   2   0.50000    -0.1800000   -0.4400000   1.095425e-03  1.218041e-06
    208    211   2   0.50000    -0.1800000   -0.5300000   1.026091e-03  1.187829e-06
    218    210   2   0.50000    -0.1200000   -0.4400000   1.095425e-03  1.218041e-06
    218    211   2   0.50000    -0.1200000   -0.5300000   1.026091e-03  1.187829e-06
    206    219   2   0.50000    -0.1200000    0.0000000   1.015252e-03  1.866303e-06
    206    224   2   0.50000    -0.1200000    0.0600000   2.494471e-04  1.671101e-07
    206    225   2   0.50000    -0.1200000    0.0600000   2.494471e-04  1.671101e-07
    208    219   2   0.50000    -0.1800000    0.0000000   1.015252e-03  1.866303e-06
    208    224   2   0.50000    -0.1800000    0.0600000   2.494471e-04  1.671101e-07
    208    225   2   0.50000    -0.1800000    0.0600000   2.494471e-04  1.671101e-07
    209    219   2   0.50000     0.5200000    0.0000000   1.575021e-03  3.561100e-06
    209    224   2   0.50000     0.5200000    0.0600000   3.869820e-04  3.188634e-07
    209    225   2   0.50000     0.5200000    0.0600000   3.869820e-04  3.188634e-07
    207    217   2   0.50000     0.0000000    0.4500000   1.995577e-06  1.069504e-11
    210    217   2   0.50000    -0.4400000    0.4500000   2.153164e-06  6.980110e-12
    207    220   2   0.50000     0.0000000   -0.1800000   1.015252e-03  1.866303e-06
    207    221   2   0.50000     0.0000000    0.5200000   1.575021e-03  3.561100e-06
    207    230   2   0.50000     0.0000000   -0.1200000   1.015252e-03  1.866303e-06
    224    220   2   0.50000     0.0600000   -0.1800000   2.494471e-04  1.671101e-07
    224    221   2   0.50000     0.0600000    0.5200000   3.869820e-04  3.188634e-07
    224    230   2   0.50000     0.0600000   -0.1200000   2.494471e-04  1.671101e-07
    225    220   2   0.50000     0.0600000   -0.1800000   2.494471e-04  1.671101e-07
    225    221   2   0.50000     0.0600000    0.5200000   3.869820e-04  3.188634e-07
    225    230   2   0.50000     0.0600000   -0.1200000   2.494471e-04  1.671101e-07
    218    226   2   0.50000    -0.1200000    0.0600000   2.494471e-04  1.671101e-07
    218    227   2   0.50000    -0.1200000    0.0600000   2.494471e-04  1.671101e-07
    218    228   2   0.50000    -0.1200000    0.0600000   2.494471e-04  1.671101e-07
    221    226   2   0.50000     0.5200000    0.0600000   3.869820e-04  3.188634e-07
    221    227   2   0.50000     0.5200000    0.0600000   3.869820e-04  3.188634e-07
    221    228   2   0.50000     0.5200000    0.0600000   3.869820e-04  3.188634e-07
    230    226   2   0.50000    -0.1200000    0.0600000   2.494471e-04  1.671101e-07
    230    227   2   0.50000    -0.1200000    0.0600000   2.494471e-04  1.671101e-07
    230    228   2   0.50000    -0.1200000    0.0600000   2.494471e-04  1.671101e-07
    218    222   2   0.50000    -0.1200000   -0.4400000   1.095425e-03  1.218041e-06
    218    223   2   0.50000    -0.1200000   -0.5300000   1.026091e-03  1.187829e-06
    220    222   2   0.50000    -0.1800000   -0.4400000   1.095425e-03  1.218041e-06
    220    223   2   0.50000    -0.1800000   -0.5300000   1.026091e-03  1.187829e-06
    230    222   2   0.50000    -0.1200000   -0.4400000   1.095425e-03  1.218041e-06
    230    223   2   0.50000    -0.1200000   -0.5300000   1.026091e-03  1.187829e-06
    218    231   2   0.50000    -0.1200000   -0.0600000   1.015252e-03  1.866303e-06
    218    236   2   0.50000    -0.1200000    0.0600000   2.494471e-04  1.671101e-07
    218    237   2   0.50000    -0.1200000    0.0600000   2.494471e-04  1.671101e-07
    220    231   2   0.50000    -0.1800000   -0.0600000   1.015252e-03  1.866303e-06
    220    236   2   0.50000    -0.1800000    0.0600000   2.494471e-04  1.671101e-07
    220    237   2   0.50000    -0.1800000    0.0600000   2.494471e-04  1.671101e-07
    221    231   2   0.50000     0.5200000   -0.0600000   1.575021e-03  3.561100e-06
    221    236   2   0.50000     0.5200000    0.0600000   3.869820e-04  3.188634e-07
    221    237   2   0.50000     0.5200000    0.0600000   3.869820e-04  3.188634e-07
    219    229   2   0.50000     0.0000000    0.4500000   1.995577e-06  1.069504e-11
    222    229   2   0.50000    -0.4400000    0.4500000   2.153164e-06  6.980110e-12
    219    232   2   0.50000     0.0000000   -0.1800000   1.015252e-03  1.866303e-06
    219    233   2   0.50000     0.0000000    0.5200000   1.575021e-03  3.561100e-06
    219    242   2   0.50000     0.0000000    0.0600000   2.494471e-04  1.671101e-07
    236    232   2   0.50000     0.0600000   -0.1800000   2.494471e-04  1.671101e-07
    236    233   2   0.50000     0.0600000    0.5200000   3.869820e-04  3.188634e-07
    236    242   2   0.50000     0.0600000    0.0600000   6.128906e-05  1.496315e-08
    237    232   2   0.50000     0.0600000   -0.1800000   2.494471e-04  1.671101e-07
    237    233   2   0.50000     0.0600000    0.5200000   3.869820e-04  3.188634e-07
    237    242   2   0.50000     0.0600000    0.0600000   6.128906e-05  1.496315e-08
    230    238   2   0.50000    -0.1200000    0.0600000   2.494471e-04  1.671101e-07
    230    239   2   0.50000    -0.1200000    0.0600000   2.494471e-04  1.671101e-07
    230    240   2   0.50000    -0.1200000    0.0600000   2.494471e-04  1.671101e-07
    233    238   2   0.50000     0.5200000    0.0600000   3.869820e-04  3.188634e-07
    233    239   2   0.50000     0.5200000    0.0600000   3.869820e-04  3.188634e-07
    233    240   2   0.50000     0.5200000    0.0600000   3.869820e-04  3.188634e-07
    242    238   2   0.50000     0.0600000    0.0600000   6.128906e-05  1.496315e-08
    242    239   2   0.50000     0.0600000    0.0600000   6.128906e-05  1.496315e-08
    242    240   2   0.50000     0.0600000    0.0600000   6.128906e-05  1.496315e-08
    230    234   2   0.50000    -0.1200000   -0.4400000   1.095425e-03  1.218041e-06
    230    235   2   0.50000    -0.1200000   -0.5300000   1.026091e-03  1.187829e-06
    232    234   2   0.50000    -0.1800000   -0.4400000   1.095425e-03  1.218041e-06
    232    235   2   0.50000    -0.1800000   -0.5300000   1.026091e-03  1.187829e-06
    242    234   2   0.50000     0.0600000   -0.4400000   2.691455e-04  1.090642e-07
    242    235   2   0.50000     0.0600000   -0.5300000   2.521103e-04  1.063590e-07
    231    241   2   0.50000    -0.0600000    0.4500000   1.995577e-06  1.069504e-11
    234    241   2   0.50000    -0.4400000    0.4500000   2.153164e-06  6.980110e-12

[ angles ]
; ai  aj  ak
      2      1      7   1    110.7000    313.8000
      2      1      8   1    110.7000    313.8000
      2      1     13   1    110.7000    313.8000
      7      1      8   1    107.8000    276.1440
      7      1     13   1    107.8000    276.1440
      8      1     13   1    107.8000    276.1440
      1      2      3   1    112.7000    488.2728
      1      2      4   1    111.1000    527.1840
      1      2     14   1    112.7000    488.2728
      3      2      4   1    111.1000    527.1840
      3      2     14   1    112.7000    488.2728
      4      2     14   1    111.1000    527.1840
      2      3      9   1    110.7000    313.8000
      2      3     10   1    110.7000    313.8000
      2      3     11   1    110.7000    313.8000
      9      3     10   1    107.8000    276.1440
      9      3     11   1    107.8000    276.1440
     10      3     11   1    107.8000    276.1440
      2      4      5   1    120.4000    669.4400
      2      4      6   1    108.0000    585.7600
      5      4      6   1    123.3200    836.8000
      4      6     12   1    113.0000    292.8800
      2     14     15   1    112.7000    488.2728
      2     14     20   1    110.7000    313.8000
      2     14     21   1    110.7000    313.8000
     15     14     20   1    110.7000    313.8000
     15     14     21   1    110.7000    313.8000
     20     14     21   1    107.8000    276.1440
     14     15     16   1    112.7000    488.2728
     14     15     17   1    111.1000    527.1840
     14     15     26   1    112.7000    488.2728
     16     15     17   1    111.1000    527.1840
     16     15     26   1    112.7000    488.2728
     17     15     26   1    111.1000    527.1840
     15     16     22   1    110.7000    313.8000
     15     16     23   1    110.7000    313.8000
     15     16     24   1    110.7000    313.8000
     22     16     23   1    107.8000    276.1440
     22     16     24   1    107.8000    276.1440
     23     16     24   1    107.8000    276.1440
     15     17     18   1    120.4000    669.4400
     15     17     19   1    108.0000    585.7600
     18     17     19   1    123.3200    836.8000
     17     19     25   1    113.0000    292.8800
     15     26     27   1    112.7000    488.2728
     15     26     32   1    110.7000    313.8000
     15     26     33   1    110.7000    313.8000
     27     26     32   1    110.7000    313.8000
     27     26     33   1    110.7000    313.8000
     32     26     33   1    107.8000    276.1440
     26     27     28   1    112.7000    488.2728
     26     27     29   1    111.1000    527.1840
     26     27     38   1    112.7000    488.2728
     28     27     29   1    111.1000    527.1840
     28     27     38   1    112.7000    488.2728
     29     27     38   1    111.1000    527.1840
     27     28     34   1    110.7000    313.8000
     27     28     35   1    110.7000    313.8000
     27     28     36   1    110.7000    313.8000
     34     28     35   1    107.8000    276.1440
     34     28     36   1    107.8000    276.1440
     35     28     36   1    107.8000    276.1440
     27     29     30   1    120.4000    669.4400
     27     29     31   1    108.0000    585.7600
     30     29     31   1    123.3200    836.8000
     29     31     37   1    113.0000    292.8800
     27     38     39   1    112.7000    488.2728
     27     38     44   1    110.7000    313.8000
     27     38     45   1    110.7000    313.8000
     39     38     44   1    110.7000    313.8000
     39     38     45   1    110.7000    313.8000
     44     38     45   1    107.8000    276.1440
     38     39     40   1    112.7000    488.2728
     38     39     41   1    111.1000    527.1840
     38     39     50   1    112.7000    488.2728
     40     39     41   1    111.1000    527.1840
     40     39     50   1    112.7000    488.2728
     41     39     50   1    111.1000    527.1840
     39     40     46   1    110.7000    313.8000
     39     40     47   1    110.7000    313.8000
     39     40     48   1    110.7000    313.8000
     46     40     47   1    107.8000    276.1440
     46     40     48   1    107.8000    276.1440
     47     40     48   1    107.8000    276.1440
     39     41     42   1    120.4000    669.4400
     39     41     43   1    108.0000    585.7600
     42     41     43   1    123.3200    836.8000
     41     43     49   1    113.0000    292.8800
     39     50     51   1    112.7000    488.2728
     39     50     56   1    110.7000    313.8000
     39     50     57   1    110.7000    313.8000
     51     50     56   1    110.7000    313.8000
     51     50     57   1    110.7000    313.8000
     56     50     57   1    107.8000    276.1440
     50     51     52   1    112.7000    488.2728
     50     51     53   1    111.1000    527.1840
     50     51     62   1    112.7000    488.2728
     52     51     53   1    111.1000    527.1840
     52     51     62   1    112.7000    488.2728
     53     51     62   1    111.1000    527.1840
     51     52     58   1    110.7000    313.8000
     51     52     59   1    110.7000    313.8000
     51     52     60   1    110.7000    313.8000
     58     52     59   1    107.8000    276.1440
     58     52     60   1    107.8000    276.1440
     59     52     60   1    107.8000    276.1440
     51     53     54   1    120.4000    669.4400
     51     53     55   1    108.0000    585.7600
     54     53     55   1    123.3200    836.8000
     53     55     61   1    113.0000    292.8800
     51     62     63   1    112.7000    488.2728
     51     62     68   1    110.7000    313.8000
     51     62     69   1    110.7000    313.8000
     63     62     68   1    110.7000    313.8000
     63     62     69   1    110.7000    313.8000
     68     62     69   1    107.8000    276.1440
     62     63     64   1    112.7000    488.2728
     62     63     65   1    111.1000    527.1840
     62     63     74   1    112.7000    488.2728
     64     63     65   1    111.1000    527.1840
     64     63     74   1    112.7000    488.2728
     65     63     74   1    111.1000    527.1840
     63     64     70   1    110.7000    313.8000
     63     64     71   1    110.7000    313.8000
     63     64     72   1    110.7000    313.8000
     70     64     71   1    107.8000    276.1440
     70     64     72   1    107.8000    276.1440
     71     64     72   1    107.8000    276.1440
     63     65     66   1    120.4000    669.4400
     63     65     67   1    108.0000    585.7600
     66     65     67   1    123.3200    836.8000
     65     67     73   1    113.0000    292.8800
     63     74     75   1    112.7000    488.2728
     63     74     80   1    110.7000    313.8000
     63     74     81   1    110.7000    313.8000
     75     74     80   1    110.7000    313.8000
     75     74     81   1    110.7000    313.8000
     80     74     81   1    107.8000    276.1440
     74     75     76   1    112.7000    488.2728
     74     75     77   1    111.1000    527.1840
     74     75     86   1    112.7000    488.2728
     76     75     77   1    111.1000    527.1840
     76     75     86   1    112.7000    488.2728
     77     75     86   1    111.1000    527.1840
     75     76     82   1    110.7000    313.8000
     75     76     83   1    110.7000    313.8000
     75     76     84   1    110.7000    313.8000
     82     76     83   1    107.8000    276.1440
     82     76     84   1    107.8000    276.1440
     83     76     84   1    107.8000    276.1440
     75     77     78   1    120.4000    669.4400
     75     77     79   1    108.0000    585.7600
     78     77     79   1    123.3200    836.8000
     77     79     85   1    113.0000    292.8800
     75     86     87   1    112.7000    488.2728
     75     86     92   1    110.7000    313.8000
     75     86     93   1    110.7000    313.8000
     87     86     92   1    110.7000    313.8000
     87     86     93   1    110.7000    313.8000
     92     86     93   1    107.8000    276.1440
     86     87     88   1    112.7000    488.2728
     86     87     89   1    111.1000    527.1840
     86     87     98   1    112.7000    488.2728
     88     87     89   1    111.1000    527.1840
     88     87     98   1    112.7000    488.2728
     89     87     98   1    111.1000    527.1840
     87     88     94   1    110.7000    313.8000
     87     88     95   1    110.7000    313.8000
     87     88     96   1    110.7000    313.8000
     94     88     95   1    107.8000    276.1440
     94     88     96   1    107.8000    276.1440
     95     88     96   1    107.8000    276.1440
     87     89     90   1    120.4000    669.4400
     87     89     91   1    108.0000    585.7600
     90     89     91   1    123.3200    836.8000
     89     91     97   1    113.0000    292.8800
     87     98     99   1    112.7000    488.2728
     87     98    104   1    110.7000    313.8000
     87     98    105   1    110.7000    313.8000
     99     98    104   1    110.7000    313.8000
     99     98    105   1    110.7000    313.8000
    104     98    105   1    107.8000    276.1440
     98     99    100   1    112.7000    488.2728
     98     99    101   1    111.1000    527.1840
     98     99    110   1    112.7000    488.2728
    100     99    101   1    111.1000    527.1840
    100     99    110   1    112.7000    488.2728
    101     99    110   1    111.1000    527.1840
     99    100    106   1    110.7000    313.8000
     99    100    107   1    110.7000    313.8000
     99    100    108   1    110.7000    313.8000
    106    100    107   1    107.8000    276.1440
    106    100    108   1    107.8000    276.1440
    107    100    108   1    107.8000    276.1440
     99    101    102   1    120.4000    669.4400
     99    101    103   1    108.0000    585.7600
    102    101    103   1    123.3200    836.8000
    101    103    109   1    113.0000    292.8800
     99    110    111   1    112.7000    488.2728
     99    110    116   1    110.7000    313.8000
     99    110    117   1    110.7000    313.8000
    111    110    116   1    110.7000    313.8000
    111    110    117   1    110.7000    313.8000
    116    110    117   1    107.8000    276.1440
    110    111    112   1    112.7000    488.2728
    110    111    113   1    111.1000    527.1840
    110    111    122   1    112.7000    488.2728
    112    111    113   1    111.1000    527.1840
    112    111    122   1    112.7000    488.2728
    113    111    122   1    111.1000    527.1840
    111    112    118   1    110.7000    313.8000
    111    112    119   1    110.7000    313.8000
    111    112    120   1    110.7000    313.8000
    118    112    119   1    107.8000    276.1440
    118    112    120   1    107.8000    276.1440
    119    112    120   1    107.8000    276.1440
    111    113    114   1    120.4000    669.4400
    111    113    115   1    108.0000    585.7600
    114    113    115   1    123.3200    836.8000
    113    115    121   1    113.0000    292.8800
    111    122    123   1    112.7000    488.2728
    111    122    128   1    110.7000    313.8000
    111    122    129   1    110.7000    313.8000
    123    122    128   1    110.7000    313.8000
    123    122    129   1    110.7000    313.8000
    128    122    129   1    107.8000    276.1440
    122    123    124   1    112.7000    488.2728
    122    123    125   1    111.1000    527.1840
    122    123    134   1    112.7000    488.2728
    124    123    125   1    111.1000    527.1840
    124    123    134   1    112.7000    488.2728
    125    123    134   1    111.1000    527.1840
    123    124    130   1    110.7000    313.8000
    123    124    131   1    110.7000    313.8000
    123    124    132   1    110.7000    313.8000
    130    124    131   1    107.8000    276.1440
    130    124    132   1    107.8000    276.1440
    131    124    132   1    107.8000    276.1440
    123    125    126   1    120.4000    669.4400
    123    125    127   1    108.0000    585.7600
    126    125    127   1    123.3200    836.8000
    125    127    133   1    113.0000    292.8800
    123    134    135   1    112.7000    488.2728
    123    134    140   1    110.7000    313.8000
    123    134    141   1    110.7000    313.8000
    135    134    140   1    110.7000    313.8000
    135    134    141   1    110.7000    313.8000
    140    134    141   1    107.8000    276.1440
    134    135    136   1    112.7000    488.2728
    134    135    137   1    111.1000    527.1840
    134    135    146   1    112.7000    488.2728
    136    135    137   1    111.1000    527.1840
    136    135    146   1    112.7000    488.2728
    137    135    146   1    111.1000    527.1840
    135    136    142   1    110.7000    313.8000
    135    136    143   1    110.7000    313.8000
    135    136    144   1    110.7000    313.8000
    142    136    143   1    107.8000    276.1440
    142    136    144   1    107.8000    276.1440
    143    136    144   1    107.8000    276.1440
    135    137    138   1    120.4000    669.4400
    135    137    139   1    108.0000    585.7600
    138    137    139   1    123.3200    836.8000
    137    139    145   1    113.0000    292.8800
    135    146    147   1    112.7000    488.2728
    135    146    152   1    110.7000    313.8000
    135    146    153   1    110.7000    313.8000
    147    146    152   1    110.7000    313.8000
    147    146    153   1    110.7000    313.8000
    152    146    153   1    107.8000    276.1440
    146    147    148   1    112.7000    488.2728
    146    147    149   1    111.1000    527.1840
    146    147    158   1    112.7000    488.2728
    148    147    149   1    111.1000    527.1840
    148    147    158   1    112.7000    488.2728
    149    147    158   1    111.1000    527.1840
    147    148    154   1    110.7000    313.8000
    147    148    155   1    110.7000    313.8000
    147    148    156   1    110.7000    313.8000
    154    148    155   1    107.8000    276.1440
    154    148    156   1    107.8000    276.1440
    155    148    156   1    107.8000    276.1440
    147    149    150   1    120.4000    669.4400
    147    149    151   1    108.0000    585.7600
    150    149    151   1    123.3200    836.8000
    149    151    157   1    113.0000    292.8800
    147    158    159   1    112.7000    488.2728
    147    158    164   1    110.7000    313.8000
    147    158    165   1    110.7000    313.8000
    159    158    164   1    110.7000    313.8000
    159    158    165   1    110.7000    313.8000
    164    158    165   1    107.8000    276.1440
    158    159    160   1    112.7000    488.2728
    158    159    161   1    111.1000    527.1840
    158    159    170   1    112.7000    488.2728
    160    159    161   1    111.1000    527.1840
    160    159    170   1    112.7000    488.2728
    161    159    170   1    111.1000    527.1840
    159    160    166   1    110.7000    313.8000
    159    160    167   1    110.7000    313.8000
    159    160    168   1    110.7000    313.8000
    166    160    167   1    107.8000    276.1440
    166    160    168   1    107.8000    276.1440
    167    160    168   1    107.8000    276.1440
    159    161    162   1    120.4000    669.4400
    159    161    163   1    108.0000    585.7600
    162    161    163   1    123.3200    836.8000
    161    163    169   1    113.0000    292.8800
    159    170    171   1    112.7000    488.2728
    159    170    176   1    110.7000    313.8000
    159    170    177   1    110.7000    313.8000
    171    170    176   1    110.7000    313.8000
    171    170    177   1    110.7000    313.8000
    176    170    177   1    107.8000    276.1440
    170    171    172   1    112.7000    488.2728
    170    171    173   1    111.1000    527.1840
    170    171    182   1    112.7000    488.2728
    172    171    173   1    111.1000    527.1840
    172    171    182   1    112.7000    488.2728
    173    171    182   1    111.1000    527.1840
    171    172    178   1    110.7000    313.8000
    171    172    179   1    110.7000    313.8000
    171    172    180   1    110.7000    313.8000
    178    172    179   1    107.8000    276.1440
    178    172    180   1    107.8000    276.1440
    179    172    180   1    107.8000    276.1440
    171    173    174   1    120.4000    669.4400
    171    173    175   1    108.0000    585.7600
    174    173    175   1    123.3200    836.8000
    173    175    181   1    113.0000    292.8800
    171    182    183   1    112.7000    488.2728
    171    182    188   1    110.7000    313.8000
    171    182    189   1    110.7000    313.8000
    183    182    188   1    110.7000    313.8000
    183    182    189   1    110.7000    313.8000
    188    182    189   1    107.8000    276.1440
    182    183    184   1    112.7000    488.2728
    182    183    185   1    111.1000    527.1840
    182    183    194   1    112.7000    488.2728
    184    183    185   1    111.1000    527.1840
    184    183    194   1    112.7000    488.2728
    185    183    194   1    111.1000    527.1840
    183    184    190   1    110.7000    313.8000
    183    184    191   1    110.7000    313.8000
    183    184    192   1    110.7000    313.8000
    190    184    191   1    107.8000    276.1440
    190    184    192   1    107.8000    276.1440
    191    184    192   1    107.8000    276.1440
    183    185    186   1    120.4000    669.4400
    183    185    187   1    108.0000    585.7600
    186    185    187   1    123.3200    836.8000
    185    187    193   1    113.0000    292.8800
    183    194    195   1    112.7000    488.2728
    183    194    200   1    110.7000    313.8000
    183    194    201   1    110.7000    313.8000
    195    194    200   1    110.7000    313.8000
    195    194    201   1    110.7000    313.8000
    200    194    201   1    107.8000    276.1440
    194    195    196   1    112.7000    488.2728
    194    195    197   1    111.1000    527.1840
    194    195    206   1    112.7000    488.2728
    196    195    197   1    111.1000    527.1840
    196    195    206   1    112.7000    488.2728
    197    195    206   1    111.1000    527.1840
    195    196    202   1    110.7000    313.8000
    195    196    203   1    110.7000    313.8000
    195    196    204   1    110.7000    313.8000
    202    196    203   1    107.8000    276.1440
    202    196    204   1    107.8000    276.1440
    203    196    204   1    107.8000    276.1440
    195    197    198   1    120.4000    669.4400
    195    197    199   1    108.0000    585.7600
    198    197    199   1    123.3200    836.8000
    197    199    205   1    113.0000    292.8800
    195    206    207   1    112.7000    488.2728
    195    206    212   1    110.7000    313.8000
    195    206    213   1    110.7000    313.8000
    207    206    212   1    110.7000    313.8000
    207    206    213   1    110.7000    313.8000
    212    206    213   1    107.8000    276.1440
    206    207    208   1    112.7000    488.2728
    206    207    209   1    111.1000    527.1840
    206    207    218   1    112.7000    488.2728
    208    207    209   1    111.1000    527.1840
    208    207    218   1    112.7000    488.2728
    209    207    218   1    111.1000    527.1840
    207    208    214   1    110.7000    313.8000
    207    208    215   1    110.7000    313.8000
    207    208    216   1    110.7000    313.8000
    214    208    215   1    107.8000    276.1440
    214    208    216   1    107.8000    276.1440
    215    208    216   1    107.8000    276.1440
    207    209    210   1    120.4000    669.4400
    207    209    211   1    108.0000    585.7600
    210    209    211   1    123.3200    836.8000
    209    211    217   1    113.0000    292.8800
    207    218    219   1    112.7000    488.2728
    207    218    224   1    110.7000    313.8000
    207    218    225   1    110.7000    313.8000
    219    218    224   1    110.7000    313.8000
    219    218    225   1    110.7000    313.8000
    224    218    225   1    107.8000    276.1440
    218    219    220   1    112.7000    488.2728
    218    219    221   1    111.1000    527.1840
    218    219    230   1    112.7000    488.2728
    220    219    221   1    111.1000    527.1840
    220    219    230   1    112.7000    488.2728
    221    219    230   1    111.1000    527.1840
    219    220    226   1    110.7000    313.8000
    219    220    227   1    110.7000    313.8000
    219    220    228   1    110.7000    313.8000
    226    220    227   1    107.8000    276.1440
    226    220    228   1    107.8000    276.1440
    227    220    228   1    107.8000    276.1440
    219    221    222   1    120.4000    669.4400
    219    221    223   1    108.0000    585.7600
    222    221    223   1    123.3200    836.8000
    221    223    229   1    113.0000    292.8800
    219    230    231   1    112.7000    488.2728
    219    230    236   1    110.7000    313.8000
    219    230    237   1    110.7000    313.8000
    231    230    236   1    110.7000    313.8000
    231    230    237   1    110.7000    313.8000
    236    230    237   1    107.8000    276.1440
    230    231    232   1    112.7000    488.2728
    230    231    233   1    111.1000    527.1840
    230    231    242   1    110.7000    313.8000
    232    231    233   1    111.1000    527.1840
    232    231    242   1    110.7000    313.8000
    233    231    242   1    109.5000    292.8800
    231    232    238   1    110.7000    313.8000
    231    232    239   1    110.7000    313.8000
    231    232    240   1    110.7000    313.8000
    238    232    239   1    107.8000    276.1440
    238    232    240   1    107.8000    276.1440
    239    232    240   1    107.8000    276.1440
    231    233    234   1    120.4000    669.4400
    231    233    235   1    108.0000    585.7600
    234    233    235   1    123.3200    836.8000
    233    235    241   1    113.0000    292.8800

[ dihedrals ]
; Proper dihedrals
      7      1      2      3   5     0.00000     0.00000     1.25520  0.0
      7      1      2      4   5     0.00000     0.00000    -0.94140  0.0
      7      1      2     14   5     0.00000     0.00000     1.25520  0.0
      8      1      2      3   5     0.00000     0.00000     1.25520  0.0
      8      1      2      4   5     0.00000     0.00000    -0.94140  0.0
      8      1      2     14   5     0.00000     0.00000     1.25520  0.0
     13      1      2      3   5     0.00000     0.00000     1.25520  0.0
     13      1      2      4   5     0.00000     0.00000    -0.94140  0.0
     13      1      2     14   5     0.00000     0.00000     1.25520  0.0
      1      2      3      9   5     0.00000     0.00000     1.25520  0.0
      1      2      3     10   5     0.00000     0.00000     1.25520  0.0
      1      2      3     11   5     0.00000     0.00000     1.25520  0.0
      4      2      3      9   5     0.00000     0.00000    -0.94140  0.0
      4      2      3     10   5     0.00000     0.00000    -0.94140  0.0
      4      2      3     11   5     0.00000     0.00000    -0.94140  0.0
     14      2      3      9   5     0.00000     0.00000     1.25520  0.0
     14      2      3     10   5     0.00000     0.00000     1.25520  0.0
     14      2      3     11   5     0.00000     0.00000     1.25520  0.0
      1      2      4      5   5     0.00000     2.52295     0.00000  0.0
      1      2      4      6   5     4.18400     2.28446     1.88280  0.0
      3      2      4      5   5     0.00000     2.52295     0.00000  0.0
      3      2      4      6   5     4.18400     2.28446     1.88280  0.0
     14      2      4      5   5     0.00000     2.52295     0.00000  0.0
     14      2      4      6   5     4.18400     2.28446     1.88280  0.0
      1      2     14     15   5     4.74884    -0.63178     1.67360  0.0
      1      2     14     20   5     0.00000     0.00000     1.25520  0.0
      1      2     14     21   5     0.00000     0.00000     1.25520  0.0
      3      2     14     15   5     4.74884    -0.63178     1.67360  0.0
      3      2     14     20   5     0.00000     0.00000     1.25520  0.0
      3      2     14     21   5     0.00000     0.00000     1.25520  0.0
      4      2     14     15   5    -8.00818    -1.52298     2.46438  0.0
      4      2     14     20   5     0.00000     0.00000    -0.94140  0.0
      4      2     14     21   5     0.00000     0.00000    -0.94140  0.0
      2      4      6     12   5    12.55200    20.50160     0.00000  0.0
      5      4      6     12   5     7.71530    31.30469     0.00000  0.0
      2     14     15     16   5     4.74884    -0.63178     1.67360  0.0
      2     14     15     17   5    -8.00818    -1.52298     2.46438  0.0
      2     14     15     26   5     4.74884    -0.63178     1.67360  0.0
     20     14     15     16   5     0.00000     0.00000     1.25520  0.0
     20     14     15     17   5     0.00000     0.00000    -0.94140  0.0
     20     14     15     26   5     0.00000     0.00000     1.25520  0.0
     21     14     15     16   5     0.00000     0.00000     1.25520  0.0
     21     14     15     17   5     0.00000     0.00000    -0.94140  0.0
     21     14     15     26   5     0.00000     0.00000     1.25520  0.0
     14     15     16     22   5     0.00000     0.00000     1.25520  0.0
     14     15     16     23   5     0.00000     0.00000     1.25520  0.0
     14     15     16     24   5     0.00000     0.00000     1.25520  0.0
     17     15     16     22   5     0.00000     0.00000    -0.94140  0.0
     17     15     16     23   5     0.00000     0.00000    -0.94140  0.0
     17     15     16     24   5     0.00000     0.00000    -0.94140  0.0
     26     15     16     22   5     0.00000     0.00000     1.25520  0.0
     26     15     16     23   5     0.00000     0.00000     1.25520  0.0
     26     15     16     24   5     0.00000     0.00000     1.25520  0.0
     14     15     17     18   5     0.00000     2.52295     0.00000  0.0
     14     15     17     19   5     4.18400     2.28446     1.88280  0.0
     16     15     17     18   5     0.00000     2.52295     0.00000  0.0
     16     15     17     19   5     4.18400     2.28446     1.88280  0.0
     26     15     17     18   5     0.00000     2.52295     0.00000  0.0
     26     15     17     19   5     4.18400     2.28446     1.88280  0.0
     14     15     26     27   5     4.74884    -0.63178     1.67360  0.0
     14     15     26     32   5     0.00000     0.00000     1.25520  0.0
     14     15     26     33   5     0.00000     0.00000     1.25520  0.0
     16     15     26     27   5     4.74884    -0.63178     1.67360  0.0
     16     15     26     32   5     0.00000     0.00000     1.25520  0.0
     16     15     26     33   5     0.00000     0.00000     1.25520  0.0
     17     15     26     27   5    -8.00818    -1.52298     2.46438  0.0
     17     15     26     32   5     0.00000     0.00000    -0.94140  0.0
     17     15     26     33   5     0.00000     0.00000    -0.94140  0.0
     15     17     19     25   5    12.55200    20.50160     0.00000  0.0
     18     17     19     25   5     7.71530    31.30469     0.00000  0.0
     15     26     27     28   5     4.74884    -0.63178     1.67360  0.0
     15     26     27     29   5    -8.00818    -1.52298     2.46438  0.0
     15     26     27     38   5     4.74884    -0.63178     1.67360  0.0
     32     26     27     28   5     0.00000     0.00000     1.25520  0.0
     32     26     27     29   5     0.00000     0.00000    -0.94140  0.0
     32     26     27     38   5     0.00000     0.00000     1.25520  0.0
     33     26     27     28   5     0.00000     0.00000     1.25520  0.0
     33     26     27     29   5     0.00000     0.00000    -0.94140  0.0
     33     26     27     38   5     0.00000     0.00000     1.25520  0.0
     26     27     28     34   5     0.00000     0.00000     1.25520  0.0
     26     27     28     35   5     0.00000     0.00000     1.25520  0.0
     26     27     28     36   5     0.00000     0.00000     1.25520  0.0
     29     27     28     34   5     0.00000     0.00000    -0.94140  0.0
     29     27     28     35   5     0.00000     0.00000    -0.94140  0.0
     29     27     28     36   5     0.00000     0.00000    -0.94140  0.0
     38     27     28     34   5     0.00000     0.00000     1.25520  0.0
     38     27     28     35   5     0.00000     0.00000     1.25520  0.0
     38     27     28     36   5     0.00000     0.00000     1.25520  0.0
     26     27     29     30   5     0.00000     2.52295     0.00000  0.0
     26     27     29     31   5     4.18400     2.28446     1.88280  0.0
     28     27     29     30   5     0.00000     2.52295     0.00000  0.0
     28     27     29     31   5     4.18400     2.28446     1.88280  0.0
     38     27     29     30   5     0.00000     2.52295     0.00000  0.0
     38     27     29     31   5     4.18400     2.28446     1.88280  0.0
     26     27     38     39   5     4.74884    -0.63178     1.67360  0.0
     26     27     38     44   5     0.00000     0.00000     1.25520  0.0
     26     27     38     45   5     0.00000     0.00000     1.25520  0.0
     28     27     38     39   5     4.74884    -0.63178     1.67360  0.0
     28     27     38     44   5     0.00000     0.00000     1.25520  0.0
     28     27     38     45   5     0.00000     0.00000     1.25520  0.0
     29     27     38     39   5    -8.00818    -1.52298     2.46438  0.0
     29     27     38     44   5     0.00000     0.00000    -0.94140  0.0
     29     27     38     45   5     0.00000     0.00000    -0.94140  0.0
     27     29     31     37   5    12.55200    20.50160     0.00000  0.0
     30     29     31     37   5     7.71530    31.30469     0.00000  0.0
     27     38     39     40   5     4.74884    -0.63178     1.67360  0.0
     27     38     39     41   5    -8.00818    -1.52298     2.46438  0.0
     27     38     39     50   5     4.74884    -0.63178     1.67360  0.0
     44     38     39     40   5     0.00000     0.00000     1.25520  0.0
     44     38     39     41   5     0.00000     0.00000    -0.94140  0.0
     44     38     39     50   5     0.00000     0.00000     1.25520  0.0
     45     38     39     40   5     0.00000     0.00000     1.25520  0.0
     45     38     39     41   5     0.00000     0.00000    -0.94140  0.0
     45     38     39     50   5     0.00000     0.00000     1.25520  0.0
     38     39     40     46   5     0.00000     0.00000     1.25520  0.0
     38     39     40     47   5     0.00000     0.00000     1.25520  0.0
     38     39     40     48   5     0.00000     0.00000     1.25520  0.0
     41     39     40     46   5     0.00000     0.00000    -0.94140  0.0
     41     39     40     47   5     0.00000     0.00000    -0.94140  0.0
     41     39     40     48   5     0.00000     0.00000    -0.94140  0.0
     50     39     40     46   5     0.00000     0.00000     1.25520  0.0
     50     39     40     47   5     0.00000     0.00000     1.25520  0.0
     50     39     40     48   5     0.00000     0.00000     1.25520  0.0
     38     39     41     42   5     0.00000     2.52295     0.00000  0.0
     38     39     41     43   5     4.18400     2.28446     1.88280  0.0
     40     39     41     42   5     0.00000     2.52295     0.00000  0.0
     40     39     41     43   5     4.18400     2.28446     1.88280  0.0
     50     39     41     42   5     0.00000     2.52295     0.00000  0.0
     50     39     41     43   5     4.18400     2.28446     1.88280  0.0
     38     39     50     51   5     4.74884    -0.63178     1.67360  0.0
     38     39     50     56   5     0.00000     0.00000     1.25520  0.0
     38     39     50     57   5     0.00000     0.00000     1.25520  0.0
     40     39     50     51   5     4.74884    -0.63178     1.67360  0.0
     40     39     50     56   5     0.00000     0.00000     1.25520  0.0
     40     39     50     57   5     0.00000     0.00000     1.25520  0.0
     41     39     50     51   5    -8.00818    -1.52298     2.46438  0.0
     41     39     50     56   5     0.00000     0.00000    -0.94140  0.0
     41     39     50     57   5     0.00000     0.00000    -0.94140  0.0
     39     41     43     49   5    12.55200    20.50160     0.00000  0.0
     42     41     43     49   5     7.71530    31.30469     0.00000  0.0
     39     50     51     52   5     4.74884    -0.63178     1.67360  0.0
     39     50     51     53   5    -8.00818    -1.52298     2.46438  0.0
     39     50     51     62   5     4.74884    -0.63178     1.67360  0.0
     56     50     51     52   5     0.00000     0.00000     1.25520  0.0
     56     50     51     53   5     0.00000     0.00000    -0.94140  0.0
     56     50     51     62   5     0.00000     0.00000     1.25520  0.0
     57     50     51     52   5     0.00000     0.00000     1.25520  0.0
     57     50     51     53   5     0.00000     0.00000    -0.94140  0.0
     57     50     51     62   5     0.00000     0.00000     1.25520  0.0
     50     51     52     58   5     0.00000     0.00000     1.25520  0.0
     50     51     52     59   5     0.00000     0.00000     1.25520  0.0
     50     51     52     60   5     0.00000     0.00000     1.25520  0.0
     53     51     52     58   5     0.00000     0.00000    -0.94140  0.0
     53     51     52     59   5     0.00000     0.00000    -0.94140  0.0
     53     51     52     60   5     0.00000     0.00000    -0.94140  0.0
     62     51     52     58   5     0.00000     0.00000     1.25520  0.0
     62     51     52     59   5     0.00000     0.00000     1.25520  0.0
     62     51     52     60   5     0.00000     0.00000     1.25520  0.0
     50     51     53     54   5     0.00000     2.52295     0.00000  0.0
     50     51     53     55   5     4.18400     2.28446     1.88280  0.0
     52     51     53     54   5     0.00000     2.52295     0.00000  0.0
     52     51     53     55   5     4.18400     2.28446     1.88280  0.0
     62     51     53     54   5     0.00000     2.52295     0.00000  0.0
     62     51     53     55   5     4.18400     2.28446     1.88280  0.0
     50     51     62     63   5     4.74884    -0.63178     1.67360  0.0
     50     51     62     68   5     0.00000     0.00000     1.25520  0.0
     50     51     62     69   5     0.00000     0.00000     1.25520  0.0
     52     51     62     63   5     4.74884    -0.63178     1.67360  0.0
     52     51     62     68   5     0.00000     0.00000     1.25520  0.0
     52     51     62     69   5     0.00000     0.00000     1.25520  0.0
     53     51     62     63   5    -8.00818    -1.52298     2.46438  0.0
     53     51     62     68   5     0.00000     0.00000    -0.94140  0.0
     53     51     62     69   5     0.00000     0.00000    -0.94140  0.0
     51     53     55     61   5    12.55200    20.50160     0.00000  0.0
     54     53     55     61   5     7.71530    31.30469     0.00000  0.0
     51     62     63     64   5     4.74884    -0.63178     1.67360  0.0
     51     62     63     65   5    -8.00818    -1.52298     2.46438  0.0
     51     62     63     74   5     4.74884    -0.63178     1.67360  0.0
     68     62     63     64   5     0.00000     0.00000     1.25520  0.0
     68     62     63     65   5     0.00000     0.00000    -0.94140  0.0
     68     62     63     74   5     0.00000     0.00000     1.25520  0.0
     69     62     63     64   5     0.00000     0.00000     1.25520  0.0
     69     62     63     65   5     0.00000     0.00000    -0.94140  0.0
     69     62     63     74   5     0.00000     0.00000     1.25520  0.0
     62     63     64     70   5     0.00000     0.00000     1.25520  0.0
     62     63     64     71   5     0.00000     0.00000     1.25520  0.0
     62     63     64     72   5     0.00000     0.00000     1.25520  0.0
     65     63     64     70   5     0.00000     0.00000    -0.94140  0.0
     65     63     64     71   5     0.00000     0.00000    -0.94140  0.0
     65     63     64     72   5     0.00000     0.00000    -0.94140  0.0
     74     63     64     70   5     0.00000     0.00000     1.25520  0.0
     74     63     64     71   5     0.00000     0.00000     1.25520  0.0
     74     63     64     72   5     0.00000     0.00000     1.25520  0.0
     62     63     65     66   5     0.00000     2.52295     0.00000  0.0
     62     63     65     67   5     4.18400     2.28446     1.88280  0.0
     64     63     65     66   5     0.00000     2.52295     0.00000  0.0
     64     63     65     67   5     4.18400     2.28446     1.88280  0.0
     74     63     65     66   5     0.00000     2.52295     0.00000  0.0
     74     63     65     67   5     4.18400     2.28446     1.88280  0.0
     62     63     74     75   5     4.74884    -0.63178     1.67360  0.0
     62     63     74     80   5     0.00000     0.00000     1.25520  0.0
     62     63     74     81   5     0.00000     0.00000     1.25520  0.0
     64     63     74     75   5     4.74884    -0.63178     1.67360  0.0
     64     63     74     80   5     0.00000     0.00000     1.25520  0.0
     64     63     74     81   5     0.00000     0.00000     1.25520  0.0
     65     63     74     75   5    -8.00818    -1.52298     2.46438  0.0
     65     63     74     80   5     0.00000     0.00000    -0.94140  0.0
     65     63     74     81   5     0.00000     0.00000    -0.94140  0.0
     63     65     67     73   5    12.55200    20.50160     0.00000  0.0
     66     65     67     73   5     7.71530    31.30469     0.00000  0.0
     63     74     75     76   5     4.74884    -0.63178     1.67360  0.0
     63     74     75     77   5    -8.00818    -1.52298     2.46438  0.0
     63     74     75     86   5     4.74884    -0.63178     1.67360  0.0
     80     74     75     76   5     0.00000     0.00000     1.25520  0.0
     80     74     75     77   5     0.00000     0.00000    -0.94140  0.0
     80     74     75     86   5     0.00000     0.00000     1.25520  0.0
     81     74     75     76   5     0.00000     0.00000     1.25520  0.0
     81     74     75     77   5     0.00000     0.00000    -0.94140  0.0
     81     74     75     86   5     0.00000     0.00000     1.25520  0.0
     74     75     76     82   5     0.00000     0.00000     1.25520  0.0
     74     75     76     83   5     0.00000     0.00000     1.25520  0.0
     74     75     76     84   5     0.00000     0.00000     1.25520  0.0
     77     75     76     82   5     0.00000     0.00000    -0.94140  0.0
     77     75     76     83   5     0.00000     0.00000    -0.94140  0.0
     77     75     76     84   5     0.00000     0.00000    -0.94140  0.0
     86     75     76     82   5     0.00000     0.00000     1.25520  0.0
     86     75     76     83   5     0.00000     0.00000     1.25520  0.0
     86     75     76     84   5     0.00000     0.00000     1.25520  0.0
     74     75     77     78   5     0.00000     2.52295     0.00000  0.0
     74     75     77     79   5     4.18400     2.28446     1.88280  0.0
     76     75     77     78   5     0.00000     2.52295     0.00000  0.0
     76     75     77     79   5     4.18400     2.28446     1.88280  0.0
     86     75     77     78   5     0.00000     2.52295     0.00000  0.0
     86     75     77     79   5     4.18400     2.28446     1.88280  0.0
     74     75     86     87   5     4.74884    -0.63178     1.67360  0.0
     74     75     86     92   5     0.00000     0.00000     1.25520  0.0
     74     75     86     93   5     0.00000     0.00000     1.25520  0.0
     76     75     86     87   5     4.74884    -0.63178     1.67360  0.0
     76     75     86     92   5     0.00000     0.00000     1.25520  0.0
     76     75     86     93   5     0.00000     0.00000     1.25520  0.0
     77     75     86     87   5    -8.00818    -1.52298     2.46438  0.0
     77     75     86     92   5     0.00000     0.00000    -0.94140  0.0
     77     75     86     93   5     0.00000     0.00000    -0.94140  0.0
     75     77     79     85   5    12.55200    20.50160     0.00000  0.0
     78     77     79     85   5     7.71530    31.30469     0.00000  0.0
     75     86     87     88   5     4.74884    -0.63178     1.67360  0.0
     75     86     87     89   5    -8.00818    -1.52298     2.46438  0.0
     75     86     87     98   5     4.74884    -0.63178     1.67360  0.0
     92     86     87     88   5     0.00000     0.00000     1.25520  0.0
     92     86     87     89   5     0.00000     0.00000    -0.94140  0.0
     92     86     87     98   5     0.00000     0.00000     1.25520  0.0
     93     86     87     88   5     0.00000     0.00000     1.25520  0.0
     93     86     87     89   5     0.00000     0.00000    -0.94140  0.0
     93     86     87     98   5     0.00000     0.00000     1.25520  0.0
     86     87     88     94   5     0.00000     0.00000     1.25520  0.0
     86     87     88     95   5     0.00000     0.00000     1.25520  0.0
     86     87     88     96   5     0.00000     0.00000     1.25520  0.0
     89     87     88     94   5     0.00000     0.00000    -0.94140  0.0
     89     87     88     95   5     0.00000     0.00000    -0.94140  0.0
     89     87     88     96   5     0.00000     0.00000    -0.94140  0.0
     98     87     88     94   5     0.00000     0.00000     1.25520  0.0
     98     87     88     95   5     0.00000     0.00000     1.25520  0.0
     98     87     88     96   5     0.00000     0.00000     1.25520  0.0
     86     87     89     90   5     0.00000     2.52295     0.00000  0.0
     86     87     89     91   5     4.18400     2.28446     1.88280  0.0
     88     87     89     90   5     0.00000     2.52295     0.00000  0.0
     88     87     89     91   5     4.18400     2.28446     1.88280  0.0
     98     87     89     90   5     0.00000     2.52295     0.00000  0.0
     98     87     89     91   5     4.18400     2.28446     1.88280  0.0
     86     87     98     99   5     4.74884    -0.63178     1.67360  0.0
     86     87     98    104   5     0.00000     0.00000     1.25520  0.0
     86     87     98    105   5     0.00000     0.00000     1.25520  0.0
     88     87     98     99   5     4.74884    -0.63178     1.67360  0.0
     88     87     98    104   5     0.00000     0.00000     1.25520  0.0
     88     87     98    105   5     0.00000     0.00000     1.25520  0.0
     89     87     98     99   5    -8.00818    -1.52298     2.46438  0.0
     89     87     98    104   5     0.00000     0.00000    -0.94140  0.0
     89     87     98    105   5     0.00000     0.00000    -0.94140  0.0
     87     89     91     97   5    12.55200    20.50160     0.00000  0.0
     90     89     91     97   5     7.71530    31.30469     0.00000  0.0
     87     98     99    100   5     4.74884    -0.63178     1.67360  0.0
     87     98     99    101   5    -8.00818    -1.52298     2.46438  0.0
     87     98     99    110   5     4.74884    -0.63178     1.67360  0.0
    104     98     99    100   5     0.00000     0.00000     1.25520  0.0
    104     98     99    101   5     0.00000     0.00000    -0.94140  0.0
    104     98     99    110   5     0.00000     0.00000     1.25520  0.0
    105     98     99    100   5     0.00000     0.00000     1.25520  0.0
    105     98     99    101   5     0.00000     0.00000    -0.94140  0.0
    105     98     99    110   5     0.00000     0.00000     1.25520  0.0
     98     99    100    106   5     0.00000     0.00000     1.25520  0.0
     98     99    100    107   5     0.00000     0.00000     1.25520  0.0
     98     99    100    108   5     0.00000     0.00000     1.25520  0.0
    101     99    100    106   5     0.00000     0.00000    -0.94140  0.0
    101     99    100    107   5     0.00000     0.00000    -0.94140  0.0
    101     99    100    108   5     0.00000     0.00000    -0.94140  0.0
    110     99    100    106   5     0.00000     0.00000     1.25520  0.0
    110     99    100    107   5     0.00000     0.00000     1.25520  0.0
    110     99    100    108   5     0.00000     0.00000     1.25520  0.0
     98     99    101    102   5     0.00000     2.52295     0.00000  0.0
     98     99    101    103   5     4.18400     2.28446     1.88280  0.0
    100     99    101    102   5     0.00000     2.52295     0.00000  0.0
    100     99    101    103   5     4.18400     2.28446     1.88280  0.0
    110     99    101    102   5     0.00000     2.52295     0.00000  0.0
    110     99    101    103   5     4.18400     2.28446     1.88280  0.0
     98     99    110    111   5     4.74884    -0.63178     1.67360  0.0
     98     99    110    116   5     0.00000     0.00000     1.25520  0.0
     98     99    110    117   5     0.00000     0.00000     1.25520  0.0
    100     99    110    111   5     4.74884    -0.63178     1.67360  0.0
    100     99    110    116   5     0.00000     0.00000     1.25520  0.0
    100     99    110    117   5     0.00000     0.00000     1.25520  0.0
    101     99    110    111   5    -8.00818    -1.52298     2.46438  0.0
    101     99    110    116   5     0.00000     0.00000    -0.94140  0.0
    101     99    110    117   5     0.00000     0.00000    -0.94140  0.0
     99    101    103    109   5    12.55200    20.50160     0.00000  0.0
    102    101    103    109   5     7.71530    31.30469     0.00000  0.0
     99    110    111    112   5     4.74884    -0.63178     1.67360  0.0
     99    110    111    113   5    -8.00818    -1.52298     2.46438  0.0
     99    110    111    122   5     4.74884    -0.63178     1.67360  0.0
    116    110    111    112   5     0.00000     0.00000     1.25520  0.0
    116    110    111    113   5     0.00000     0.00000    -0.94140  0.0
    116    110    111    122   5     0.00000     0.00000     1.25520  0.0
    117    110    111    112   5     0.00000     0.00000     1.25520  0.0
    117    110    111    113   5     0.00000     0.00000    -0.94140  0.0
    117    110    111    122   5     0.00000     0.00000     1.25520  0.0
    110    111    112    118   5     0.00000     0.00000     1.25520  0.0
    110    111    112    119   5     0.00000     0.00000     1.25520  0.0
    110    111    112    120   5     0.00000     0.00000     1.25520  0.0
    113    111    112    118   5     0.00000     0.00000    -0.94140  0.0
    113    111    112    119   5     0.00000     0.00000    -0.94140  0.0
    113    111    112    120   5     0.00000     0.00000    -0.94140  0.0
    122    111    112    118   5     0.00000     0.00000     1.25520  0.0
    122    111    112    119   5     0.00000     0.00000     1.25520  0.0
    122    111    112    120   5     0.00000     0.00000     1.25520  0.0
    110    111    113    114   5     0.00000     2.52295     0.00000  0.0
    110    111    113    115   5     4.18400     2.28446     1.88280  0.0
    112    111    113    114   5     0.00000     2.52295     0.00000  0.0
    112    111    113    115   5     4.18400     2.28446     1.88280  0.0
    122    111    113    114   5     0.00000     2.52295     0.00000  0.0
    122    111    113    115   5     4.18400     2.28446     1.88280  0.0
    110    111    122    123   5     4.74884    -0.63178     1.67360  0.0
    110    111    122    128   5     0.00000     0.00000     1.25520  0.0
    110    111    122    129   5     0.00000     0.00000     1.25520  0.0
    112    111    122    123   5     4.74884    -0.63178     1.67360  0.0
    112    111    122    128   5     0.00000     0.00000     1.25520  0.0
    112    111    122    129   5     0.00000     0.00000     1.25520  0.0
    113    111    122    123   5    -8.00818    -1.52298     2.46438  0.0
    113    111    122    128   5     0.00000     0.00000    -0.94140  0.0
    113    111    122    129   5     0.00000     0.00000    -0.94140  0.0
    111    113    115    121   5    12.55200    20.50160     0.00000  0.0
    114    113    115    121   5     7.71530    31.30469     0.00000  0.0
    111    122    123    124   5     4.74884    -0.63178     1.67360  0.0
    111    122    123    125   5    -8.00818    -1.52298     2.46438  0.0
    111    122    123    134   5     4.74884    -0.63178     1.67360  0.0
    128    122    123    124   5     0.00000     0.00000     1.25520  0.0
    128    122    123    125   5     0.00000     0.00000    -0.94140  0.0
    128    122    123    134   5     0.00000     0.00000     1.25520  0.0
    129    122    123    124   5     0.00000     0.00000     1.25520  0.0
    129    122    123    125   5     0.00000     0.00000    -0.94140  0.0
    129    122    123    134   5     0.00000     0.00000     1.25520  0.0
    122    123    124    130   5     0.00000     0.00000     1.25520  0.0
    122    123    124    131   5     0.00000     0.00000     1.25520  0.0
    122    123    124    132   5     0.00000     0.00000     1.25520  0.0
    125    123    124    130   5     0.00000     0.00000    -0.94140  0.0
    125    123    124    131   5     0.00000     0.00000    -0.94140  0.0
    125    123    124    132   5     0.00000     0.00000    -0.94140  0.0
    134    123    124    130   5     0.00000     0.00000     1.25520  0.0
    134    123    124    131   5     0.00000     0.00000     1.25520  0.0
    134    123    124    132   5     0.00000     0.00000     1.25520  0.0
    122    123    125    126   5     0.00000     2.52295     0.00000  0.0
    122    123    125    127   5     4.18400     2.28446     1.88280  0.0
    124    123    125    126   5     0.00000     2.52295     0.00000  0.0
    124    123    125    127   5     4.18400     2.28446     1.88280  0.0
    134    123    125    126   5     0.00000     2.52295     0.00000  0.0
    134    123    125    127   5     4.18400     2.28446     1.88280  0.0
    122    123    134    135   5     4.74884    -0.63178     1.67360  0.0
    122    123    134    140   5     0.00000     0.00000     1.25520  0.0
    122    123    134    141   5     0.00000     0.00000     1.25520  0.0
    124    123    134    135   5     4.74884    -0.63178     1.67360  0.0
    124    123    134    140   5     0.00000     0.00000     1.25520  0.0
    124    123    134    141   5     0.00000     0.00000     1.25520  0.0
    125    123    134    135   5    -8.00818    -1.52298     2.46438  0.0
    125    123    134    140   5     0.00000     0.00000    -0.94140  0.0
    125    123    134    141   5     0.00000     0.00000    -0.94140  0.0
    123    125    127    133   5    12.55200    20.50160     0.00000  0.0
    126    125    127    133   5     7.71530    31.30469     0.00000  0.0
    123    134    135    136   5     4.74884    -0.63178     1.67360  0.0
    123    134    135    137   5    -8.00818    -1.52298     2.46438  0.0
    123    134    135    146   5     4.74884    -0.63178     1.67360  0.0
    140    134    135    136   5     0.00000     0.00000     1.25520  0.0
    140    134    135    137   5     0.00000     0.00000    -0.94140  0.0
    140    134    135    146   5     0.00000     0.00000     1.25520  0.0
    141    134    135    136   5     0.00000     0.00000     1.25520  0.0
    141    134    135    137   5     0.00000     0.00000    -0.94140  0.0
    141    134    135    146   5     0.00000     0.00000     1.25520  0.0
    134    135    136    142   5     0.00000     0.00000     1.25520  0.0
    134    135    136    143   5     0.00000     0.00000     1.25520  0.0
    134    135    136    144   5     0.00000     0.00000     1.25520  0.0
    137    135    136    142   5     0.00000     0.00000    -0.94140  0.0
    137    135    136    143   5     0.00000     0.00000    -0.94140  0.0
    137    135    136    144   5     0.00000     0.00000    -0.94140  0.0
    146    135    136    142   5     0.00000     0.00000     1.25520  0.0
    146    135    136    143   5     0.00000     0.00000     1.25520  0.0
    146    135    136    144   5     0.00000     0.00000     1.25520  0.0
    134    135    137    138   5     0.00000     2.52295     0.00000  0.0
    134    135    137    139   5     4.18400     2.28446     1.88280  0.0
    136    135    137    138   5     0.00000     2.52295     0.00000  0.0
    136    135    137    139   5     4.18400     2.28446     1.88280  0.0
    146    135    137    138   5     0.00000     2.52295     0.00000  0.0
    146    135    137    139   5     4.18400     2.28446     1.88280  0.0
    134    135    146    147   5     4.74884    -0.63178     1.67360  0.0
    134    135    146    152   5     0.00000     0.00000     1.25520  0.0
    134    135    146    153   5     0.00000     0.00000     1.25520  0.0
    136    135    146    147   5     4.74884    -0.63178     1.67360  0.0
    136    135    146    152   5     0.00000     0.00000     1.25520  0.0
    136    135    146    153   5     0.00000     0.00000     1.25520  0.0
    137    135    146    147   5    -8.00818    -1.52298     2.46438  0.0
    137    135    146    152   5     0.00000     0.00000    -0.94140  0.0
    137    135    146    153   5     0.00000     0.00000    -0.94140  0.0
    135    137    139    145   5    12.55200    20.50160     0.00000  0.0
    138    137    139    145   5     7.71530    31.30469     0.00000  0.0
    135    146    147    148   5     4.74884    -0.63178     1.67360  0.0
    135    146    147    149   5    -8.00818    -1.52298     2.46438  0.0
    135    146    147    158   5     4.74884    -0.63178     1.67360  0.0
    152    146    147    148   5     0.00000     0.00000     1.25520  0.0
    152    146    147    149   5     0.00000     0.00000    -0.94140  0.0
    152    146    147    158   5     0.00000     0.00000     1.25520  0.0
    153    146    147    148   5     0.00000     0.00000     1.25520  0.0
    153    146    147    149   5     0.00000     0.00000    -0.94140  0.0
    153    146    147    158   5     0.00000     0.00000     1.25520  0.0
    146    147    148    154   5     0.00000     0.00000     1.25520  0.0
    146    147    148    155   5     0.00000     0.00000     1.25520  0.0
    146    147    148    156   5     0.00000     0.00000     1.25520  0.0
    149    147    148    154   5     0.00000     0.00000    -0.94140  0.0
    149    147    148    155   5     0.00000     0.00000    -0.94140  0.0
    149    147    148    156   5     0.00000     0.00000    -0.94140  0.0
    158    147    148    154   5     0.00000     0.00000     1.25520  0.0
    158    147    148    155   5     0.00000     0.00000     1.25520  0.0
    158    147    148    156   5     0.00000     0.00000     1.25520  0.0
    146    147    149    150   5     0.00000     2.52295     0.00000  0.0
    146    147    149    151   5     4.18400     2.28446     1.88280  0.0
    148    147    149    150   5     0.00000     2.52295     0.00000  0.0
    148    147    149    151   5     4.18400     2.28446     1.88280  0.0
    158    147    149    150   5     0.00000     2.52295     0.00000  0.0
    158    147    149    151   5     4.18400     2.28446     1.88280  0.0
    146    147    158    159   5     4.74884    -0.63178     1.67360  0.0
    146    147    158    164   5     0.00000     0.00000     1.25520  0.0
    146    147    158    165   5     0.00000     0.00000     1.25520  0.0
    148    147    158    159   5     4.74884    -0.63178     1.67360  0.0
    148    147    158    164   5     0.00000     0.00000     1.25520  0.0
    148    147    158    165   5     0.00000     0.00000     1.25520  0.0
    149    147    158    159   5    -8.00818    -1.52298     2.46438  0.0
    149    147    158    164   5     0.00000     0.00000    -0.94140  0.0
    149    147    158    165   5     0.00000     0.00000    -0.94140  0.0
    147    149    151    157   5    12.55200    20.50160     0.00000  0.0
    150    149    151    157   5     7.71530    31.30469     0.00000  0.0
    147    158    159    160   5     4.74884    -0.63178     1.67360  0.0
    147    158    159    161   5    -8.00818    -1.52298     2.46438  0.0
    147    158    159    170   5     4.74884    -0.63178     1.67360  0.0
    164    158    159    160   5     0.00000     0.00000     1.25520  0.0
    164    158    159    161   5     0.00000     0.00000    -0.94140  0.0
    164    158    159    170   5     0.00000     0.00000     1.25520  0.0
    165    158    159    160   5     0.00000     0.00000     1.25520  0.0
    165    158    159    161   5     0.00000     0.00000    -0.94140  0.0
    165    158    159    170   5     0.00000     0.00000     1.25520  0.0
    158    159    160    166   5     0.00000     0.00000     1.25520  0.0
    158    159    160    167   5     0.00000     0.00000     1.25520  0.0
    158    159    160    168   5     0.00000     0.00000     1.25520  0.0
    161    159    160    166   5     0.00000     0.00000    -0.94140  0.0
    161    159    160    167   5     0.00000     0.00000    -0.94140  0.0
    161    159    160    168   5     0.00000     0.00000    -0.94140  0.0
    170    159    160    166   5     0.00000     0.00000     1.25520  0.0
    170    159    160    167   5     0.00000     0.00000     1.25520  0.0
    170    159    160    168   5     0.00000     0.00000     1.25520  0.0
    158    159    161    162   5     0.00000     2.52295     0.00000  0.0
    158    159    161    163   5     4.18400     2.28446     1.88280  0.0
    160    159    161    162   5     0.00000     2.52295     0.00000  0.0
    160    159    161    163   5     4.18400     2.28446     1.88280  0.0
    170    159    161    162   5     0.00000     2.52295     0.00000  0.0
    170    159    161    163   5     4.18400     2.28446     1.88280  0.0
    158    159    170    171   5     4.74884    -0.63178     1.67360  0.0
    158    159    170    176   5     0.00000     0.00000     1.25520  0.0
    158    159    170    177   5     0.00000     0.00000     1.25520  0.0
    160    159    170    171   5     4.74884    -0.63178     1.67360  0.0
    160    159    170    176   5     0.00000     0.00000     1.25520  0.0
    160    159    170    177   5     0.00000     0.00000     1.25520  0.0
    161    159    170    171   5    -8.00818    -1.52298     2.46438  0.0
    161    159    170    176   5     0.00000     0.00000    -0.94140  0.0
    161    159    170    177   5     0.00000     0.00000    -0.94140  0.0
    159    161    163    169   5    12.55200    20.50160     0.00000  0.0
    162    161    163    169   5     7.71530    31.30469     0.00000  0.0
    159    170    171    172   5     4.74884    -0.63178     1.67360  0.0
    159    170    171    173   5    -8.00818    -1.52298     2.46438  0.0
    159    170    171    182   5     4.74884    -0.63178     1.67360  0.0
    176    170    171    172   5     0.00000     0.00000     1.25520  0.0
    176    170    171    173   5     0.00000     0.00000    -0.94140  0.0
    176    170    171    182   5     0.00000     0.00000     1.25520  0.0
    177    170    171    172   5     0.00000     0.00000     1.25520  0.0
    177    170    171    173   5     0.00000     0.00000    -0.94140  0.0
    177    170    171    182   5     0.00000     0.00000     1.25520  0.0
    170    171    172    178   5     0.00000     0.00000     1.25520  0.0
    170    171    172    179   5     0.00000     0.00000     1.25520  0.0
    170    171    172    180   5     0.00000     0.00000     1.25520  0.0
    173    171    172    178   5     0.00000     0.00000    -0.94140  0.0
    173    171    172    179   5     0.00000     0.00000    -0.94140  0.0
    173    171    172    180   5     0.00000     0.00000    -0.94140  0.0
    182    171    172    178   5     0.00000     0.00000     1.25520  0.0
    182    171    172    179   5     0.00000     0.00000     1.25520  0.0
    182    171    172    180   5     0.00000     0.00000     1.25520  0.0
    170    171    173    174   5     0.00000     2.52295     0.00000  0.0
    170    171    173    175   5     4.18400     2.28446     1.88280  0.0
    172    171    173    174   5     0.00000     2.52295     0.00000  0.0
    172    171    173    175   5     4.18400     2.28446     1.88280  0.0
    182    171    173    174   5     0.00000     2.52295     0.00000  0.0
    182    171    173    175   5     4.18400     2.28446     1.88280  0.0
    170    171    182    183   5     4.74884    -0.63178     1.67360  0.0
    170    171    182    188   5     0.00000     0.00000     1.25520  0.0
    170    171    182    189   5     0.00000     0.00000     1.25520  0.0
    172    171    182    183   5     4.74884    -0.63178     1.67360  0.0
    172    171    182    188   5     0.00000     0.00000     1.25520  0.0
    172    171    182    189   5     0.00000     0.00000     1.25520  0.0
    173    171    182    183   5    -8.00818    -1.52298     2.46438  0.0
    173    171    182    188   5     0.00000     0.00000    -0.94140  0.0
    173    171    182    189   5     0.00000     0.00000    -0.94140  0.0
    171    173    175    181   5    12.55200    20.50160     0.00000  0.0
    174    173    175    181   5     7.71530    31.30469     0.00000  0.0
    171    182    183    184   5     4.74884    -0.63178     1.67360  0.0
    171    182    183    185   5    -8.00818    -1.52298     2.46438  0.0
    171    182    183    194   5     4.74884    -0.63178     1.67360  0.0
    188    182    183    184   5     0.00000     0.00000     1.25520  0.0
    188    182    183    185   5     0.00000     0.00000    -0.94140  0.0
    188    182    183    194   5     0.00000     0.00000     1.25520  0.0
    189    182    183    184   5     0.00000     0.00000     1.25520  0.0
    189    182    183    185   5     0.00000     0.00000    -0.94140  0.0
    189    182    183    194   5     0.00000     0.00000     1.25520  0.0
    182    183    184    190   5     0.00000     0.00000     1.25520  0.0
    182    183    184    191   5     0.00000     0.00000     1.25520  0.0
    182    183    184    192   5     0.00000     0.00000     1.25520  0.0
    185    183    184    190   5     0.00000     0.00000    -0.94140  0.0
    185    183    184    191   5     0.00000     0.00000    -0.94140  0.0
    185    183    184    192   5     0.00000     0.00000    -0.94140  0.0
    194    183    184    190   5     0.00000     0.00000     1.25520  0.0
    194    183    184    191   5     0.00000     0.00000     1.25520  0.0
    194    183    184    192   5     0.00000     0.00000     1.25520  0.0
    182    183    185    186   5     0.00000     2.52295     0.00000  0.0
    182    183    185    187   5     4.18400     2.28446     1.88280  0.0
    184    183    185    186   5     0.00000     2.52295     0.00000  0.0
    184    183    185    187   5     4.18400     2.28446     1.88280  0.0
    194    183    185    186   5     0.00000     2.52295     0.00000  0.0
    194    183    185    187   5     4.18400     2.28446     1.88280  0.0
    182    183    194    195   5     4.74884    -0.63178     1.67360  0.0
    182    183    194    200   5     0.00000     0.00000     1.25520  0.0
    182    183    194    201   5     0.00000     0.00000     1.25520  0.0
    184    183    194    195   5     4.74884    -0.63178     1.67360  0.0
    184    183    194    200   5     0.00000     0.00000     1.25520  0.0
    184    183    194    201   5     0.00000     0.00000     1.25520  0.0
    185    183    194    195   5    -8.00818    -1.52298     2.46438  0.0
    185    183    194    200   5     0.00000     0.00000    -0.94140  0.0
    185    183    194    201   5     0.00000     0.00000    -0.94140  0.0
    183    185    187    193   5    12.55200    20.50160     0.00000  0.0
    186    185    187    193   5     7.71530    31.30469     0.00000  0.0
    183    194    195    196   5     4.74884    -0.63178     1.67360  0.0
    183    194    195    197   5    -8.00818    -1.52298     2.46438  0.0
    183    194    195    206   5     4.74884    -0.63178     1.67360  0.0
    200    194    195    196   5     0.00000     0.00000     1.25520  0.0
    200    194    195    197   5     0.00000     0.00000    -0.94140  0.0
    200    194    195    206   5     0.00000     0.00000     1.25520  0.0
    201    194    195    196   5     0.00000     0.00000     1.25520  0.0
    201    194    195    197   5     0.00000     0.00000    -0.94140  0.0
    201    194    195    206   5     0.00000     0.00000     1.25520  0.0
    194    195    196    202   5     0.00000     0.00000     1.25520  0.0
    194    195    196    203   5     0.00000     0.00000     1.25520  0.0
    194    195    196    204   5     0.00000     0.00000     1.25520  0.0
    197    195    196    202   5     0.00000     0.00000    -0.94140  0.0
    197    195    196    203   5     0.00000     0.00000    -0.94140  0.0
    197    195    196    204   5     0.00000     0.00000    -0.94140  0.0
    206    195    196    202   5     0.00000     0.00000     1.25520  0.0
    206    195    196    203   5     0.00000     0.00000     1.25520  0.0
    206    195    196    204   5     0.00000     0.00000     1.25520  0.0
    194    195    197    198   5     0.00000     2.52295     0.00000  0.0
    194    195    197    199   5     4.18400     2.28446     1.88280  0.0
    196    195    197    198   5     0.00000     2.52295     0.00000  0.0
    196    195    197    199   5     4.18400     2.28446     1.88280  0.0
    206    195    197    198   5     0.00000     2.52295     0.00000  0.0
    206    195    197    199   5     4.18400     2.28446     1.88280  0.0
    194    195    206    207   5     4.74884    -0.63178     1.67360  0.0
    194    195    206    212   5     0.00000     0.00000     1.25520  0.0
    194    195    206    213   5     0.00000     0.00000     1.25520  0.0
    196    195    206    207   5     4.74884    -0.63178     1.67360  0.0
    196    195    206    212   5     0.00000     0.00000     1.25520  0.0
    196    195    206    213   5     0.00000     0.00000     1.25520  0.0
    197    195    206    207   5    -8.00818    -1.52298     2.46438  0.0
    197    195    206    212   5     0.00000     0.00000    -0.94140  0.0
    197    195    206    213   5     0.00000     0.00000    -0.94140  0.0
    195    197    199    205   5    12.55200    20.50160     0.00000  0.0
    198    197    199    205   5     7.71530    31.30469     0.00000  0.0
    195    206    207    208   5     4.74884    -0.63178     1.67360  0.0
    195    206    207    209   5    -8.00818    -1.52298     2.46438  0.0
    195    206    207    218   5     4.74884    -0.63178     1.67360  0.0
    212    206    207    208   5     0.00000     0.00000     1.25520  0.0
    212    206    207    209   5     0.00000     0.00000    -0.94140  0.0
    212    206    207    218   5     0.00000     0.00000     1.25520  0.0
    213    206    207    208   5     0.00000     0.00000     1.25520  0.0
    213    206    207    209   5     0.00000     0.00000    -0.94140  0.0
    213    206    207    218   5     0.00000     0.00000     1.25520  0.0
    206    207    208    214   5     0.00000     0.00000     1.25520  0.0
    206    207    208    215   5     0.00000     0.00000     1.25520  0.0
    206    207    208    216   5     0.00000     0.00000     1.25520  0.0
    209    207    208    214   5     0.00000     0.00000    -0.94140  0.0
    209    207    208    215   5     0.00000     0.00000    -0.94140  0.0
    209    207    208    216   5     0.00000     0.00000    -0.94140  0.0
    218    207    208    214   5     0.00000     0.00000     1.25520  0.0
    218    207    208    215   5     0.00000     0.00000     1.25520  0.0
    218    207    208    216   5     0.00000     0.00000     1.25520  0.0
    206    207    209    210   5     0.00000     2.52295     0.00000  0.0
    206    207    209    211   5     4.18400     2.28446     1.88280  0.0
    208    207    209    210   5     0.00000     2.52295     0.00000  0.0
    208    207    209    211   5     4.18400     2.28446     1.88280  0.0
    218    207    209    210   5     0.00000     2.52295     0.00000  0.0
    218    207    209    211   5     4.18400     2.28446     1.88280  0.0
    206    207    218    219   5     4.74884    -0.63178     1.67360  0.0
    206    207    218    224   5     0.00000     0.00000     1.25520  0.0
    206    207    218    225   5     0.00000     0.00000     1.25520  0.0
    208    207    218    219   5     4.74884    -0.63178     1.67360  0.0
    208    207    218    224   5     0.00000     0.00000     1.25520  0.0
    208    207    218    225   5     0.00000     0.00000     1.25520  0.0
    209    207    218    219   5    -8.00818    -1.52298     2.46438  0.0
    209    207    218    224   5     0.00000     0.00000    -0.94140  0.0
    209    207    218    225   5     0.00000     0.00000    -0.94140  0.0
    207    209    211    217   5    12.55200    20.50160     0.00000  0.0
    210    209    211    217   5     7.71530    31.30469     0.00000  0.0
    207    218    219    220   5     4.74884    -0.63178     1.67360  0.0
    207    218    219    221   5    -8.00818    -1.52298     2.46438  0.0
    207    218    219    230   5     4.74884    -0.63178     1.67360  0.0
    224    218    219    220   5     0.00000     0.00000     1.25520  0.0
    224    218    219    221   5     0.00000     0.00000    -0.94140  0.0
    224    218    219    230   5     0.00000     0.00000     1.25520  0.0
    225    218    219    220   5     0.00000     0.00000     1.25520  0.0
    225    218    219    221   5     0.00000     0.00000    -0.94140  0.0
    225    218    219    230   5     0.00000     0.00000     1.25520  0.0
    218    219    220    226   5     0.00000     0.00000     1.25520  0.0
    218    219    220    227   5     0.00000     0.00000     1.25520  0.0
    218    219    220    228   5     0.00000     0.00000     1.25520  0.0
    221    219    220    226   5     0.00000     0.00000    -0.94140  0.0
    221    219    220    227   5     0.00000     0.00000    -0.94140  0.0
    221    219    220    228   5     0.00000     0.00000    -0.94140  0.0
    230    219    220    226   5     0.00000     0.00000     1.25520  0.0
    230    219    220    227   5     0.00000     0.00000     1.25520  0.0
    230    219    220    228   5     0.00000     0.00000     1.25520  0.0
    218    219    221    222   5     0.00000     2.52295     0.00000  0.0
    218    219    221    223   5     4.18400     2.28446     1.88280  0.0
    220    219    221    222   5     0.00000     2.52295     0.00000  0.0
    220    219    221    223   5     4.18400     2.28446     1.88280  0.0
    230    219    221    222   5     0.00000     2.52295     0.00000  0.0
    230    219    221    223   5     4.18400     2.28446     1.88280  0.0
    218    219    230    231   5     4.74884    -0.63178     1.67360  0.0
    218    219    230    236   5     0.00000     0.00000     1.25520  0.0
    218    219    230    237   5     0.00000     0.00000     1.25520  0.0
    220    219    230    231   5     4.74884    -0.63178     1.67360  0.0
    220    219    230    236   5     0.00000     0.00000     1.25520  0.0
    220    219    230    237   5     0.00000     0.00000     1.25520  0.0
    221    219    230    231   5    -8.00818    -1.52298     2.46438  0.0
    221    219    230    236   5     0.00000     0.00000    -0.94140  0.0
    221    219    230    237   5     0.00000     0.00000    -0.94140  0.0
    219    221    223    229   5    12.55200    20.50160     0.00000  0.0
    222    221    223    229   5     7.71530    31.30469     0.00000  0.0
    219    230    231    232   5     4.74884    -0.63178     1.67360  0.0
    219    230    231    233   5    -8.00818    -1.52298     2.46438  0.0
    219    230    231    242   5     0.00000     0.00000     1.25520  0.0
    236    230    231    232   5     0.00000     0.00000     1.25520  0.0
    236    230    231    233   5     0.00000     0.00000    -0.94140  0.0
    236    230    231    242   5     0.00000     0.00000     1.25520  0.0
    237    230    231    232   5     0.00000     0.00000     1.25520  0.0
    237    230    231    233   5     0.00000     0.00000    -0.94140  0.0
    237    230    231    242   5     0.00000     0.00000     1.25520  0.0
    230    231    232    238   5     0.00000     0.00000     1.25520  0.0
    230    231    232    239   5     0.00000     0.00000     1.25520  0.0
    230    231    232    240   5     0.00000     0.00000     1.25520  0.0
    233    231    232    238   5     0.00000     0.00000    -0.94140  0.0
    233    231    232    239   5     0.00000     0.00000    -0.94140  0.0
    233    231    232    240   5     0.00000     0.00000    -0.94140  0.0
    242    231    232    238   5     0.00000     0.00000     1.25520  0.0
    242    231    232    239   5     0.00000     0.00000     1.25520  0.0
    242    231    232    240   5     0.00000     0.00000     1.25520  0.0
    230    231    233    234   5     0.00000     2.52295     0.00000  0.0
    230    231    233    235   5     4.18400     2.28446     1.88280  0.0
    232    231    233    234   5     0.00000     2.52295     0.00000  0.0
    232    231    233    235   5     4.18400     2.28446     1.88280  0.0
    242    231    233    234   5     0.00000     0.00000     0.00000  0.0
    242    231    233    235   5     0.00000     0.00000     0.00000  0.0
    231    233    235    241   5    12.55200    20.50160     0.00000  0.0
    234    233    235    241   5     7.71530    31.30469     0.00000  0.0

[ dihedrals ]
; Improper dihedrals
; h   i   j   k   funct
      2      5      4      6   5     0.00000    87.86400     0.00000  0.0
     15     18     17     19   5     0.00000    87.86400     0.00000  0.0
     27     30     29     31   5     0.00000    87.86400     0.00000  0.0
     39     42     41     43   5     0.00000    87.86400     0.00000  0.0
     51     54     53     55   5     0.00000    87.86400     0.00000  0.0
     63     66     65     67   5     0.00000    87.86400     0.00000  0.0
     75     78     77     79   5     0.00000    87.86400     0.00000  0.0
     87     90     89     91   5     0.00000    87.86400     0.00000  0.0
     99    102    101    103   5     0.00000    87.86400     0.00000  0.0
    111    114    113    115   5     0.00000    87.86400     0.00000  0.0
    123    126    125    127   5     0.00000    87.86400     0.00000  0.0
    135    138    137    139   5     0.00000    87.86400     0.00000  0.0
    147    150    149    151   5     0.00000    87.86400     0.00000  0.0
    159    162    161    163   5     0.00000    87.86400     0.00000  0.0
    171    174    173    175   5     0.00000    87.86400     0.00000  0.0
    183    186    185    187   5     0.00000    87.86400     0.00000  0.0
    195    198    197    199   5     0.00000    87.86400     0.00000  0.0
    207    210    209    211   5     0.00000    87.86400     0.00000  0.0
    219    222    221    223   5     0.00000    87.86400     0.00000  0.0
    231    234    233    235   5     0.00000    87.86400     0.00000  0.0
