;
; Gromacs include topology (itp) file.
; For Molecular Group XYZ
; Force field scheme: opls2005
; Produced from DL_FIELD v4.11
;


[ moleculetype ]
; name    nrexcl
XYZ    3

[ atoms ]
; nr   type   resnr   residu    atom    cgnr    charge    mass
    1        CA    1  MOL      C1     1  -0.1150000   12.0115
    2        CA    1  MOL      C2     2  -0.1150000   12.0115
    3        CA    1  MOL      C3     3  -0.1150000   12.0115
    4        CA    1  MOL      C4     4   0.0000000   12.0115
    5       CME    1  MOL      C5     5  -0.1150000   12.0115
    6       CME    1  MOL      C6     6  -0.1150000   12.0115
    7        CA    1  MOL      C7     7  -0.1150000   12.0115
    8        CA    1  MOL      C8     8  -0.1150000   12.0115
    9        HA    1  MOL      H9     9   0.1150000    1.0080
   10        HA    1  MOL     H10    10   0.1150000    1.0080
   11        HE    1  MOL     H11    11   0.1150000    1.0080
   12        HE    1  MOL     H12    12   0.1150000    1.0080
   13        HA    1  MOL     H13    13   0.1150000    1.0080
   14        HA    1  MOL     H14    14   0.1150000    1.0080
   15        HA    1  MOL     H15    15   0.1150000    1.0080
   16        CA    1  MOL     C16    16   0.0000000   12.0115
   17        CA    1  MOL     C17    17  -0.1150000   12.0115
   18        CA    1  MOL     C18    18  -0.1150000   12.0115
   19        CA    1  MOL     C19    19   0.0000000   12.0115
   20       CME    1  MOL     C20    20  -0.1150000   12.0115
   21       CME    1  MOL     C21    21  -0.1150000   12.0115
   22        CA    1  MOL     C22    22  -0.1150000   12.0115
   23        CA    1  MOL     C23    23  -0.1150000   12.0115
   24        HA    1  MOL     H24    24   0.1150000    1.0080
   25        HA    1  MOL     H25    25   0.1150000    1.0080
   26        HE    1  MOL     H26    26   0.1150000    1.0080
   27        HE    1  MOL     H27    27   0.1150000    1.0080
   28        HA    1  MOL     H28    28   0.1150000    1.0080
   29        HA    1  MOL     H29    29   0.1150000    1.0080
   30        CA    1  MOL     C30    30   0.0000000   12.0115
   31        CA    1  MOL     C31    31  -0.1150000   12.0115
   32        CA    1  MOL     C32    32  -0.1150000   12.0115
   33        CA    1  MOL     C33    33   0.0000000   12.0115
   34       CME    1  MOL     C34    34  -0.1150000   12.0115
   35       CME    1  MOL     C35    35  -0.1150000   12.0115
   36        CA    1  MOL     C36    36  -0.1150000   12.0115
   37        CA    1  MOL     C37    37  -0.1150000   12.0115
   38        HA    1  MOL     H38    38   0.1150000    1.0080
   39        HA    1  MOL     H39    39   0.1150000    1.0080
   40        HE    1  MOL     H40    40   0.1150000    1.0080
   41        HE    1  MOL     H41    41   0.1150000    1.0080
   42        HA    1  MOL     H42    42   0.1150000    1.0080
   43        HA    1  MOL     H43    43   0.1150000    1.0080
   44        CA    1  MOL     C44    44   0.0000000   12.0115
   45        CA    1  MOL     C45    45  -0.1150000   12.0115
   46        CA    1  MOL     C46    46  -0.1150000   12.0115
   47        CA    1  MOL     C47    47   0.0000000   12.0115
   48       CME    1  MOL     C48    48  -0.1150000   12.0115
   49       CME    1  MOL     C49    49  -0.1150000   12.0115
   50        CA    1  MOL     C50    50  -0.1150000   12.0115
   51        CA    1  MOL     C51    51  -0.1150000   12.0115
   52        HA    1  MOL     H52    52   0.1150000    1.0080
   53        HA    1  MOL     H53    53   0.1150000    1.0080
   54        HE    1  MOL     H54    54   0.1150000    1.0080
   55        HE    1  MOL     H55    55   0.1150000    1.0080
   56        HA    1  MOL     H56    56   0.1150000    1.0080
   57        HA    1  MOL     H57    57   0.1150000    1.0080
   58        CA    1  MOL     C58    58   0.0000000   12.0115
   59        CA    1  MOL     C59    59  -0.1150000   12.0115
   60        CA    1  MOL     C60    60  -0.1150000   12.0115
   61        CA    1  MOL     C61    61   0.0000000   12.0115
   62       CME    1  MOL     C62    62  -0.1150000   12.0115
   63       CME    1  MOL     C63    63  -0.1150000   12.0115
   64        CA    1  MOL     C64    64  -0.1150000   12.0115
   65        CA    1  MOL     C65    65  -0.1150000   12.0115
   66        HA    1  MOL     H66    66   0.1150000    1.0080
   67        HA    1  MOL     H67    67   0.1150000    1.0080
   68        HE    1  MOL     H68    68   0.1150000    1.0080
   69        HE    1  MOL     H69    69   0.1150000    1.0080
   70        HA    1  MOL     H70    70   0.1150000    1.0080
   71        HA    1  MOL     H71    71   0.1150000    1.0080
   72        CA    1  MOL     C72    72   0.0000000   12.0115
   73        CA    1  MOL     C73    73  -0.1150000   12.0115
   74        CA    1  MOL     C74    74  -0.1150000   12.0115
   75        CA    1  MOL     C75    75   0.0000000   12.0115
   76       CME    1  MOL     C76    76  -0.1150000   12.0115
   77       CME    1  MOL     C77    77  -0.1150000   12.0115
   78        CA    1  MOL     C78    78  -0.1150000   12.0115
   79        CA    1  MOL     C79    79  -0.1150000   12.0115
   80        HA    1  MOL     H80    80   0.1150000    1.0080
   81        HA    1  MOL     H81    81   0.1150000    1.0080
   82        HE    1  MOL     H82    82   0.1150000    1.0080
   83        HE    1  MOL     H83    83   0.1150000    1.0080
   84        HA    1  MOL     H84    84   0.1150000    1.0080
   85        HA    1  MOL     H85    85   0.1150000    1.0080
   86        CA    1  MOL     C86    86   0.0000000   12.0115
   87        CA    1  MOL     C87    87  -0.1150000   12.0115
   88        CA    1  MOL     C88    88  -0.1150000   12.0115
   89        CA    1  MOL     C89    89   0.0000000   12.0115
   90       CME    1  MOL     C90    90  -0.1150000   12.0115
   91       CME    1  MOL     C91    91  -0.1150000   12.0115
   92        CA    1  MOL     C92    92  -0.1150000   12.0115
   93        CA    1  MOL     C93    93  -0.1150000   12.0115
   94        HA    1  MOL     H94    94   0.1150000    1.0080
   95        HA    1  MOL     H95    95   0.1150000    1.0080
   96        HE    1  MOL     H96    96   0.1150000    1.0080
   97        HE    1  MOL     H97    97   0.1150000    1.0080
   98        HA    1  MOL     H98    98   0.1150000    1.0080
   99        HA    1  MOL     H99    99   0.1150000    1.0080
  100        CA    1  MOL    C100   100   0.0000000   12.0115
  101        CA    1  MOL    C101   101  -0.1150000   12.0115
  102        CA    1  MOL    C102   102  -0.1150000   12.0115
  103        CA    1  MOL    C103   103   0.0000000   12.0115
  104       CME    1  MOL    C104   104  -0.1150000   12.0115
  105       CME    1  MOL    C105   105  -0.1150000   12.0115
  106        CA    1  MOL    C106   106  -0.1150000   12.0115
  107        CA    1  MOL    C107   107  -0.1150000   12.0115
  108        HA    1  MOL    H108   108   0.1150000    1.0080
  109        HA    1  MOL    H109   109   0.1150000    1.0080
  110        HE    1  MOL    H110   110   0.1150000    1.0080
  111        HE    1  MOL    H111   111   0.1150000    1.0080
  112        HA    1  MOL    H112   112   0.1150000    1.0080
  113        HA    1  MOL    H113   113   0.1150000    1.0080
  114        CA    1  MOL    C114   114   0.0000000   12.0115
  115        CA    1  MOL    C115   115  -0.1150000   12.0115
  116        CA    1  MOL    C116   116  -0.1150000   12.0115
  117        CA    1  MOL    C117   117   0.0000000   12.0115
  118       CME    1  MOL    C118   118  -0.1150000   12.0115
  119       CME    1  MOL    C119   119  -0.1150000   12.0115
  120        CA    1  MOL    C120   120  -0.1150000   12.0115
  121        CA    1  MOL    C121   121  -0.1150000   12.0115
  122        HA    1  MOL    H122   122   0.1150000    1.0080
  123        HA    1  MOL    H123   123   0.1150000    1.0080
  124        HE    1  MOL    H124   124   0.1150000    1.0080
  125        HE    1  MOL    H125   125   0.1150000    1.0080
  126        HA    1  MOL    H126   126   0.1150000    1.0080
  127        HA    1  MOL    H127   127   0.1150000    1.0080
  128        CA    1  MOL    C128   128   0.0000000   12.0115
  129        CA    1  MOL    C129   129  -0.1150000   12.0115
  130        CA    1  MOL    C130   130  -0.1150000   12.0115
  131        CA    1  MOL    C131   131   0.0000000   12.0115
  132       CME    1  MOL    C132   132  -0.1150000   12.0115
  133       CME    1  MOL    C133   133  -0.1150000   12.0115
  134        CA    1  MOL    C134   134  -0.1150000   12.0115
  135        CA    1  MOL    C135   135  -0.1150000   12.0115
  136        HA    1  MOL    H136   136   0.1150000    1.0080
  137        HA    1  MOL    H137   137   0.1150000    1.0080
  138        HE    1  MOL    H138   138   0.1150000    1.0080
  139        HE    1  MOL    H139   139   0.1150000    1.0080
  140        HA    1  MOL    H140   140   0.1150000    1.0080
  141        HA    1  MOL    H141   141   0.1150000    1.0080
  142        CA    1  MOL    C142   142   0.0000000   12.0115
  143        CA    1  MOL    C143   143  -0.1150000   12.0115
  144        CA    1  MOL    C144   144  -0.1150000   12.0115
  145        CA    1  MOL    C145   145   0.0000000   12.0115
  146       CME    1  MOL    C146   146  -0.1150000   12.0115
  147       CME    1  MOL    C147   147  -0.1150000   12.0115
  148        CA    1  MOL    C148   148  -0.1150000   12.0115
  149        CA    1  MOL    C149   149  -0.1150000   12.0115
  150        HA    1  MOL    H150   150   0.1150000    1.0080
  151        HA    1  MOL    H151   151   0.1150000    1.0080
  152        HE    1  MOL    H152   152   0.1150000    1.0080
  153        HE    1  MOL    H153   153   0.1150000    1.0080
  154        HA    1  MOL    H154   154   0.1150000    1.0080
  155        HA    1  MOL    H155   155   0.1150000    1.0080
  156        CA    1  MOL    C156   156   0.0000000   12.0115
  157        CA    1  MOL    C157   157  -0.1150000   12.0115
  158        CA    1  MOL    C158   158  -0.1150000   12.0115
  159        CA    1  MOL    C159   159   0.0000000   12.0115
  160       CME    1  MOL    C160   160  -0.1150000   12.0115
  161       CME    1  MOL    C161   161  -0.1150000   12.0115
  162        CA    1  MOL    C162   162  -0.1150000   12.0115
  163        CA    1  MOL    C163   163  -0.1150000   12.0115
  164        HA    1  MOL    H164   164   0.1150000    1.0080
  165        HA    1  MOL    H165   165   0.1150000    1.0080
  166        HE    1  MOL    H166   166   0.1150000    1.0080
  167        HE    1  MOL    H167   167   0.1150000    1.0080
  168        HA    1  MOL    H168   168   0.1150000    1.0080
  169        HA    1  MOL    H169   169   0.1150000    1.0080
  170        CA    1  MOL    C170   170   0.0000000   12.0115
  171        CA    1  MOL    C171   171  -0.1150000   12.0115
  172        CA    1  MOL    C172   172  -0.1150000   12.0115
  173        CA    1  MOL    C173   173   0.0000000   12.0115
  174       CME    1  MOL    C174   174  -0.1150000   12.0115
  175       CME    1  MOL    C175   175  -0.1150000   12.0115
  176        CA    1  MOL    C176   176  -0.1150000   12.0115
  177        CA    1  MOL    C177   177  -0.1150000   12.0115
  178        HA    1  MOL    H178   178   0.1150000    1.0080
  179        HA    1  MOL    H179   179   0.1150000    1.0080
  180        HE    1  MOL    H180   180   0.1150000    1.0080
  181        HE    1  MOL    H181   181   0.1150000    1.0080
  182        HA    1  MOL    H182   182   0.1150000    1.0080
  183        HA    1  MOL    H183   183   0.1150000    1.0080
  184        CA    1  MOL    C184   184   0.0000000   12.0115
  185        CA    1  MOL    C185   185  -0.1150000   12.0115
  186        CA    1  MOL    C186   186  -0.1150000   12.0115
  187        CA    1  MOL    C187   187   0.0000000   12.0115
  188       CME    1  MOL    C188   188  -0.1150000   12.0115
  189       CME    1  MOL    C189   189  -0.1150000   12.0115
  190        CA    1  MOL    C190   190  -0.1150000   12.0115
  191        CA    1  MOL    C191   191  -0.1150000   12.0115
  192        HA    1  MOL    H192   192   0.1150000    1.0080
  193        HA    1  MOL    H193   193   0.1150000    1.0080
  194        HE    1  MOL    H194   194   0.1150000    1.0080
  195        HE    1  MOL    H195   195   0.1150000    1.0080
  196        HA    1  MOL    H196   196   0.1150000    1.0080
  197        HA    1  MOL    H197   197   0.1150000    1.0080
  198        CA    1  MOL    C198   198   0.0000000   12.0115
  199        CA    1  MOL    C199   199  -0.1150000   12.0115
  200        CA    1  MOL    C200   200  -0.1150000   12.0115
  201        CA    1  MOL    C201   201   0.0000000   12.0115
  202       CME    1  MOL    C202   202  -0.1150000   12.0115
  203       CME    1  MOL    C203   203  -0.1150000   12.0115
  204        CA    1  MOL    C204   204  -0.1150000   12.0115
  205        CA    1  MOL    C205   205  -0.1150000   12.0115
  206        HA    1  MOL    H206   206   0.1150000    1.0080
  207        HA    1  MOL    H207   207   0.1150000    1.0080
  208        HE    1  MOL    H208   208   0.1150000    1.0080
  209        HE    1  MOL    H209   209   0.1150000    1.0080
  210        HA    1  MOL    H210   210   0.1150000    1.0080
  211        HA    1  MOL    H211   211   0.1150000    1.0080
  212        CA    1  MOL    C212   212   0.0000000   12.0115
  213        CA    1  MOL    C213   213  -0.1150000   12.0115
  214        CA    1  MOL    C214   214  -0.1150000   12.0115
  215        CA    1  MOL    C215   215   0.0000000   12.0115
  216       CME    1  MOL    C216   216  -0.1150000   12.0115
  217       CME    1  MOL    C217   217  -0.1150000   12.0115
  218        CA    1  MOL    C218   218  -0.1150000   12.0115
  219        CA    1  MOL    C219   219  -0.1150000   12.0115
  220        HA    1  MOL    H220   220   0.1150000    1.0080
  221        HA    1  MOL    H221   221   0.1150000    1.0080
  222        HE    1  MOL    H222   222   0.1150000    1.0080
  223        HE    1  MOL    H223   223   0.1150000    1.0080
  224        HA    1  MOL    H224   224   0.1150000    1.0080
  225        HA    1  MOL    H225   225   0.1150000    1.0080
  226        CA    1  MOL    C226   226   0.0000000   12.0115
  227        CA    1  MOL    C227   227  -0.1150000   12.0115
  228        CA    1  MOL    C228   228  -0.1150000   12.0115
  229        CA    1  MOL    C229   229   0.0000000   12.0115
  230       CME    1  MOL    C230   230  -0.1150000   12.0115
  231       CME    1  MOL    C231   231  -0.1150000   12.0115
  232        CA    1  MOL    C232   232  -0.1150000   12.0115
  233        CA    1  MOL    C233   233  -0.1150000   12.0115
  234        HA    1  MOL    H234   234   0.1150000    1.0080
  235        HA    1  MOL    H235   235   0.1150000    1.0080
  236        HE    1  MOL    H236   236   0.1150000    1.0080
  237        HE    1  MOL    H237   237   0.1150000    1.0080
  238        HA    1  MOL    H238   238   0.1150000    1.0080
  239        HA    1  MOL    H239   239   0.1150000    1.0080
  240        CA    1  MOL    C240   240   0.0000000   12.0115
  241        CA    1  MOL    C241   241  -0.1150000   12.0115
  242        CA    1  MOL    C242   242  -0.1150000   12.0115
  243        CA    1  MOL    C243   243   0.0000000   12.0115
  244       CME    1  MOL    C244   244  -0.1150000   12.0115
  245       CME    1  MOL    C245   245  -0.1150000   12.0115
  246        CA    1  MOL    C246   246  -0.1150000   12.0115
  247        CA    1  MOL    C247   247  -0.1150000   12.0115
  248        HA    1  MOL    H248   248   0.1150000    1.0080
  249        HA    1  MOL    H249   249   0.1150000    1.0080
  250        HE    1  MOL    H250   250   0.1150000    1.0080
  251        HE    1  MOL    H251   251   0.1150000    1.0080
  252        HA    1  MOL    H252   252   0.1150000    1.0080
  253        HA    1  MOL    H253   253   0.1150000    1.0080
  254        CA    1  MOL    C254   254   0.0000000   12.0115
  255        CA    1  MOL    C255   255  -0.1150000   12.0115
  256        CA    1  MOL    C256   256  -0.1150000   12.0115
  257        CA    1  MOL    C257   257   0.0000000   12.0115
  258       CME    1  MOL    C258   258  -0.1150000   12.0115
  259       CME    1  MOL    C259   259  -0.1150000   12.0115
  260        CA    1  MOL    C260   260  -0.1150000   12.0115
  261        CA    1  MOL    C261   261  -0.1150000   12.0115
  262        HA    1  MOL    H262   262   0.1150000    1.0080
  263        HA    1  MOL    H263   263   0.1150000    1.0080
  264        HE    1  MOL    H264   264   0.1150000    1.0080
  265        HE    1  MOL    H265   265   0.1150000    1.0080
  266        HA    1  MOL    H266   266   0.1150000    1.0080
  267        HA    1  MOL    H267   267   0.1150000    1.0080
  268        CA    1  MOL    C268   268   0.0000000   12.0115
  269        CA    1  MOL    C269   269  -0.1150000   12.0115
  270        CA    1  MOL    C270   270  -0.1150000   12.0115
  271        CA    1  MOL    C271   271   0.0000000   12.0115
  272       CME    1  MOL    C272   272  -0.1150000   12.0115
  273       CME    1  MOL    C273   273  -0.2300000   12.0115
  274        CA    1  MOL    C274   274  -0.1150000   12.0115
  275        CA    1  MOL    C275   275  -0.1150000   12.0115
  276        HA    1  MOL    H276   276   0.1150000    1.0080
  277        HA    1  MOL    H277   277   0.1150000    1.0080
  278        HE    1  MOL    H278   278   0.1150000    1.0080
  279        HE    1  MOL    H279   279   0.1150000    1.0080
  280        HA    1  MOL    H280   280   0.1150000    1.0080
  281        HA    1  MOL    H281   281   0.1150000    1.0080
  282        HE    1  MOL    H282   282   0.1150000    1.0080

[ bonds ]
      1      2   1      0.1400 392459.2000
      1      8   1      0.1400 392459.2000
      1     15   1      0.1080 307105.6000
      2      3   1      0.1400 392459.2000
      2      9   1      0.1080 307105.6000
      3      4   1      0.1400 392459.2000
      3     10   1      0.1080 307105.6000
      4      5   1      0.1460 267776.0000
      4      7   1      0.1400 392459.2000
      5      6   1      0.1340 459403.2000
      5     11   1      0.1080 284512.0000
      6     12   1      0.1080 284512.0000
      6     16   1      0.1460 267776.0000
      7      8   1      0.1400 392459.2000
      7     13   1      0.1080 307105.6000
      8     14   1      0.1080 307105.6000
     16     17   1      0.1400 392459.2000
     16     23   1      0.1400 392459.2000
     17     18   1      0.1400 392459.2000
     17     24   1      0.1080 307105.6000
     18     19   1      0.1400 392459.2000
     18     25   1      0.1080 307105.6000
     19     20   1      0.1460 267776.0000
     19     22   1      0.1400 392459.2000
     20     21   1      0.1340 459403.2000
     20     26   1      0.1080 284512.0000
     21     27   1      0.1080 284512.0000
     21     30   1      0.1460 267776.0000
     22     23   1      0.1400 392459.2000
     22     28   1      0.1080 307105.6000
     23     29   1      0.1080 307105.6000
     30     31   1      0.1400 392459.2000
     30     37   1      0.1400 392459.2000
     31     32   1      0.1400 392459.2000
     31     38   1      0.1080 307105.6000
     32     33   1      0.1400 392459.2000
     32     39   1      0.1080 307105.6000
     33     34   1      0.1460 267776.0000
     33     36   1      0.1400 392459.2000
     34     35   1      0.1340 459403.2000
     34     40   1      0.1080 284512.0000
     35     41   1      0.1080 284512.0000
     35     44   1      0.1460 267776.0000
     36     37   1      0.1400 392459.2000
     36     42   1      0.1080 307105.6000
     37     43   1      0.1080 307105.6000
     44     45   1      0.1400 392459.2000
     44     51   1      0.1400 392459.2000
     45     46   1      0.1400 392459.2000
     45     52   1      0.1080 307105.6000
     46     47   1      0.1400 392459.2000
     46     53   1      0.1080 307105.6000
     47     48   1      0.1460 267776.0000
     47     50   1      0.1400 392459.2000
     48     49   1      0.1340 459403.2000
     48     54   1      0.1080 284512.0000
     49     55   1      0.1080 284512.0000
     49     58   1      0.1460 267776.0000
     50     51   1      0.1400 392459.2000
     50     56   1      0.1080 307105.6000
     51     57   1      0.1080 307105.6000
     58     59   1      0.1400 392459.2000
     58     65   1      0.1400 392459.2000
     59     60   1      0.1400 392459.2000
     59     66   1      0.1080 307105.6000
     60     61   1      0.1400 392459.2000
     60     67   1      0.1080 307105.6000
     61     62   1      0.1460 267776.0000
     61     64   1      0.1400 392459.2000
     62     63   1      0.1340 459403.2000
     62     68   1      0.1080 284512.0000
     63     69   1      0.1080 284512.0000
     63     72   1      0.1460 267776.0000
     64     65   1      0.1400 392459.2000
     64     70   1      0.1080 307105.6000
     65     71   1      0.1080 307105.6000
     72     73   1      0.1400 392459.2000
     72     79   1      0.1400 392459.2000
     73     74   1      0.1400 392459.2000
     73     80   1      0.1080 307105.6000
     74     75   1      0.1400 392459.2000
     74     81   1      0.1080 307105.6000
     75     76   1      0.1460 267776.0000
     75     78   1      0.1400 392459.2000
     76     77   1      0.1340 459403.2000
     76     82   1      0.1080 284512.0000
     77     83   1      0.1080 284512.0000
     77     86   1      0.1460 267776.0000
     78     79   1      0.1400 392459.2000
     78     84   1      0.1080 307105.6000
     79     85   1      0.1080 307105.6000
     86     87   1      0.1400 392459.2000
     86     93   1      0.1400 392459.2000
     87     88   1      0.1400 392459.2000
     87     94   1      0.1080 307105.6000
     88     89   1      0.1400 392459.2000
     88     95   1      0.1080 307105.6000
     89     90   1      0.1460 267776.0000
     89     92   1      0.1400 392459.2000
     90     91   1      0.1340 459403.2000
     90     96   1      0.1080 284512.0000
     91     97   1      0.1080 284512.0000
     91    100   1      0.1460 267776.0000
     92     93   1      0.1400 392459.2000
     92     98   1      0.1080 307105.6000
     93     99   1      0.1080 307105.6000
    100    101   1      0.1400 392459.2000
    100    107   1      0.1400 392459.2000
    101    102   1      0.1400 392459.2000
    101    108   1      0.1080 307105.6000
    102    103   1      0.1400 392459.2000
    102    109   1      0.1080 307105.6000
    103    104   1      0.1460 267776.0000
    103    106   1      0.1400 392459.2000
    104    105   1      0.1340 459403.2000
    104    110   1      0.1080 284512.0000
    105    111   1      0.1080 284512.0000
    105    114   1      0.1460 267776.0000
    106    107   1      0.1400 392459.2000
    106    112   1      0.1080 307105.6000
    107    113   1      0.1080 307105.6000
    114    115   1      0.1400 392459.2000
    114    121   1      0.1400 392459.2000
    115    116   1      0.1400 392459.2000
    115    122   1      0.1080 307105.6000
    116    117   1      0.1400 392459.2000
    116    123   1      0.1080 307105.6000
    117    118   1      0.1460 267776.0000
    117    120   1      0.1400 392459.2000
    118    119   1      0.1340 459403.2000
    118    124   1      0.1080 284512.0000
    119    125   1      0.1080 284512.0000
    119    128   1      0.1460 267776.0000
    120    121   1      0.1400 392459.2000
    120    126   1      0.1080 307105.6000
    121    127   1      0.1080 307105.6000
    128    129   1      0.1400 392459.2000
    128    135   1      0.1400 392459.2000
    129    130   1      0.1400 392459.2000
    129    136   1      0.1080 307105.6000
    130    131   1      0.1400 392459.2000
    130    137   1      0.1080 307105.6000
    131    132   1      0.1460 267776.0000
    131    134   1      0.1400 392459.2000
    132    133   1      0.1340 459403.2000
    132    138   1      0.1080 284512.0000
    133    139   1      0.1080 284512.0000
    133    142   1      0.1460 267776.0000
    134    135   1      0.1400 392459.2000
    134    140   1      0.1080 307105.6000
    135    141   1      0.1080 307105.6000
    142    143   1      0.1400 392459.2000
    142    149   1      0.1400 392459.2000
    143    144   1      0.1400 392459.2000
    143    150   1      0.1080 307105.6000
    144    145   1      0.1400 392459.2000
    144    151   1      0.1080 307105.6000
    145    146   1      0.1460 267776.0000
    145    148   1      0.1400 392459.2000
    146    147   1      0.1340 459403.2000
    146    152   1      0.1080 284512.0000
    147    153   1      0.1080 284512.0000
    147    156   1      0.1460 267776.0000
    148    149   1      0.1400 392459.2000
    148    154   1      0.1080 307105.6000
    149    155   1      0.1080 307105.6000
    156    157   1      0.1400 392459.2000
    156    163   1      0.1400 392459.2000
    157    158   1      0.1400 392459.2000
    157    164   1      0.1080 307105.6000
    158    159   1      0.1400 392459.2000
    158    165   1      0.1080 307105.6000
    159    160   1      0.1460 267776.0000
    159    162   1      0.1400 392459.2000
    160    161   1      0.1340 459403.2000
    160    166   1      0.1080 284512.0000
    161    167   1      0.1080 284512.0000
    161    170   1      0.1460 267776.0000
    162    163   1      0.1400 392459.2000
    162    168   1      0.1080 307105.6000
    163    169   1      0.1080 307105.6000
    170    171   1      0.1400 392459.2000
    170    177   1      0.1400 392459.2000
    171    172   1      0.1400 392459.2000
    171    178   1      0.1080 307105.6000
    172    173   1      0.1400 392459.2000
    172    179   1      0.1080 307105.6000
    173    174   1      0.1460 267776.0000
    173    176   1      0.1400 392459.2000
    174    175   1      0.1340 459403.2000
    174    180   1      0.1080 284512.0000
    175    181   1      0.1080 284512.0000
    175    184   1      0.1460 267776.0000
    176    177   1      0.1400 392459.2000
    176    182   1      0.1080 307105.6000
    177    183   1      0.1080 307105.6000
    184    185   1      0.1400 392459.2000
    184    191   1      0.1400 392459.2000
    185    186   1      0.1400 392459.2000
    185    192   1      0.1080 307105.6000
    186    187   1      0.1400 392459.2000
    186    193   1      0.1080 307105.6000
    187    188   1      0.1460 267776.0000
    187    190   1      0.1400 392459.2000
    188    189   1      0.1340 459403.2000
    188    194   1      0.1080 284512.0000
    189    195   1      0.1080 284512.0000
    189    198   1      0.1460 267776.0000
    190    191   1      0.1400 392459.2000
    190    196   1      0.1080 307105.6000
    191    197   1      0.1080 307105.6000
    198    199   1      0.1400 392459.2000
    198    205   1      0.1400 392459.2000
    199    200   1      0.1400 392459.2000
    199    206   1      0.1080 307105.6000
    200    201   1      0.1400 392459.2000
    200    207   1      0.1080 307105.6000
    201    202   1      0.1460 267776.0000
    201    204   1      0.1400 392459.2000
    202    203   1      0.1340 459403.2000
    202    208   1      0.1080 284512.0000
    203    209   1      0.1080 284512.0000
    203    212   1      0.1460 267776.0000
    204    205   1      0.1400 392459.2000
    204    210   1      0.1080 307105.6000
    205    211   1      0.1080 307105.6000
    212    213   1      0.1400 392459.2000
    212    219   1      0.1400 392459.2000
    213    214   1      0.1400 392459.2000
    213    220   1      0.1080 307105.6000
    214    215   1      0.1400 392459.2000
    214    221   1      0.1080 307105.6000
    215    216   1      0.1460 267776.0000
    215    218   1      0.1400 392459.2000
    216    217   1      0.1340 459403.2000
    216    222   1      0.1080 284512.0000
    217    223   1      0.1080 284512.0000
    217    226   1      0.1460 267776.0000
    218    219   1      0.1400 392459.2000
    218    224   1      0.1080 307105.6000
    219    225   1      0.1080 307105.6000
    226    227   1      0.1400 392459.2000
    226    233   1      0.1400 392459.2000
    227    228   1      0.1400 392459.2000
    227    234   1      0.1080 307105.6000
    228    229   1      0.1400 392459.2000
    228    235   1      0.1080 307105.6000
    229    230   1      0.1460 267776.0000
    229    232   1      0.1400 392459.2000
    230    231   1      0.1340 459403.2000
    230    236   1      0.1080 284512.0000
    231    237   1      0.1080 284512.0000
    231    240   1      0.1460 267776.0000
    232    233   1      0.1400 392459.2000
    232    238   1      0.1080 307105.6000
    233    239   1      0.1080 307105.6000
    240    241   1      0.1400 392459.2000
    240    247   1      0.1400 392459.2000
    241    242   1      0.1400 392459.2000
    241    248   1      0.1080 307105.6000
    242    243   1      0.1400 392459.2000
    242    249   1      0.1080 307105.6000
    243    244   1      0.1460 267776.0000
    243    246   1      0.1400 392459.2000
    244    245   1      0.1340 459403.2000
    244    250   1      0.1080 284512.0000
    245    251   1      0.1080 284512.0000
    245    254   1      0.1460 267776.0000
    246    247   1      0.1400 392459.2000
    246    252   1      0.1080 307105.6000
    247    253   1      0.1080 307105.6000
    254    255   1      0.1400 392459.2000
    254    261   1      0.1400 392459.2000
    255    256   1      0.1400 392459.2000
    255    262   1      0.1080 307105.6000
    256    257   1      0.1400 392459.2000
    256    263   1      0.1080 307105.6000
    257    258   1      0.1460 267776.0000
    257    260   1      0.1400 392459.2000
    258    259   1      0.1340 459403.2000
    258    264   1      0.1080 284512.0000
    259    265   1      0.1080 284512.0000
    259    268   1      0.1460 267776.0000
    260    261   1      0.1400 392459.2000
    260    266   1      0.1080 307105.6000
    261    267   1      0.1080 307105.6000
    268    269   1      0.1400 392459.2000
    268    275   1      0.1400 392459.2000
    269    270   1      0.1400 392459.2000
    269    276   1      0.1080 307105.6000
    270    271   1      0.1400 392459.2000
    270    277   1      0.1080 307105.6000
    271    272   1      0.1460 267776.0000
    271    274   1      0.1400 392459.2000
    272    273   1      0.1340 459403.2000
    272    278   1      0.1080 284512.0000
    273    279   1      0.1080 284512.0000
    273    282   1      0.1080 284512.0000
    274    275   1      0.1400 392459.2000
    274    280   1      0.1080 307105.6000
    275    281   1      0.1080 307105.6000

[ pairs ]
; ai   aj   funct   fudge_QQ  charge_i   charge_j   c6    c12
      8      3   2   0.50000    -0.1150000   -0.1150000   1.172438e-03  2.346713e-06
      8      9   2   0.50000    -0.1150000    0.1150000   2.431434e-04  1.541678e-07
     15      3   2   0.50000     0.1150000   -0.1150000   2.431434e-04  1.541678e-07
     15      9   2   0.50000     0.1150000    0.1150000   5.042375e-05  1.012808e-08
      2      7   2   0.50000    -0.1150000   -0.1150000   1.172438e-03  2.346713e-06
      2     14   2   0.50000    -0.1150000    0.1150000   2.431434e-04  1.541678e-07
     15      7   2   0.50000     0.1150000   -0.1150000   2.431434e-04  1.541678e-07
     15     14   2   0.50000     0.1150000    0.1150000   5.042375e-05  1.012808e-08
      1      4   2   0.50000    -0.1150000    0.0000000   1.172438e-03  2.346713e-06
      1     10   2   0.50000    -0.1150000    0.1150000   2.431434e-04  1.541678e-07
      9      4   2   0.50000     0.1150000    0.0000000   2.431434e-04  1.541678e-07
      9     10   2   0.50000     0.1150000    0.1150000   5.042375e-05  1.012808e-08
      2      5   2   0.50000    -0.1150000   -0.1150000   1.221652e-03  2.445219e-06
     10      5   2   0.50000     0.1150000   -0.1150000   2.533496e-04  1.606392e-07
     10      7   2   0.50000     0.1150000   -0.1150000   2.431434e-04  1.541678e-07
      3      6   2   0.50000    -0.1150000   -0.1150000   1.221652e-03  2.445219e-06
      3     11   2   0.50000    -0.1150000    0.1150000   2.431434e-04  1.541678e-07
      7      6   2   0.50000    -0.1150000   -0.1150000   1.221652e-03  2.445219e-06
      7     11   2   0.50000    -0.1150000    0.1150000   2.431434e-04  1.541678e-07
      3     13   2   0.50000    -0.1150000    0.1150000   2.431434e-04  1.541678e-07
      5      8   2   0.50000    -0.1150000   -0.1150000   1.221652e-03  2.445219e-06
      5     13   2   0.50000    -0.1150000    0.1150000   2.533496e-04  1.606392e-07
      4     12   2   0.50000     0.0000000    0.1150000   2.431434e-04  1.541678e-07
      4     16   2   0.50000     0.0000000    0.0000000   1.172438e-03  2.346713e-06
     11     12   2   0.50000     0.1150000    0.1150000   5.042375e-05  1.012808e-08
     11     16   2   0.50000     0.1150000    0.0000000   2.431434e-04  1.541678e-07
      5     17   2   0.50000    -0.1150000   -0.1150000   1.221652e-03  2.445219e-06
      5     23   2   0.50000    -0.1150000   -0.1150000   1.221652e-03  2.445219e-06
     12     17   2   0.50000     0.1150000   -0.1150000   2.431434e-04  1.541678e-07
     12     23   2   0.50000     0.1150000   -0.1150000   2.431434e-04  1.541678e-07
      4     14   2   0.50000     0.0000000    0.1150000   2.431434e-04  1.541678e-07
     13      1   2   0.50000     0.1150000   -0.1150000   2.431434e-04  1.541678e-07
     13     14   2   0.50000     0.1150000    0.1150000   5.042375e-05  1.012808e-08
      6     18   2   0.50000    -0.1150000   -0.1150000   1.221652e-03  2.445219e-06
      6     24   2   0.50000    -0.1150000    0.1150000   2.533496e-04  1.606392e-07
     23     18   2   0.50000    -0.1150000   -0.1150000   1.172438e-03  2.346713e-06
     23     24   2   0.50000    -0.1150000    0.1150000   2.431434e-04  1.541678e-07
      6     22   2   0.50000    -0.1150000   -0.1150000   1.221652e-03  2.445219e-06
      6     29   2   0.50000    -0.1150000    0.1150000   2.533496e-04  1.606392e-07
     17     22   2   0.50000    -0.1150000   -0.1150000   1.172438e-03  2.346713e-06
     17     29   2   0.50000    -0.1150000    0.1150000   2.431434e-04  1.541678e-07
     16     19   2   0.50000     0.0000000    0.0000000   1.172438e-03  2.346713e-06
     16     25   2   0.50000     0.0000000    0.1150000   2.431434e-04  1.541678e-07
     24     19   2   0.50000     0.1150000    0.0000000   2.431434e-04  1.541678e-07
     24     25   2   0.50000     0.1150000    0.1150000   5.042375e-05  1.012808e-08
     17     20   2   0.50000    -0.1150000   -0.1150000   1.221652e-03  2.445219e-06
     25     20   2   0.50000     0.1150000   -0.1150000   2.533496e-04  1.606392e-07
     25     22   2   0.50000     0.1150000   -0.1150000   2.431434e-04  1.541678e-07
     18     21   2   0.50000    -0.1150000   -0.1150000   1.221652e-03  2.445219e-06
     18     26   2   0.50000    -0.1150000    0.1150000   2.431434e-04  1.541678e-07
     22     21   2   0.50000    -0.1150000   -0.1150000   1.221652e-03  2.445219e-06
     22     26   2   0.50000    -0.1150000    0.1150000   2.431434e-04  1.541678e-07
     18     28   2   0.50000    -0.1150000    0.1150000   2.431434e-04  1.541678e-07
     20     23   2   0.50000    -0.1150000   -0.1150000   1.221652e-03  2.445219e-06
     20     28   2   0.50000    -0.1150000    0.1150000   2.533496e-04  1.606392e-07
     19     27   2   0.50000     0.0000000    0.1150000   2.431434e-04  1.541678e-07
     19     30   2   0.50000     0.0000000    0.0000000   1.172438e-03  2.346713e-06
     26     27   2   0.50000     0.1150000    0.1150000   5.042375e-05  1.012808e-08
     26     30   2   0.50000     0.1150000    0.0000000   2.431434e-04  1.541678e-07
     20     31   2   0.50000    -0.1150000   -0.1150000   1.221652e-03  2.445219e-06
     20     37   2   0.50000    -0.1150000   -0.1150000   1.221652e-03  2.445219e-06
     27     31   2   0.50000     0.1150000   -0.1150000   2.431434e-04  1.541678e-07
     27     37   2   0.50000     0.1150000   -0.1150000   2.431434e-04  1.541678e-07
     19     29   2   0.50000     0.0000000    0.1150000   2.431434e-04  1.541678e-07
     28     16   2   0.50000     0.1150000    0.0000000   2.431434e-04  1.541678e-07
     28     29   2   0.50000     0.1150000    0.1150000   5.042375e-05  1.012808e-08
     21     32   2   0.50000    -0.1150000   -0.1150000   1.221652e-03  2.445219e-06
     21     38   2   0.50000    -0.1150000    0.1150000   2.533496e-04  1.606392e-07
     37     32   2   0.50000    -0.1150000   -0.1150000   1.172438e-03  2.346713e-06
     37     38   2   0.50000    -0.1150000    0.1150000   2.431434e-04  1.541678e-07
     21     36   2   0.50000    -0.1150000   -0.1150000   1.221652e-03  2.445219e-06
     21     43   2   0.50000    -0.1150000    0.1150000   2.533496e-04  1.606392e-07
     31     36   2   0.50000    -0.1150000   -0.1150000   1.172438e-03  2.346713e-06
     31     43   2   0.50000    -0.1150000    0.1150000   2.431434e-04  1.541678e-07
     30     33   2   0.50000     0.0000000    0.0000000   1.172438e-03  2.346713e-06
     30     39   2   0.50000     0.0000000    0.1150000   2.431434e-04  1.541678e-07
     38     33   2   0.50000     0.1150000    0.0000000   2.431434e-04  1.541678e-07
     38     39   2   0.50000     0.1150000    0.1150000   5.042375e-05  1.012808e-08
     31     34   2   0.50000    -0.1150000   -0.1150000   1.221652e-03  2.445219e-06
     39     34   2   0.50000     0.1150000   -0.1150000   2.533496e-04  1.606392e-07
     39     36   2   0.50000     0.1150000   -0.1150000   2.431434e-04  1.541678e-07
     32     35   2   0.50000    -0.1150000   -0.1150000   1.221652e-03  2.445219e-06
     32     40   2   0.50000    -0.1150000    0.1150000   2.431434e-04  1.541678e-07
     36     35   2   0.50000    -0.1150000   -0.1150000   1.221652e-03  2.445219e-06
     36     40   2   0.50000    -0.1150000    0.1150000   2.431434e-04  1.541678e-07
     32     42   2   0.50000    -0.1150000    0.1150000   2.431434e-04  1.541678e-07
     34     37   2   0.50000    -0.1150000   -0.1150000   1.221652e-03  2.445219e-06
     34     42   2   0.50000    -0.1150000    0.1150000   2.533496e-04  1.606392e-07
     33     41   2   0.50000     0.0000000    0.1150000   2.431434e-04  1.541678e-07
     33     44   2   0.50000     0.0000000    0.0000000   1.172438e-03  2.346713e-06
     40     41   2   0.50000     0.1150000    0.1150000   5.042375e-05  1.012808e-08
     40     44   2   0.50000     0.1150000    0.0000000   2.431434e-04  1.541678e-07
     34     45   2   0.50000    -0.1150000   -0.1150000   1.221652e-03  2.445219e-06
     34     51   2   0.50000    -0.1150000   -0.1150000   1.221652e-03  2.445219e-06
     41     45   2   0.50000     0.1150000   -0.1150000   2.431434e-04  1.541678e-07
     41     51   2   0.50000     0.1150000   -0.1150000   2.431434e-04  1.541678e-07
     33     43   2   0.50000     0.0000000    0.1150000   2.431434e-04  1.541678e-07
     42     30   2   0.50000     0.1150000    0.0000000   2.431434e-04  1.541678e-07
     42     43   2   0.50000     0.1150000    0.1150000   5.042375e-05  1.012808e-08
     35     46   2   0.50000    -0.1150000   -0.1150000   1.221652e-03  2.445219e-06
     35     52   2   0.50000    -0.1150000    0.1150000   2.533496e-04  1.606392e-07
     51     46   2   0.50000    -0.1150000   -0.1150000   1.172438e-03  2.346713e-06
     51     52   2   0.50000    -0.1150000    0.1150000   2.431434e-04  1.541678e-07
     35     50   2   0.50000    -0.1150000   -0.1150000   1.221652e-03  2.445219e-06
     35     57   2   0.50000    -0.1150000    0.1150000   2.533496e-04  1.606392e-07
     45     50   2   0.50000    -0.1150000   -0.1150000   1.172438e-03  2.346713e-06
     45     57   2   0.50000    -0.1150000    0.1150000   2.431434e-04  1.541678e-07
     44     47   2   0.50000     0.0000000    0.0000000   1.172438e-03  2.346713e-06
     44     53   2   0.50000     0.0000000    0.1150000   2.431434e-04  1.541678e-07
     52     47   2   0.50000     0.1150000    0.0000000   2.431434e-04  1.541678e-07
     52     53   2   0.50000     0.1150000    0.1150000   5.042375e-05  1.012808e-08
     45     48   2   0.50000    -0.1150000   -0.1150000   1.221652e-03  2.445219e-06
     53     48   2   0.50000     0.1150000   -0.1150000   2.533496e-04  1.606392e-07
     53     50   2   0.50000     0.1150000   -0.1150000   2.431434e-04  1.541678e-07
     46     49   2   0.50000    -0.1150000   -0.1150000   1.221652e-03  2.445219e-06
     46     54   2   0.50000    -0.1150000    0.1150000   2.431434e-04  1.541678e-07
     50     49   2   0.50000    -0.1150000   -0.1150000   1.221652e-03  2.445219e-06
     50     54   2   0.50000    -0.1150000    0.1150000   2.431434e-04  1.541678e-07
     46     56   2   0.50000    -0.1150000    0.1150000   2.431434e-04  1.541678e-07
     48     51   2   0.50000    -0.1150000   -0.1150000   1.221652e-03  2.445219e-06
     48     56   2   0.50000    -0.1150000    0.1150000   2.533496e-04  1.606392e-07
     47     55   2   0.50000     0.0000000    0.1150000   2.431434e-04  1.541678e-07
     47     58   2   0.50000     0.0000000    0.0000000   1.172438e-03  2.346713e-06
     54     55   2   0.50000     0.1150000    0.1150000   5.042375e-05  1.012808e-08
     54     58   2   0.50000     0.1150000    0.0000000   2.431434e-04  1.541678e-07
     48     59   2   0.50000    -0.1150000   -0.1150000   1.221652e-03  2.445219e-06
     48     65   2   0.50000    -0.1150000   -0.1150000   1.221652e-03  2.445219e-06
     55     59   2   0.50000     0.1150000   -0.1150000   2.431434e-04  1.541678e-07
     55     65   2   0.50000     0.1150000   -0.1150000   2.431434e-04  1.541678e-07
     47     57   2   0.50000     0.0000000    0.1150000   2.431434e-04  1.541678e-07
     56     44   2   0.50000     0.1150000    0.0000000   2.431434e-04  1.541678e-07
     56     57   2   0.50000     0.1150000    0.1150000   5.042375e-05  1.012808e-08
     49     60   2   0.50000    -0.1150000   -0.1150000   1.221652e-03  2.445219e-06
     49     66   2   0.50000    -0.1150000    0.1150000   2.533496e-04  1.606392e-07
     65     60   2   0.50000    -0.1150000   -0.1150000   1.172438e-03  2.346713e-06
     65     66   2   0.50000    -0.1150000    0.1150000   2.431434e-04  1.541678e-07
     49     64   2   0.50000    -0.1150000   -0.1150000   1.221652e-03  2.445219e-06
     49     71   2   0.50000    -0.1150000    0.1150000   2.533496e-04  1.606392e-07
     59     64   2   0.50000    -0.1150000   -0.1150000   1.172438e-03  2.346713e-06
     59     71   2   0.50000    -0.1150000    0.1150000   2.431434e-04  1.541678e-07
     58     61   2   0.50000     0.0000000    0.0000000   1.172438e-03  2.346713e-06
     58     67   2   0.50000     0.0000000    0.1150000   2.431434e-04  1.541678e-07
     66     61   2   0.50000     0.1150000    0.0000000   2.431434e-04  1.541678e-07
     66     67   2   0.50000     0.1150000    0.1150000   5.042375e-05  1.012808e-08
     59     62   2   0.50000    -0.1150000   -0.1150000   1.221652e-03  2.445219e-06
     67     62   2   0.50000     0.1150000   -0.1150000   2.533496e-04  1.606392e-07
     67     64   2   0.50000     0.1150000   -0.1150000   2.431434e-04  1.541678e-07
     60     63   2   0.50000    -0.1150000   -0.1150000   1.221652e-03  2.445219e-06
     60     68   2   0.50000    -0.1150000    0.1150000   2.431434e-04  1.541678e-07
     64     63   2   0.50000    -0.1150000   -0.1150000   1.221652e-03  2.445219e-06
     64     68   2   0.50000    -0.1150000    0.1150000   2.431434e-04  1.541678e-07
     60     70   2   0.50000    -0.1150000    0.1150000   2.431434e-04  1.541678e-07
     62     65   2   0.50000    -0.1150000   -0.1150000   1.221652e-03  2.445219e-06
     62     70   2   0.50000    -0.1150000    0.1150000   2.533496e-04  1.606392e-07
     61     69   2   0.50000     0.0000000    0.1150000   2.431434e-04  1.541678e-07
     61     72   2   0.50000     0.0000000    0.0000000   1.172438e-03  2.346713e-06
     68     69   2   0.50000     0.1150000    0.1150000   5.042375e-05  1.012808e-08
     68     72   2   0.50000     0.1150000    0.0000000   2.431434e-04  1.541678e-07
     62     73   2   0.50000    -0.1150000   -0.1150000   1.221652e-03  2.445219e-06
     62     79   2   0.50000    -0.1150000   -0.1150000   1.221652e-03  2.445219e-06
     69     73   2   0.50000     0.1150000   -0.1150000   2.431434e-04  1.541678e-07
     69     79   2   0.50000     0.1150000   -0.1150000   2.431434e-04  1.541678e-07
     61     71   2   0.50000     0.0000000    0.1150000   2.431434e-04  1.541678e-07
     70     58   2   0.50000     0.1150000    0.0000000   2.431434e-04  1.541678e-07
     70     71   2   0.50000     0.1150000    0.1150000   5.042375e-05  1.012808e-08
     63     74   2   0.50000    -0.1150000   -0.1150000   1.221652e-03  2.445219e-06
     63     80   2   0.50000    -0.1150000    0.1150000   2.533496e-04  1.606392e-07
     79     74   2   0.50000    -0.1150000   -0.1150000   1.172438e-03  2.346713e-06
     79     80   2   0.50000    -0.1150000    0.1150000   2.431434e-04  1.541678e-07
     63     78   2   0.50000    -0.1150000   -0.1150000   1.221652e-03  2.445219e-06
     63     85   2   0.50000    -0.1150000    0.1150000   2.533496e-04  1.606392e-07
     73     78   2   0.50000    -0.1150000   -0.1150000   1.172438e-03  2.346713e-06
     73     85   2   0.50000    -0.1150000    0.1150000   2.431434e-04  1.541678e-07
     72     75   2   0.50000     0.0000000    0.0000000   1.172438e-03  2.346713e-06
     72     81   2   0.50000     0.0000000    0.1150000   2.431434e-04  1.541678e-07
     80     75   2   0.50000     0.1150000    0.0000000   2.431434e-04  1.541678e-07
     80     81   2   0.50000     0.1150000    0.1150000   5.042375e-05  1.012808e-08
     73     76   2   0.50000    -0.1150000   -0.1150000   1.221652e-03  2.445219e-06
     81     76   2   0.50000     0.1150000   -0.1150000   2.533496e-04  1.606392e-07
     81     78   2   0.50000     0.1150000   -0.1150000   2.431434e-04  1.541678e-07
     74     77   2   0.50000    -0.1150000   -0.1150000   1.221652e-03  2.445219e-06
     74     82   2   0.50000    -0.1150000    0.1150000   2.431434e-04  1.541678e-07
     78     77   2   0.50000    -0.1150000   -0.1150000   1.221652e-03  2.445219e-06
     78     82   2   0.50000    -0.1150000    0.1150000   2.431434e-04  1.541678e-07
     74     84   2   0.50000    -0.1150000    0.1150000   2.431434e-04  1.541678e-07
     76     79   2   0.50000    -0.1150000   -0.1150000   1.221652e-03  2.445219e-06
     76     84   2   0.50000    -0.1150000    0.1150000   2.533496e-04  1.606392e-07
     75     83   2   0.50000     0.0000000    0.1150000   2.431434e-04  1.541678e-07
     75     86   2   0.50000     0.0000000    0.0000000   1.172438e-03  2.346713e-06
     82     83   2   0.50000     0.1150000    0.1150000   5.042375e-05  1.012808e-08
     82     86   2   0.50000     0.1150000    0.0000000   2.431434e-04  1.541678e-07
     76     87   2   0.50000    -0.1150000   -0.1150000   1.221652e-03  2.445219e-06
     76     93   2   0.50000    -0.1150000   -0.1150000   1.221652e-03  2.445219e-06
     83     87   2   0.50000     0.1150000   -0.1150000   2.431434e-04  1.541678e-07
     83     93   2   0.50000     0.1150000   -0.1150000   2.431434e-04  1.541678e-07
     75     85   2   0.50000     0.0000000    0.1150000   2.431434e-04  1.541678e-07
     84     72   2   0.50000     0.1150000    0.0000000   2.431434e-04  1.541678e-07
     84     85   2   0.50000     0.1150000    0.1150000   5.042375e-05  1.012808e-08
     77     88   2   0.50000    -0.1150000   -0.1150000   1.221652e-03  2.445219e-06
     77     94   2   0.50000    -0.1150000    0.1150000   2.533496e-04  1.606392e-07
     93     88   2   0.50000    -0.1150000   -0.1150000   1.172438e-03  2.346713e-06
     93     94   2   0.50000    -0.1150000    0.1150000   2.431434e-04  1.541678e-07
     77     92   2   0.50000    -0.1150000   -0.1150000   1.221652e-03  2.445219e-06
     77     99   2   0.50000    -0.1150000    0.1150000   2.533496e-04  1.606392e-07
     87     92   2   0.50000    -0.1150000   -0.1150000   1.172438e-03  2.346713e-06
     87     99   2   0.50000    -0.1150000    0.1150000   2.431434e-04  1.541678e-07
     86     89   2   0.50000     0.0000000    0.0000000   1.172438e-03  2.346713e-06
     86     95   2   0.50000     0.0000000    0.1150000   2.431434e-04  1.541678e-07
     94     89   2   0.50000     0.1150000    0.0000000   2.431434e-04  1.541678e-07
     94     95   2   0.50000     0.1150000    0.1150000   5.042375e-05  1.012808e-08
     87     90   2   0.50000    -0.1150000   -0.1150000   1.221652e-03  2.445219e-06
     95     90   2   0.50000     0.1150000   -0.1150000   2.533496e-04  1.606392e-07
     95     92   2   0.50000     0.1150000   -0.1150000   2.431434e-04  1.541678e-07
     88     91   2   0.50000    -0.1150000   -0.1150000   1.221652e-03  2.445219e-06
     88     96   2   0.50000    -0.1150000    0.1150000   2.431434e-04  1.541678e-07
     92     91   2   0.50000    -0.1150000   -0.1150000   1.221652e-03  2.445219e-06
     92     96   2   0.50000    -0.1150000    0.1150000   2.431434e-04  1.541678e-07
     88     98   2   0.50000    -0.1150000    0.1150000   2.431434e-04  1.541678e-07
     90     93   2   0.50000    -0.1150000   -0.1150000   1.221652e-03  2.445219e-06
     90     98   2   0.50000    -0.1150000    0.1150000   2.533496e-04  1.606392e-07
     89     97   2   0.50000     0.0000000    0.1150000   2.431434e-04  1.541678e-07
     89    100   2   0.50000     0.0000000    0.0000000   1.172438e-03  2.346713e-06
     96     97   2   0.50000     0.1150000    0.1150000   5.042375e-05  1.012808e-08
     96    100   2   0.50000     0.1150000    0.0000000   2.431434e-04  1.541678e-07
     90    101   2   0.50000    -0.1150000   -0.1150000   1.221652e-03  2.445219e-06
     90    107   2   0.50000    -0.1150000   -0.1150000   1.221652e-03  2.445219e-06
     97    101   2   0.50000     0.1150000   -0.1150000   2.431434e-04  1.541678e-07
     97    107   2   0.50000     0.1150000   -0.1150000   2.431434e-04  1.541678e-07
     89     99   2   0.50000     0.0000000    0.1150000   2.431434e-04  1.541678e-07
     98     86   2   0.50000     0.1150000    0.0000000   2.431434e-04  1.541678e-07
     98     99   2   0.50000     0.1150000    0.1150000   5.042375e-05  1.012808e-08
     91    102   2   0.50000    -0.1150000   -0.1150000   1.221652e-03  2.445219e-06
     91    108   2   0.50000    -0.1150000    0.1150000   2.533496e-04  1.606392e-07
    107    102   2   0.50000    -0.1150000   -0.1150000   1.172438e-03  2.346713e-06
    107    108   2   0.50000    -0.1150000    0.1150000   2.431434e-04  1.541678e-07
     91    106   2   0.50000    -0.1150000   -0.1150000   1.221652e-03  2.445219e-06
     91    113   2   0.50000    -0.1150000    0.1150000   2.533496e-04  1.606392e-07
    101    106   2   0.50000    -0.1150000   -0.1150000   1.172438e-03  2.346713e-06
    101    113   2   0.50000    -0.1150000    0.1150000   2.431434e-04  1.541678e-07
    100    103   2   0.50000     0.0000000    0.0000000   1.172438e-03  2.346713e-06
    100    109   2   0.50000     0.0000000    0.1150000   2.431434e-04  1.541678e-07
    108    103   2   0.50000     0.1150000    0.0000000   2.431434e-04  1.541678e-07
    108    109   2   0.50000     0.1150000    0.1150000   5.042375e-05  1.012808e-08
    101    104   2   0.50000    -0.1150000   -0.1150000   1.221652e-03  2.445219e-06
    109    104   2   0.50000     0.1150000   -0.1150000   2.533496e-04  1.606392e-07
    109    106   2   0.50000     0.1150000   -0.1150000   2.431434e-04  1.541678e-07
    102    105   2   0.50000    -0.1150000   -0.1150000   1.221652e-03  2.445219e-06
    102    110   2   0.50000    -0.1150000    0.1150000   2.431434e-04  1.541678e-07
    106    105   2   0.50000    -0.1150000   -0.1150000   1.221652e-03  2.445219e-06
    106    110   2   0.50000    -0.1150000    0.1150000   2.431434e-04  1.541678e-07
    102    112   2   0.50000    -0.1150000    0.1150000   2.431434e-04  1.541678e-07
    104    107   2   0.50000    -0.1150000   -0.1150000   1.221652e-03  2.445219e-06
    104    112   2   0.50000    -0.1150000    0.1150000   2.533496e-04  1.606392e-07
    103    111   2   0.50000     0.0000000    0.1150000   2.431434e-04  1.541678e-07
    103    114   2   0.50000     0.0000000    0.0000000   1.172438e-03  2.346713e-06
    110    111   2   0.50000     0.1150000    0.1150000   5.042375e-05  1.012808e-08
    110    114   2   0.50000     0.1150000    0.0000000   2.431434e-04  1.541678e-07
    104    115   2   0.50000    -0.1150000   -0.1150000   1.221652e-03  2.445219e-06
    104    121   2   0.50000    -0.1150000   -0.1150000   1.221652e-03  2.445219e-06
    111    115   2   0.50000     0.1150000   -0.1150000   2.431434e-04  1.541678e-07
    111    121   2   0.50000     0.1150000   -0.1150000   2.431434e-04  1.541678e-07
    103    113   2   0.50000     0.0000000    0.1150000   2.431434e-04  1.541678e-07
    112    100   2   0.50000     0.1150000    0.0000000   2.431434e-04  1.541678e-07
    112    113   2   0.50000     0.1150000    0.1150000   5.042375e-05  1.012808e-08
    105    116   2   0.50000    -0.1150000   -0.1150000   1.221652e-03  2.445219e-06
    105    122   2   0.50000    -0.1150000    0.1150000   2.533496e-04  1.606392e-07
    121    116   2   0.50000    -0.1150000   -0.1150000   1.172438e-03  2.346713e-06
    121    122   2   0.50000    -0.1150000    0.1150000   2.431434e-04  1.541678e-07
    105    120   2   0.50000    -0.1150000   -0.1150000   1.221652e-03  2.445219e-06
    105    127   2   0.50000    -0.1150000    0.1150000   2.533496e-04  1.606392e-07
    115    120   2   0.50000    -0.1150000   -0.1150000   1.172438e-03  2.346713e-06
    115    127   2   0.50000    -0.1150000    0.1150000   2.431434e-04  1.541678e-07
    114    117   2   0.50000     0.0000000    0.0000000   1.172438e-03  2.346713e-06
    114    123   2   0.50000     0.0000000    0.1150000   2.431434e-04  1.541678e-07
    122    117   2   0.50000     0.1150000    0.0000000   2.431434e-04  1.541678e-07
    122    123   2   0.50000     0.1150000    0.1150000   5.042375e-05  1.012808e-08
    115    118   2   0.50000    -0.1150000   -0.1150000   1.221652e-03  2.445219e-06
    123    118   2   0.50000     0.1150000   -0.1150000   2.533496e-04  1.606392e-07
    123    120   2   0.50000     0.1150000   -0.1150000   2.431434e-04  1.541678e-07
    116    119   2   0.50000    -0.1150000   -0.1150000   1.221652e-03  2.445219e-06
    116    124   2   0.50000    -0.1150000    0.1150000   2.431434e-04  1.541678e-07
    120    119   2   0.50000    -0.1150000   -0.1150000   1.221652e-03  2.445219e-06
    120    124   2   0.50000    -0.1150000    0.1150000   2.431434e-04  1.541678e-07
    116    126   2   0.50000    -0.1150000    0.1150000   2.431434e-04  1.541678e-07
    118    121   2   0.50000    -0.1150000   -0.1150000   1.221652e-03  2.445219e-06
    118    126   2   0.50000    -0.1150000    0.1150000   2.533496e-04  1.606392e-07
    117    125   2   0.50000     0.0000000    0.1150000   2.431434e-04  1.541678e-07
    117    128   2   0.50000     0.0000000    0.0000000   1.172438e-03  2.346713e-06
    124    125   2   0.50000     0.1150000    0.1150000   5.042375e-05  1.012808e-08
    124    128   2   0.50000     0.1150000    0.0000000   2.431434e-04  1.541678e-07
    118    129   2   0.50000    -0.1150000   -0.1150000   1.221652e-03  2.445219e-06
    118    135   2   0.50000    -0.1150000   -0.1150000   1.221652e-03  2.445219e-06
    125    129   2   0.50000     0.1150000   -0.1150000   2.431434e-04  1.541678e-07
    125    135   2   0.50000     0.1150000   -0.1150000   2.431434e-04  1.541678e-07
    117    127   2   0.50000     0.0000000    0.1150000   2.431434e-04  1.541678e-07
    126    114   2   0.50000     0.1150000    0.0000000   2.431434e-04  1.541678e-07
    126    127   2   0.50000     0.1150000    0.1150000   5.042375e-05  1.012808e-08
    119    130   2   0.50000    -0.1150000   -0.1150000   1.221652e-03  2.445219e-06
    119    136   2   0.50000    -0.1150000    0.1150000   2.533496e-04  1.606392e-07
    135    130   2   0.50000    -0.1150000   -0.1150000   1.172438e-03  2.346713e-06
    135    136   2   0.50000    -0.1150000    0.1150000   2.431434e-04  1.541678e-07
    119    134   2   0.50000    -0.1150000   -0.1150000   1.221652e-03  2.445219e-06
    119    141   2   0.50000    -0.1150000    0.1150000   2.533496e-04  1.606392e-07
    129    134   2   0.50000    -0.1150000   -0.1150000   1.172438e-03  2.346713e-06
    129    141   2   0.50000    -0.1150000    0.1150000   2.431434e-04  1.541678e-07
    128    131   2   0.50000     0.0000000    0.0000000   1.172438e-03  2.346713e-06
    128    137   2   0.50000     0.0000000    0.1150000   2.431434e-04  1.541678e-07
    136    131   2   0.50000     0.1150000    0.0000000   2.431434e-04  1.541678e-07
    136    137   2   0.50000     0.1150000    0.1150000   5.042375e-05  1.012808e-08
    129    132   2   0.50000    -0.1150000   -0.1150000   1.221652e-03  2.445219e-06
    137    132   2   0.50000     0.1150000   -0.1150000   2.533496e-04  1.606392e-07
    137    134   2   0.50000     0.1150000   -0.1150000   2.431434e-04  1.541678e-07
    130    133   2   0.50000    -0.1150000   -0.1150000   1.221652e-03  2.445219e-06
    130    138   2   0.50000    -0.1150000    0.1150000   2.431434e-04  1.541678e-07
    134    133   2   0.50000    -0.1150000   -0.1150000   1.221652e-03  2.445219e-06
    134    138   2   0.50000    -0.1150000    0.1150000   2.431434e-04  1.541678e-07
    130    140   2   0.50000    -0.1150000    0.1150000   2.431434e-04  1.541678e-07
    132    135   2   0.50000    -0.1150000   -0.1150000   1.221652e-03  2.445219e-06
    132    140   2   0.50000    -0.1150000    0.1150000   2.533496e-04  1.606392e-07
    131    139   2   0.50000     0.0000000    0.1150000   2.431434e-04  1.541678e-07
    131    142   2   0.50000     0.0000000    0.0000000   1.172438e-03  2.346713e-06
    138    139   2   0.50000     0.1150000    0.1150000   5.042375e-05  1.012808e-08
    138    142   2   0.50000     0.1150000    0.0000000   2.431434e-04  1.541678e-07
    132    143   2   0.50000    -0.1150000   -0.1150000   1.221652e-03  2.445219e-06
    132    149   2   0.50000    -0.1150000   -0.1150000   1.221652e-03  2.445219e-06
    139    143   2   0.50000     0.1150000   -0.1150000   2.431434e-04  1.541678e-07
    139    149   2   0.50000     0.1150000   -0.1150000   2.431434e-04  1.541678e-07
    131    141   2   0.50000     0.0000000    0.1150000   2.431434e-04  1.541678e-07
    140    128   2   0.50000     0.1150000    0.0000000   2.431434e-04  1.541678e-07
    140    141   2   0.50000     0.1150000    0.1150000   5.042375e-05  1.012808e-08
    133    144   2   0.50000    -0.1150000   -0.1150000   1.221652e-03  2.445219e-06
    133    150   2   0.50000    -0.1150000    0.1150000   2.533496e-04  1.606392e-07
    149    144   2   0.50000    -0.1150000   -0.1150000   1.172438e-03  2.346713e-06
    149    150   2   0.50000    -0.1150000    0.1150000   2.431434e-04  1.541678e-07
    133    148   2   0.50000    -0.1150000   -0.1150000   1.221652e-03  2.445219e-06
    133    155   2   0.50000    -0.1150000    0.1150000   2.533496e-04  1.606392e-07
    143    148   2   0.50000    -0.1150000   -0.1150000   1.172438e-03  2.346713e-06
    143    155   2   0.50000    -0.1150000    0.1150000   2.431434e-04  1.541678e-07
    142    145   2   0.50000     0.0000000    0.0000000   1.172438e-03  2.346713e-06
    142    151   2   0.50000     0.0000000    0.1150000   2.431434e-04  1.541678e-07
    150    145   2   0.50000     0.1150000    0.0000000   2.431434e-04  1.541678e-07
    150    151   2   0.50000     0.1150000    0.1150000   5.042375e-05  1.012808e-08
    143    146   2   0.50000    -0.1150000   -0.1150000   1.221652e-03  2.445219e-06
    151    146   2   0.50000     0.1150000   -0.1150000   2.533496e-04  1.606392e-07
    151    148   2   0.50000     0.1150000   -0.1150000   2.431434e-04  1.541678e-07
    144    147   2   0.50000    -0.1150000   -0.1150000   1.221652e-03  2.445219e-06
    144    152   2   0.50000    -0.1150000    0.1150000   2.431434e-04  1.541678e-07
    148    147   2   0.50000    -0.1150000   -0.1150000   1.221652e-03  2.445219e-06
    148    152   2   0.50000    -0.1150000    0.1150000   2.431434e-04  1.541678e-07
    144    154   2   0.50000    -0.1150000    0.1150000   2.431434e-04  1.541678e-07
    146    149   2   0.50000    -0.1150000   -0.1150000   1.221652e-03  2.445219e-06
    146    154   2   0.50000    -0.1150000    0.1150000   2.533496e-04  1.606392e-07
    145    153   2   0.50000     0.0000000    0.1150000   2.431434e-04  1.541678e-07
    145    156   2   0.50000     0.0000000    0.0000000   1.172438e-03  2.346713e-06
    152    153   2   0.50000     0.1150000    0.1150000   5.042375e-05  1.012808e-08
    152    156   2   0.50000     0.1150000    0.0000000   2.431434e-04  1.541678e-07
    146    157   2   0.50000    -0.1150000   -0.1150000   1.221652e-03  2.445219e-06
    146    163   2   0.50000    -0.1150000   -0.1150000   1.221652e-03  2.445219e-06
    153    157   2   0.50000     0.1150000   -0.1150000   2.431434e-04  1.541678e-07
    153    163   2   0.50000     0.1150000   -0.1150000   2.431434e-04  1.541678e-07
    145    155   2   0.50000     0.0000000    0.1150000   2.431434e-04  1.541678e-07
    154    142   2   0.50000     0.1150000    0.0000000   2.431434e-04  1.541678e-07
    154    155   2   0.50000     0.1150000    0.1150000   5.042375e-05  1.012808e-08
    147    158   2   0.50000    -0.1150000   -0.1150000   1.221652e-03  2.445219e-06
    147    164   2   0.50000    -0.1150000    0.1150000   2.533496e-04  1.606392e-07
    163    158   2   0.50000    -0.1150000   -0.1150000   1.172438e-03  2.346713e-06
    163    164   2   0.50000    -0.1150000    0.1150000   2.431434e-04  1.541678e-07
    147    162   2   0.50000    -0.1150000   -0.1150000   1.221652e-03  2.445219e-06
    147    169   2   0.50000    -0.1150000    0.1150000   2.533496e-04  1.606392e-07
    157    162   2   0.50000    -0.1150000   -0.1150000   1.172438e-03  2.346713e-06
    157    169   2   0.50000    -0.1150000    0.1150000   2.431434e-04  1.541678e-07
    156    159   2   0.50000     0.0000000    0.0000000   1.172438e-03  2.346713e-06
    156    165   2   0.50000     0.0000000    0.1150000   2.431434e-04  1.541678e-07
    164    159   2   0.50000     0.1150000    0.0000000   2.431434e-04  1.541678e-07
    164    165   2   0.50000     0.1150000    0.1150000   5.042375e-05  1.012808e-08
    157    160   2   0.50000    -0.1150000   -0.1150000   1.221652e-03  2.445219e-06
    165    160   2   0.50000     0.1150000   -0.1150000   2.533496e-04  1.606392e-07
    165    162   2   0.50000     0.1150000   -0.1150000   2.431434e-04  1.541678e-07
    158    161   2   0.50000    -0.1150000   -0.1150000   1.221652e-03  2.445219e-06
    158    166   2   0.50000    -0.1150000    0.1150000   2.431434e-04  1.541678e-07
    162    161   2   0.50000    -0.1150000   -0.1150000   1.221652e-03  2.445219e-06
    162    166   2   0.50000    -0.1150000    0.1150000   2.431434e-04  1.541678e-07
    158    168   2   0.50000    -0.1150000    0.1150000   2.431434e-04  1.541678e-07
    160    163   2   0.50000    -0.1150000   -0.1150000   1.221652e-03  2.445219e-06
    160    168   2   0.50000    -0.1150000    0.1150000   2.533496e-04  1.606392e-07
    159    167   2   0.50000     0.0000000    0.1150000   2.431434e-04  1.541678e-07
    159    170   2   0.50000     0.0000000    0.0000000   1.172438e-03  2.346713e-06
    166    167   2   0.50000     0.1150000    0.1150000   5.042375e-05  1.012808e-08
    166    170   2   0.50000     0.1150000    0.0000000   2.431434e-04  1.541678e-07
    160    171   2   0.50000    -0.1150000   -0.1150000   1.221652e-03  2.445219e-06
    160    177   2   0.50000    -0.1150000   -0.1150000   1.221652e-03  2.445219e-06
    167    171   2   0.50000     0.1150000   -0.1150000   2.431434e-04  1.541678e-07
    167    177   2   0.50000     0.1150000   -0.1150000   2.431434e-04  1.541678e-07
    159    169   2   0.50000     0.0000000    0.1150000   2.431434e-04  1.541678e-07
    168    156   2   0.50000     0.1150000    0.0000000   2.431434e-04  1.541678e-07
    168    169   2   0.50000     0.1150000    0.1150000   5.042375e-05  1.012808e-08
    161    172   2   0.50000    -0.1150000   -0.1150000   1.221652e-03  2.445219e-06
    161    178   2   0.50000    -0.1150000    0.1150000   2.533496e-04  1.606392e-07
    177    172   2   0.50000    -0.1150000   -0.1150000   1.172438e-03  2.346713e-06
    177    178   2   0.50000    -0.1150000    0.1150000   2.431434e-04  1.541678e-07
    161    176   2   0.50000    -0.1150000   -0.1150000   1.221652e-03  2.445219e-06
    161    183   2   0.50000    -0.1150000    0.1150000   2.533496e-04  1.606392e-07
    171    176   2   0.50000    -0.1150000   -0.1150000   1.172438e-03  2.346713e-06
    171    183   2   0.50000    -0.1150000    0.1150000   2.431434e-04  1.541678e-07
    170    173   2   0.50000     0.0000000    0.0000000   1.172438e-03  2.346713e-06
    170    179   2   0.50000     0.0000000    0.1150000   2.431434e-04  1.541678e-07
    178    173   2   0.50000     0.1150000    0.0000000   2.431434e-04  1.541678e-07
    178    179   2   0.50000     0.1150000    0.1150000   5.042375e-05  1.012808e-08
    171    174   2   0.50000    -0.1150000   -0.1150000   1.221652e-03  2.445219e-06
    179    174   2   0.50000     0.1150000   -0.1150000   2.533496e-04  1.606392e-07
    179    176   2   0.50000     0.1150000   -0.1150000   2.431434e-04  1.541678e-07
    172    175   2   0.50000    -0.1150000   -0.1150000   1.221652e-03  2.445219e-06
    172    180   2   0.50000    -0.1150000    0.1150000   2.431434e-04  1.541678e-07
    176    175   2   0.50000    -0.1150000   -0.1150000   1.221652e-03  2.445219e-06
    176    180   2   0.50000    -0.1150000    0.1150000   2.431434e-04  1.541678e-07
    172    182   2   0.50000    -0.1150000    0.1150000   2.431434e-04  1.541678e-07
    174    177   2   0.50000    -0.1150000   -0.1150000   1.221652e-03  2.445219e-06
    174    182   2   0.50000    -0.1150000    0.1150000   2.533496e-04  1.606392e-07
    173    181   2   0.50000     0.0000000    0.1150000   2.431434e-04  1.541678e-07
    173    184   2   0.50000     0.0000000    0.0000000   1.172438e-03  2.346713e-06
    180    181   2   0.50000     0.1150000    0.1150000   5.042375e-05  1.012808e-08
    180    184   2   0.50000     0.1150000    0.0000000   2.431434e-04  1.541678e-07
    174    185   2   0.50000    -0.1150000   -0.1150000   1.221652e-03  2.445219e-06
    174    191   2   0.50000    -0.1150000   -0.1150000   1.221652e-03  2.445219e-06
    181    185   2   0.50000     0.1150000   -0.1150000   2.431434e-04  1.541678e-07
    181    191   2   0.50000     0.1150000   -0.1150000   2.431434e-04  1.541678e-07
    173    183   2   0.50000     0.0000000    0.1150000   2.431434e-04  1.541678e-07
    182    170   2   0.50000     0.1150000    0.0000000   2.431434e-04  1.541678e-07
    182    183   2   0.50000     0.1150000    0.1150000   5.042375e-05  1.012808e-08
    175    186   2   0.50000    -0.1150000   -0.1150000   1.221652e-03  2.445219e-06
    175    192   2   0.50000    -0.1150000    0.1150000   2.533496e-04  1.606392e-07
    191    186   2   0.50000    -0.1150000   -0.1150000   1.172438e-03  2.346713e-06
    191    192   2   0.50000    -0.1150000    0.1150000   2.431434e-04  1.541678e-07
    175    190   2   0.50000    -0.1150000   -0.1150000   1.221652e-03  2.445219e-06
    175    197   2   0.50000    -0.1150000    0.1150000   2.533496e-04  1.606392e-07
    185    190   2   0.50000    -0.1150000   -0.1150000   1.172438e-03  2.346713e-06
    185    197   2   0.50000    -0.1150000    0.1150000   2.431434e-04  1.541678e-07
    184    187   2   0.50000     0.0000000    0.0000000   1.172438e-03  2.346713e-06
    184    193   2   0.50000     0.0000000    0.1150000   2.431434e-04  1.541678e-07
    192    187   2   0.50000     0.1150000    0.0000000   2.431434e-04  1.541678e-07
    192    193   2   0.50000     0.1150000    0.1150000   5.042375e-05  1.012808e-08
    185    188   2   0.50000    -0.1150000   -0.1150000   1.221652e-03  2.445219e-06
    193    188   2   0.50000     0.1150000   -0.1150000   2.533496e-04  1.606392e-07
    193    190   2   0.50000     0.1150000   -0.1150000   2.431434e-04  1.541678e-07
    186    189   2   0.50000    -0.1150000   -0.1150000   1.221652e-03  2.445219e-06
    186    194   2   0.50000    -0.1150000    0.1150000   2.431434e-04  1.541678e-07
    190    189   2   0.50000    -0.1150000   -0.1150000   1.221652e-03  2.445219e-06
    190    194   2   0.50000    -0.1150000    0.1150000   2.431434e-04  1.541678e-07
    186    196   2   0.50000    -0.1150000    0.1150000   2.431434e-04  1.541678e-07
    188    191   2   0.50000    -0.1150000   -0.1150000   1.221652e-03  2.445219e-06
    188    196   2   0.50000    -0.1150000    0.1150000   2.533496e-04  1.606392e-07
    187    195   2   0.50000     0.0000000    0.1150000   2.431434e-04  1.541678e-07
    187    198   2   0.50000     0.0000000    0.0000000   1.172438e-03  2.346713e-06
    194    195   2   0.50000     0.1150000    0.1150000   5.042375e-05  1.012808e-08
    194    198   2   0.50000     0.1150000    0.0000000   2.431434e-04  1.541678e-07
    188    199   2   0.50000    -0.1150000   -0.1150000   1.221652e-03  2.445219e-06
    188    205   2   0.50000    -0.1150000   -0.1150000   1.221652e-03  2.445219e-06
    195    199   2   0.50000     0.1150000   -0.1150000   2.431434e-04  1.541678e-07
    195    205   2   0.50000     0.1150000   -0.1150000   2.431434e-04  1.541678e-07
    187    197   2   0.50000     0.0000000    0.1150000   2.431434e-04  1.541678e-07
    196    184   2   0.50000     0.1150000    0.0000000   2.431434e-04  1.541678e-07
    196    197   2   0.50000     0.1150000    0.1150000   5.042375e-05  1.012808e-08
    189    200   2   0.50000    -0.1150000   -0.1150000   1.221652e-03  2.445219e-06
    189    206   2   0.50000    -0.1150000    0.1150000   2.533496e-04  1.606392e-07
    205    200   2   0.50000    -0.1150000   -0.1150000   1.172438e-03  2.346713e-06
    205    206   2   0.50000    -0.1150000    0.1150000   2.431434e-04  1.541678e-07
    189    204   2   0.50000    -0.1150000   -0.1150000   1.221652e-03  2.445219e-06
    189    211   2   0.50000    -0.1150000    0.1150000   2.533496e-04  1.606392e-07
    199    204   2   0.50000    -0.1150000   -0.1150000   1.172438e-03  2.346713e-06
    199    211   2   0.50000    -0.1150000    0.1150000   2.431434e-04  1.541678e-07
    198    201   2   0.50000     0.0000000    0.0000000   1.172438e-03  2.346713e-06
    198    207   2   0.50000     0.0000000    0.1150000   2.431434e-04  1.541678e-07
    206    201   2   0.50000     0.1150000    0.0000000   2.431434e-04  1.541678e-07
    206    207   2   0.50000     0.1150000    0.1150000   5.042375e-05  1.012808e-08
    199    202   2   0.50000    -0.1150000   -0.1150000   1.221652e-03  2.445219e-06
    207    202   2   0.50000     0.1150000   -0.1150000   2.533496e-04  1.606392e-07
    207    204   2   0.50000     0.1150000   -0.1150000   2.431434e-04  1.541678e-07
    200    203   2   0.50000    -0.1150000   -0.1150000   1.221652e-03  2.445219e-06
    200    208   2   0.50000    -0.1150000    0.1150000   2.431434e-04  1.541678e-07
    204    203   2   0.50000    -0.1150000   -0.1150000   1.221652e-03  2.445219e-06
    204    208   2   0.50000    -0.1150000    0.1150000   2.431434e-04  1.541678e-07
    200    210   2   0.50000    -0.1150000    0.1150000   2.431434e-04  1.541678e-07
    202    205   2   0.50000    -0.1150000   -0.1150000   1.221652e-03  2.445219e-06
    202    210   2   0.50000    -0.1150000    0.1150000   2.533496e-04  1.606392e-07
    201    209   2   0.50000     0.0000000    0.1150000   2.431434e-04  1.541678e-07
    201    212   2   0.50000     0.0000000    0.0000000   1.172438e-03  2.346713e-06
    208    209   2   0.50000     0.1150000    0.1150000   5.042375e-05  1.012808e-08
    208    212   2   0.50000     0.1150000    0.0000000   2.431434e-04  1.541678e-07
    202    213   2   0.50000    -0.1150000   -0.1150000   1.221652e-03  2.445219e-06
    202    219   2   0.50000    -0.1150000   -0.1150000   1.221652e-03  2.445219e-06
    209    213   2   0.50000     0.1150000   -0.1150000   2.431434e-04  1.541678e-07
    209    219   2   0.50000     0.1150000   -0.1150000   2.431434e-04  1.541678e-07
    201    211   2   0.50000     0.0000000    0.1150000   2.431434e-04  1.541678e-07
    210    198   2   0.50000     0.1150000    0.0000000   2.431434e-04  1.541678e-07
    210    211   2   0.50000     0.1150000    0.1150000   5.042375e-05  1.012808e-08
    203    214   2   0.50000    -0.1150000   -0.1150000   1.221652e-03  2.445219e-06
    203    220   2   0.50000    -0.1150000    0.1150000   2.533496e-04  1.606392e-07
    219    214   2   0.50000    -0.1150000   -0.1150000   1.172438e-03  2.346713e-06
    219    220   2   0.50000    -0.1150000    0.1150000   2.431434e-04  1.541678e-07
    203    218   2   0.50000    -0.1150000   -0.1150000   1.221652e-03  2.445219e-06
    203    225   2   0.50000    -0.1150000    0.1150000   2.533496e-04  1.606392e-07
    213    218   2   0.50000    -0.1150000   -0.1150000   1.172438e-03  2.346713e-06
    213    225   2   0.50000    -0.1150000    0.1150000   2.431434e-04  1.541678e-07
    212    215   2   0.50000     0.0000000    0.0000000   1.172438e-03  2.346713e-06
    212    221   2   0.50000     0.0000000    0.1150000   2.431434e-04  1.541678e-07
    220    215   2   0.50000     0.1150000    0.0000000   2.431434e-04  1.541678e-07
    220    221   2   0.50000     0.1150000    0.1150000   5.042375e-05  1.012808e-08
    213    216   2   0.50000    -0.1150000   -0.1150000   1.221652e-03  2.445219e-06
    221    216   2   0.50000     0.1150000   -0.1150000   2.533496e-04  1.606392e-07
    221    218   2   0.50000     0.1150000   -0.1150000   2.431434e-04  1.541678e-07
    214    217   2   0.50000    -0.1150000   -0.1150000   1.221652e-03  2.445219e-06
    214    222   2   0.50000    -0.1150000    0.1150000   2.431434e-04  1.541678e-07
    218    217   2   0.50000    -0.1150000   -0.1150000   1.221652e-03  2.445219e-06
    218    222   2   0.50000    -0.1150000    0.1150000   2.431434e-04  1.541678e-07
    214    224   2   0.50000    -0.1150000    0.1150000   2.431434e-04  1.541678e-07
    216    219   2   0.50000    -0.1150000   -0.1150000   1.221652e-03  2.445219e-06
    216    224   2   0.50000    -0.1150000    0.1150000   2.533496e-04  1.606392e-07
    215    223   2   0.50000     0.0000000    0.1150000   2.431434e-04  1.541678e-07
    215    226   2   0.50000     0.0000000    0.0000000   1.172438e-03  2.346713e-06
    222    223   2   0.50000     0.1150000    0.1150000   5.042375e-05  1.012808e-08
    222    226   2   0.50000     0.1150000    0.0000000   2.431434e-04  1.541678e-07
    216    227   2   0.50000    -0.1150000   -0.1150000   1.221652e-03  2.445219e-06
    216    233   2   0.50000    -0.1150000   -0.1150000   1.221652e-03  2.445219e-06
    223    227   2   0.50000     0.1150000   -0.1150000   2.431434e-04  1.541678e-07
    223    233   2   0.50000     0.1150000   -0.1150000   2.431434e-04  1.541678e-07
    215    225   2   0.50000     0.0000000    0.1150000   2.431434e-04  1.541678e-07
    224    212   2   0.50000     0.1150000    0.0000000   2.431434e-04  1.541678e-07
    224    225   2   0.50000     0.1150000    0.1150000   5.042375e-05  1.012808e-08
    217    228   2   0.50000    -0.1150000   -0.1150000   1.221652e-03  2.445219e-06
    217    234   2   0.50000    -0.1150000    0.1150000   2.533496e-04  1.606392e-07
    233    228   2   0.50000    -0.1150000   -0.1150000   1.172438e-03  2.346713e-06
    233    234   2   0.50000    -0.1150000    0.1150000   2.431434e-04  1.541678e-07
    217    232   2   0.50000    -0.1150000   -0.1150000   1.221652e-03  2.445219e-06
    217    239   2   0.50000    -0.1150000    0.1150000   2.533496e-04  1.606392e-07
    227    232   2   0.50000    -0.1150000   -0.1150000   1.172438e-03  2.346713e-06
    227    239   2   0.50000    -0.1150000    0.1150000   2.431434e-04  1.541678e-07
    226    229   2   0.50000     0.0000000    0.0000000   1.172438e-03  2.346713e-06
    226    235   2   0.50000     0.0000000    0.1150000   2.431434e-04  1.541678e-07
    234    229   2   0.50000     0.1150000    0.0000000   2.431434e-04  1.541678e-07
    234    235   2   0.50000     0.1150000    0.1150000   5.042375e-05  1.012808e-08
    227    230   2   0.50000    -0.1150000   -0.1150000   1.221652e-03  2.445219e-06
    235    230   2   0.50000     0.1150000   -0.1150000   2.533496e-04  1.606392e-07
    235    232   2   0.50000     0.1150000   -0.1150000   2.431434e-04  1.541678e-07
    228    231   2   0.50000    -0.1150000   -0.1150000   1.221652e-03  2.445219e-06
    228    236   2   0.50000    -0.1150000    0.1150000   2.431434e-04  1.541678e-07
    232    231   2   0.50000    -0.1150000   -0.1150000   1.221652e-03  2.445219e-06
    232    236   2   0.50000    -0.1150000    0.1150000   2.431434e-04  1.541678e-07
    228    238   2   0.50000    -0.1150000    0.1150000   2.431434e-04  1.541678e-07
    230    233   2   0.50000    -0.1150000   -0.1150000   1.221652e-03  2.445219e-06
    230    238   2   0.50000    -0.1150000    0.1150000   2.533496e-04  1.606392e-07
    229    237   2   0.50000     0.0000000    0.1150000   2.431434e-04  1.541678e-07
    229    240   2   0.50000     0.0000000    0.0000000   1.172438e-03  2.346713e-06
    236    237   2   0.50000     0.1150000    0.1150000   5.042375e-05  1.012808e-08
    236    240   2   0.50000     0.1150000    0.0000000   2.431434e-04  1.541678e-07
    230    241   2   0.50000    -0.1150000   -0.1150000   1.221652e-03  2.445219e-06
    230    247   2   0.50000    -0.1150000   -0.1150000   1.221652e-03  2.445219e-06
    237    241   2   0.50000     0.1150000   -0.1150000   2.431434e-04  1.541678e-07
    237    247   2   0.50000     0.1150000   -0.1150000   2.431434e-04  1.541678e-07
    229    239   2   0.50000     0.0000000    0.1150000   2.431434e-04  1.541678e-07
    238    226   2   0.50000     0.1150000    0.0000000   2.431434e-04  1.541678e-07
    238    239   2   0.50000     0.1150000    0.1150000   5.042375e-05  1.012808e-08
    231    242   2   0.50000    -0.1150000   -0.1150000   1.221652e-03  2.445219e-06
    231    248   2   0.50000    -0.1150000    0.1150000   2.533496e-04  1.606392e-07
    247    242   2   0.50000    -0.1150000   -0.1150000   1.172438e-03  2.346713e-06
    247    248   2   0.50000    -0.1150000    0.1150000   2.431434e-04  1.541678e-07
    231    246   2   0.50000    -0.1150000   -0.1150000   1.221652e-03  2.445219e-06
    231    253   2   0.50000    -0.1150000    0.1150000   2.533496e-04  1.606392e-07
    241    246   2   0.50000    -0.1150000   -0.1150000   1.172438e-03  2.346713e-06
    241    253   2   0.50000    -0.1150000    0.1150000   2.431434e-04  1.541678e-07
    240    243   2   0.50000     0.0000000    0.0000000   1.172438e-03  2.346713e-06
    240    249   2   0.50000     0.0000000    0.1150000   2.431434e-04  1.541678e-07
    248    243   2   0.50000     0.1150000    0.0000000   2.431434e-04  1.541678e-07
    248    249   2   0.50000     0.1150000    0.1150000   5.042375e-05  1.012808e-08
    241    244   2   0.50000    -0.1150000   -0.1150000   1.221652e-03  2.445219e-06
    249    244   2   0.50000     0.1150000   -0.1150000   2.533496e-04  1.606392e-07
    249    246   2   0.50000     0.1150000   -0.1150000   2.431434e-04  1.541678e-07
    242    245   2   0.50000    -0.1150000   -0.1150000   1.221652e-03  2.445219e-06
    242    250   2   0.50000    -0.1150000    0.1150000   2.431434e-04  1.541678e-07
    246    245   2   0.50000    -0.1150000   -0.1150000   1.221652e-03  2.445219e-06
    246    250   2   0.50000    -0.1150000    0.1150000   2.431434e-04  1.541678e-07
    242    252   2   0.50000    -0.1150000    0.1150000   2.431434e-04  1.541678e-07
    244    247   2   0.50000    -0.1150000   -0.1150000   1.221652e-03  2.445219e-06
    244    252   2   0.50000    -0.1150000    0.1150000   2.533496e-04  1.606392e-07
    243    251   2   0.50000     0.0000000    0.1150000   2.431434e-04  1.541678e-07
    243    254   2   0.50000     0.0000000    0.0000000   1.172438e-03  2.346713e-06
    250    251   2   0.50000     0.1150000    0.1150000   5.042375e-05  1.012808e-08
    250    254   2   0.50000     0.1150000    0.0000000   2.431434e-04  1.541678e-07
    244    255   2   0.50000    -0.1150000   -0.1150000   1.221652e-03  2.445219e-06
    244    261   2   0.50000    -0.1150000   -0.1150000   1.221652e-03  2.445219e-06
    251    255   2   0.50000     0.1150000   -0.1150000   2.431434e-04  1.541678e-07
    251    261   2   0.50000     0.1150000   -0.1150000   2.431434e-04  1.541678e-07
    243    253   2   0.50000     0.0000000    0.1150000   2.431434e-04  1.541678e-07
    252    240   2   0.50000     0.1150000    0.0000000   2.431434e-04  1.541678e-07
    252    253   2   0.50000     0.1150000    0.1150000   5.042375e-05  1.012808e-08
    245    256   2   0.50000    -0.1150000   -0.1150000   1.221652e-03  2.445219e-06
    245    262   2   0.50000    -0.1150000    0.1150000   2.533496e-04  1.606392e-07
    261    256   2   0.50000    -0.1150000   -0.1150000   1.172438e-03  2.346713e-06
    261    262   2   0.50000    -0.1150000    0.1150000   2.431434e-04  1.541678e-07
    245    260   2   0.50000    -0.1150000   -0.1150000   1.221652e-03  2.445219e-06
    245    267   2   0.50000    -0.1150000    0.1150000   2.533496e-04  1.606392e-07
    255    260   2   0.50000    -0.1150000   -0.1150000   1.172438e-03  2.346713e-06
    255    267   2   0.50000    -0.1150000    0.1150000   2.431434e-04  1.541678e-07
    254    257   2   0.50000     0.0000000    0.0000000   1.172438e-03  2.346713e-06
    254    263   2   0.50000     0.0000000    0.1150000   2.431434e-04  1.541678e-07
    262    257   2   0.50000     0.1150000    0.0000000   2.431434e-04  1.541678e-07
    262    263   2   0.50000     0.1150000    0.1150000   5.042375e-05  1.012808e-08
    255    258   2   0.50000    -0.1150000   -0.1150000   1.221652e-03  2.445219e-06
    263    258   2   0.50000     0.1150000   -0.1150000   2.533496e-04  1.606392e-07
    263    260   2   0.50000     0.1150000   -0.1150000   2.431434e-04  1.541678e-07
    256    259   2   0.50000    -0.1150000   -0.1150000   1.221652e-03  2.445219e-06
    256    264   2   0.50000    -0.1150000    0.1150000   2.431434e-04  1.541678e-07
    260    259   2   0.50000    -0.1150000   -0.1150000   1.221652e-03  2.445219e-06
    260    264   2   0.50000    -0.1150000    0.1150000   2.431434e-04  1.541678e-07
    256    266   2   0.50000    -0.1150000    0.1150000   2.431434e-04  1.541678e-07
    258    261   2   0.50000    -0.1150000   -0.1150000   1.221652e-03  2.445219e-06
    258    266   2   0.50000    -0.1150000    0.1150000   2.533496e-04  1.606392e-07
    257    265   2   0.50000     0.0000000    0.1150000   2.431434e-04  1.541678e-07
    257    268   2   0.50000     0.0000000    0.0000000   1.172438e-03  2.346713e-06
    264    265   2   0.50000     0.1150000    0.1150000   5.042375e-05  1.012808e-08
    264    268   2   0.50000     0.1150000    0.0000000   2.431434e-04  1.541678e-07
    258    269   2   0.50000    -0.1150000   -0.1150000   1.221652e-03  2.445219e-06
    258    275   2   0.50000    -0.1150000   -0.1150000   1.221652e-03  2.445219e-06
    265    269   2   0.50000     0.1150000   -0.1150000   2.431434e-04  1.541678e-07
    265    275   2   0.50000     0.1150000   -0.1150000   2.431434e-04  1.541678e-07
    257    267   2   0.50000     0.0000000    0.1150000   2.431434e-04  1.541678e-07
    266    254   2   0.50000     0.1150000    0.0000000   2.431434e-04  1.541678e-07
    266    267   2   0.50000     0.1150000    0.1150000   5.042375e-05  1.012808e-08
    259    270   2   0.50000    -0.1150000   -0.1150000   1.221652e-03  2.445219e-06
    259    276   2   0.50000    -0.1150000    0.1150000   2.533496e-04  1.606392e-07
    275    270   2   0.50000    -0.1150000   -0.1150000   1.172438e-03  2.346713e-06
    275    276   2   0.50000    -0.1150000    0.1150000   2.431434e-04  1.541678e-07
    259    274   2   0.50000    -0.1150000   -0.1150000   1.221652e-03  2.445219e-06
    259    281   2   0.50000    -0.1150000    0.1150000   2.533496e-04  1.606392e-07
    269    274   2   0.50000    -0.1150000   -0.1150000   1.172438e-03  2.346713e-06
    269    281   2   0.50000    -0.1150000    0.1150000   2.431434e-04  1.541678e-07
    268    271   2   0.50000     0.0000000    0.0000000   1.172438e-03  2.346713e-06
    268    277   2   0.50000     0.0000000    0.1150000   2.431434e-04  1.541678e-07
    276    271   2   0.50000     0.1150000    0.0000000   2.431434e-04  1.541678e-07
    276    277   2   0.50000     0.1150000    0.1150000   5.042375e-05  1.012808e-08
    269    272   2   0.50000    -0.1150000   -0.1150000   1.221652e-03  2.445219e-06
    277    272   2   0.50000     0.1150000   -0.1150000   2.533496e-04  1.606392e-07
    277    274   2   0.50000     0.1150000   -0.1150000   2.431434e-04  1.541678e-07
    270    273   2   0.50000    -0.1150000   -0.2300000   1.221652e-03  2.445219e-06
    270    278   2   0.50000    -0.1150000    0.1150000   2.431434e-04  1.541678e-07
    274    273   2   0.50000    -0.1150000   -0.2300000   1.221652e-03  2.445219e-06
    274    278   2   0.50000    -0.1150000    0.1150000   2.431434e-04  1.541678e-07
    270    280   2   0.50000    -0.1150000    0.1150000   2.431434e-04  1.541678e-07
    272    275   2   0.50000    -0.1150000   -0.1150000   1.221652e-03  2.445219e-06
    272    280   2   0.50000    -0.1150000    0.1150000   2.533496e-04  1.606392e-07
    271    279   2   0.50000     0.0000000    0.1150000   2.431434e-04  1.541678e-07
    271    282   2   0.50000     0.0000000    0.1150000   2.431434e-04  1.541678e-07
    278    279   2   0.50000     0.1150000    0.1150000   5.042375e-05  1.012808e-08
    278    282   2   0.50000     0.1150000    0.1150000   5.042375e-05  1.012808e-08
    271    281   2   0.50000     0.0000000    0.1150000   2.431434e-04  1.541678e-07
    280    268   2   0.50000     0.1150000    0.0000000   2.431434e-04  1.541678e-07
    280    281   2   0.50000     0.1150000    0.1150000   5.042375e-05  1.012808e-08

[ angles ]
; ai  aj  ak
      2      1      8   1    120.0000    527.1840
      2      1     15   1    120.0000    292.8800
      8      1     15   1    120.0000    292.8800
      1      2      3   1    120.0000    527.1840
      1      2      9   1    120.0000    292.8800
      3      2      9   1    120.0000    292.8800
      2      3      4   1    120.0000    527.1840
      2      3     10   1    120.0000    292.8800
      4      3     10   1    120.0000    292.8800
      3      4      5   1    120.9350    502.0800
      3      4      7   1    120.0000    527.1840
      5      4      7   1    120.9350    502.0800
      4      5      6   1    123.2050    502.0800
      4      5     11   1    117.2630    334.7200
      6      5     11   1    120.0000    292.8800
      5      6     12   1    120.0000    292.8800
      5      6     16   1    123.2050    502.0800
     12      6     16   1    117.2630    334.7200
      4      7      8   1    120.0000    527.1840
      4      7     13   1    120.0000    292.8800
      8      7     13   1    120.0000    292.8800
      1      8      7   1    120.0000    527.1840
      1      8     14   1    120.0000    292.8800
      7      8     14   1    120.0000    292.8800
      6     16     17   1    120.9350    502.0800
      6     16     23   1    120.9350    502.0800
     17     16     23   1    120.0000    527.1840
     16     17     18   1    120.0000    527.1840
     16     17     24   1    120.0000    292.8800
     18     17     24   1    120.0000    292.8800
     17     18     19   1    120.0000    527.1840
     17     18     25   1    120.0000    292.8800
     19     18     25   1    120.0000    292.8800
     18     19     20   1    120.9350    502.0800
     18     19     22   1    120.0000    527.1840
     20     19     22   1    120.9350    502.0800
     19     20     21   1    123.2050    502.0800
     19     20     26   1    117.2630    334.7200
     21     20     26   1    120.0000    292.8800
     20     21     27   1    120.0000    292.8800
     20     21     30   1    123.2050    502.0800
     27     21     30   1    117.2630    334.7200
     19     22     23   1    120.0000    527.1840
     19     22     28   1    120.0000    292.8800
     23     22     28   1    120.0000    292.8800
     16     23     22   1    120.0000    527.1840
     16     23     29   1    120.0000    292.8800
     22     23     29   1    120.0000    292.8800
     21     30     31   1    120.9350    502.0800
     21     30     37   1    120.9350    502.0800
     31     30     37   1    120.0000    527.1840
     30     31     32   1    120.0000    527.1840
     30     31     38   1    120.0000    292.8800
     32     31     38   1    120.0000    292.8800
     31     32     33   1    120.0000    527.1840
     31     32     39   1    120.0000    292.8800
     33     32     39   1    120.0000    292.8800
     32     33     34   1    120.9350    502.0800
     32     33     36   1    120.0000    527.1840
     34     33     36   1    120.9350    502.0800
     33     34     35   1    123.2050    502.0800
     33     34     40   1    117.2630    334.7200
     35     34     40   1    120.0000    292.8800
     34     35     41   1    120.0000    292.8800
     34     35     44   1    123.2050    502.0800
     41     35     44   1    117.2630    334.7200
     33     36     37   1    120.0000    527.1840
     33     36     42   1    120.0000    292.8800
     37     36     42   1    120.0000    292.8800
     30     37     36   1    120.0000    527.1840
     30     37     43   1    120.0000    292.8800
     36     37     43   1    120.0000    292.8800
     35     44     45   1    120.9350    502.0800
     35     44     51   1    120.9350    502.0800
     45     44     51   1    120.0000    527.1840
     44     45     46   1    120.0000    527.1840
     44     45     52   1    120.0000    292.8800
     46     45     52   1    120.0000    292.8800
     45     46     47   1    120.0000    527.1840
     45     46     53   1    120.0000    292.8800
     47     46     53   1    120.0000    292.8800
     46     47     48   1    120.9350    502.0800
     46     47     50   1    120.0000    527.1840
     48     47     50   1    120.9350    502.0800
     47     48     49   1    123.2050    502.0800
     47     48     54   1    117.2630    334.7200
     49     48     54   1    120.0000    292.8800
     48     49     55   1    120.0000    292.8800
     48     49     58   1    123.2050    502.0800
     55     49     58   1    117.2630    334.7200
     47     50     51   1    120.0000    527.1840
     47     50     56   1    120.0000    292.8800
     51     50     56   1    120.0000    292.8800
     44     51     50   1    120.0000    527.1840
     44     51     57   1    120.0000    292.8800
     50     51     57   1    120.0000    292.8800
     49     58     59   1    120.9350    502.0800
     49     58     65   1    120.9350    502.0800
     59     58     65   1    120.0000    527.1840
     58     59     60   1    120.0000    527.1840
     58     59     66   1    120.0000    292.8800
     60     59     66   1    120.0000    292.8800
     59     60     61   1    120.0000    527.1840
     59     60     67   1    120.0000    292.8800
     61     60     67   1    120.0000    292.8800
     60     61     62   1    120.9350    502.0800
     60     61     64   1    120.0000    527.1840
     62     61     64   1    120.9350    502.0800
     61     62     63   1    123.2050    502.0800
     61     62     68   1    117.2630    334.7200
     63     62     68   1    120.0000    292.8800
     62     63     69   1    120.0000    292.8800
     62     63     72   1    123.2050    502.0800
     69     63     72   1    117.2630    334.7200
     61     64     65   1    120.0000    527.1840
     61     64     70   1    120.0000    292.8800
     65     64     70   1    120.0000    292.8800
     58     65     64   1    120.0000    527.1840
     58     65     71   1    120.0000    292.8800
     64     65     71   1    120.0000    292.8800
     63     72     73   1    120.9350    502.0800
     63     72     79   1    120.9350    502.0800
     73     72     79   1    120.0000    527.1840
     72     73     74   1    120.0000    527.1840
     72     73     80   1    120.0000    292.8800
     74     73     80   1    120.0000    292.8800
     73     74     75   1    120.0000    527.1840
     73     74     81   1    120.0000    292.8800
     75     74     81   1    120.0000    292.8800
     74     75     76   1    120.9350    502.0800
     74     75     78   1    120.0000    527.1840
     76     75     78   1    120.9350    502.0800
     75     76     77   1    123.2050    502.0800
     75     76     82   1    117.2630    334.7200
     77     76     82   1    120.0000    292.8800
     76     77     83   1    120.0000    292.8800
     76     77     86   1    123.2050    502.0800
     83     77     86   1    117.2630    334.7200
     75     78     79   1    120.0000    527.1840
     75     78     84   1    120.0000    292.8800
     79     78     84   1    120.0000    292.8800
     72     79     78   1    120.0000    527.1840
     72     79     85   1    120.0000    292.8800
     78     79     85   1    120.0000    292.8800
     77     86     87   1    120.9350    502.0800
     77     86     93   1    120.9350    502.0800
     87     86     93   1    120.0000    527.1840
     86     87     88   1    120.0000    527.1840
     86     87     94   1    120.0000    292.8800
     88     87     94   1    120.0000    292.8800
     87     88     89   1    120.0000    527.1840
     87     88     95   1    120.0000    292.8800
     89     88     95   1    120.0000    292.8800
     88     89     90   1    120.9350    502.0800
     88     89     92   1    120.0000    527.1840
     90     89     92   1    120.9350    502.0800
     89     90     91   1    123.2050    502.0800
     89     90     96   1    117.2630    334.7200
     91     90     96   1    120.0000    292.8800
     90     91     97   1    120.0000    292.8800
     90     91    100   1    123.2050    502.0800
     97     91    100   1    117.2630    334.7200
     89     92     93   1    120.0000    527.1840
     89     92     98   1    120.0000    292.8800
     93     92     98   1    120.0000    292.8800
     86     93     92   1    120.0000    527.1840
     86     93     99   1    120.0000    292.8800
     92     93     99   1    120.0000    292.8800
     91    100    101   1    120.9350    502.0800
     91    100    107   1    120.9350    502.0800
    101    100    107   1    120.0000    527.1840
    100    101    102   1    120.0000    527.1840
    100    101    108   1    120.0000    292.8800
    102    101    108   1    120.0000    292.8800
    101    102    103   1    120.0000    527.1840
    101    102    109   1    120.0000    292.8800
    103    102    109   1    120.0000    292.8800
    102    103    104   1    120.9350    502.0800
    102    103    106   1    120.0000    527.1840
    104    103    106   1    120.9350    502.0800
    103    104    105   1    123.2050    502.0800
    103    104    110   1    117.2630    334.7200
    105    104    110   1    120.0000    292.8800
    104    105    111   1    120.0000    292.8800
    104    105    114   1    123.2050    502.0800
    111    105    114   1    117.2630    334.7200
    103    106    107   1    120.0000    527.1840
    103    106    112   1    120.0000    292.8800
    107    106    112   1    120.0000    292.8800
    100    107    106   1    120.0000    527.1840
    100    107    113   1    120.0000    292.8800
    106    107    113   1    120.0000    292.8800
    105    114    115   1    120.9350    502.0800
    105    114    121   1    120.9350    502.0800
    115    114    121   1    120.0000    527.1840
    114    115    116   1    120.0000    527.1840
    114    115    122   1    120.0000    292.8800
    116    115    122   1    120.0000    292.8800
    115    116    117   1    120.0000    527.1840
    115    116    123   1    120.0000    292.8800
    117    116    123   1    120.0000    292.8800
    116    117    118   1    120.9350    502.0800
    116    117    120   1    120.0000    527.1840
    118    117    120   1    120.9350    502.0800
    117    118    119   1    123.2050    502.0800
    117    118    124   1    117.2630    334.7200
    119    118    124   1    120.0000    292.8800
    118    119    125   1    120.0000    292.8800
    118    119    128   1    123.2050    502.0800
    125    119    128   1    117.2630    334.7200
    117    120    121   1    120.0000    527.1840
    117    120    126   1    120.0000    292.8800
    121    120    126   1    120.0000    292.8800
    114    121    120   1    120.0000    527.1840
    114    121    127   1    120.0000    292.8800
    120    121    127   1    120.0000    292.8800
    119    128    129   1    120.9350    502.0800
    119    128    135   1    120.9350    502.0800
    129    128    135   1    120.0000    527.1840
    128    129    130   1    120.0000    527.1840
    128    129    136   1    120.0000    292.8800
    130    129    136   1    120.0000    292.8800
    129    130    131   1    120.0000    527.1840
    129    130    137   1    120.0000    292.8800
    131    130    137   1    120.0000    292.8800
    130    131    132   1    120.9350    502.0800
    130    131    134   1    120.0000    527.1840
    132    131    134   1    120.9350    502.0800
    131    132    133   1    123.2050    502.0800
    131    132    138   1    117.2630    334.7200
    133    132    138   1    120.0000    292.8800
    132    133    139   1    120.0000    292.8800
    132    133    142   1    123.2050    502.0800
    139    133    142   1    117.2630    334.7200
    131    134    135   1    120.0000    527.1840
    131    134    140   1    120.0000    292.8800
    135    134    140   1    120.0000    292.8800
    128    135    134   1    120.0000    527.1840
    128    135    141   1    120.0000    292.8800
    134    135    141   1    120.0000    292.8800
    133    142    143   1    120.9350    502.0800
    133    142    149   1    120.9350    502.0800
    143    142    149   1    120.0000    527.1840
    142    143    144   1    120.0000    527.1840
    142    143    150   1    120.0000    292.8800
    144    143    150   1    120.0000    292.8800
    143    144    145   1    120.0000    527.1840
    143    144    151   1    120.0000    292.8800
    145    144    151   1    120.0000    292.8800
    144    145    146   1    120.9350    502.0800
    144    145    148   1    120.0000    527.1840
    146    145    148   1    120.9350    502.0800
    145    146    147   1    123.2050    502.0800
    145    146    152   1    117.2630    334.7200
    147    146    152   1    120.0000    292.8800
    146    147    153   1    120.0000    292.8800
    146    147    156   1    123.2050    502.0800
    153    147    156   1    117.2630    334.7200
    145    148    149   1    120.0000    527.1840
    145    148    154   1    120.0000    292.8800
    149    148    154   1    120.0000    292.8800
    142    149    148   1    120.0000    527.1840
    142    149    155   1    120.0000    292.8800
    148    149    155   1    120.0000    292.8800
    147    156    157   1    120.9350    502.0800
    147    156    163   1    120.9350    502.0800
    157    156    163   1    120.0000    527.1840
    156    157    158   1    120.0000    527.1840
    156    157    164   1    120.0000    292.8800
    158    157    164   1    120.0000    292.8800
    157    158    159   1    120.0000    527.1840
    157    158    165   1    120.0000    292.8800
    159    158    165   1    120.0000    292.8800
    158    159    160   1    120.9350    502.0800
    158    159    162   1    120.0000    527.1840
    160    159    162   1    120.9350    502.0800
    159    160    161   1    123.2050    502.0800
    159    160    166   1    117.2630    334.7200
    161    160    166   1    120.0000    292.8800
    160    161    167   1    120.0000    292.8800
    160    161    170   1    123.2050    502.0800
    167    161    170   1    117.2630    334.7200
    159    162    163   1    120.0000    527.1840
    159    162    168   1    120.0000    292.8800
    163    162    168   1    120.0000    292.8800
    156    163    162   1    120.0000    527.1840
    156    163    169   1    120.0000    292.8800
    162    163    169   1    120.0000    292.8800
    161    170    171   1    120.9350    502.0800
    161    170    177   1    120.9350    502.0800
    171    170    177   1    120.0000    527.1840
    170    171    172   1    120.0000    527.1840
    170    171    178   1    120.0000    292.8800
    172    171    178   1    120.0000    292.8800
    171    172    173   1    120.0000    527.1840
    171    172    179   1    120.0000    292.8800
    173    172    179   1    120.0000    292.8800
    172    173    174   1    120.9350    502.0800
    172    173    176   1    120.0000    527.1840
    174    173    176   1    120.9350    502.0800
    173    174    175   1    123.2050    502.0800
    173    174    180   1    117.2630    334.7200
    175    174    180   1    120.0000    292.8800
    174    175    181   1    120.0000    292.8800
    174    175    184   1    123.2050    502.0800
    181    175    184   1    117.2630    334.7200
    173    176    177   1    120.0000    527.1840
    173    176    182   1    120.0000    292.8800
    177    176    182   1    120.0000    292.8800
    170    177    176   1    120.0000    527.1840
    170    177    183   1    120.0000    292.8800
    176    177    183   1    120.0000    292.8800
    175    184    185   1    120.9350    502.0800
    175    184    191   1    120.9350    502.0800
    185    184    191   1    120.0000    527.1840
    184    185    186   1    120.0000    527.1840
    184    185    192   1    120.0000    292.8800
    186    185    192   1    120.0000    292.8800
    185    186    187   1    120.0000    527.1840
    185    186    193   1    120.0000    292.8800
    187    186    193   1    120.0000    292.8800
    186    187    188   1    120.9350    502.0800
    186    187    190   1    120.0000    527.1840
    188    187    190   1    120.9350    502.0800
    187    188    189   1    123.2050    502.0800
    187    188    194   1    117.2630    334.7200
    189    188    194   1    120.0000    292.8800
    188    189    195   1    120.0000    292.8800
    188    189    198   1    123.2050    502.0800
    195    189    198   1    117.2630    334.7200
    187    190    191   1    120.0000    527.1840
    187    190    196   1    120.0000    292.8800
    191    190    196   1    120.0000    292.8800
    184    191    190   1    120.0000    527.1840
    184    191    197   1    120.0000    292.8800
    190    191    197   1    120.0000    292.8800
    189    198    199   1    120.9350    502.0800
    189    198    205   1    120.9350    502.0800
    199    198    205   1    120.0000    527.1840
    198    199    200   1    120.0000    527.1840
    198    199    206   1    120.0000    292.8800
    200    199    206   1    120.0000    292.8800
    199    200    201   1    120.0000    527.1840
    199    200    207   1    120.0000    292.8800
    201    200    207   1    120.0000    292.8800
    200    201    202   1    120.9350    502.0800
    200    201    204   1    120.0000    527.1840
    202    201    204   1    120.9350    502.0800
    201    202    203   1    123.2050    502.0800
    201    202    208   1    117.2630    334.7200
    203    202    208   1    120.0000    292.8800
    202    203    209   1    120.0000    292.8800
    202    203    212   1    123.2050    502.0800
    209    203    212   1    117.2630    334.7200
    201    204    205   1    120.0000    527.1840
    201    204    210   1    120.0000    292.8800
    205    204    210   1    120.0000    292.8800
    198    205    204   1    120.0000    527.1840
    198    205    211   1    120.0000    292.8800
    204    205    211   1    120.0000    292.8800
    203    212    213   1    120.9350    502.0800
    203    212    219   1    120.9350    502.0800
    213    212    219   1    120.0000    527.1840
    212    213    214   1    120.0000    527.1840
    212    213    220   1    120.0000    292.8800
    214    213    220   1    120.0000    292.8800
    213    214    215   1    120.0000    527.1840
    213    214    221   1    120.0000    292.8800
    215    214    221   1    120.0000    292.8800
    214    215    216   1    120.9350    502.0800
    214    215    218   1    120.0000    527.1840
    216    215    218   1    120.9350    502.0800
    215    216    217   1    123.2050    502.0800
    215    216    222   1    117.2630    334.7200
    217    216    222   1    120.0000    292.8800
    216    217    223   1    120.0000    292.8800
    216    217    226   1    123.2050    502.0800
    223    217    226   1    117.2630    334.7200
    215    218    219   1    120.0000    527.1840
    215    218    224   1    120.0000    292.8800
    219    218    224   1    120.0000    292.8800
    212    219    218   1    120.0000    527.1840
    212    219    225   1    120.0000    292.8800
    218    219    225   1    120.0000    292.8800
    217    226    227   1    120.9350    502.0800
    217    226    233   1    120.9350    502.0800
    227    226    233   1    120.0000    527.1840
    226    227    228   1    120.0000    527.1840
    226    227    234   1    120.0000    292.8800
    228    227    234   1    120.0000    292.8800
    227    228    229   1    120.0000    527.1840
    227    228    235   1    120.0000    292.8800
    229    228    235   1    120.0000    292.8800
    228    229    230   1    120.9350    502.0800
    228    229    232   1    120.0000    527.1840
    230    229    232   1    120.9350    502.0800
    229    230    231   1    123.2050    502.0800
    229    230    236   1    117.2630    334.7200
    231    230    236   1    120.0000    292.8800
    230    231    237   1    120.0000    292.8800
    230    231    240   1    123.2050    502.0800
    237    231    240   1    117.2630    334.7200
    229    232    233   1    120.0000    527.1840
    229    232    238   1    120.0000    292.8800
    233    232    238   1    120.0000    292.8800
    226    233    232   1    120.0000    527.1840
    226    233    239   1    120.0000    292.8800
    232    233    239   1    120.0000    292.8800
    231    240    241   1    120.9350    502.0800
    231    240    247   1    120.9350    502.0800
    241    240    247   1    120.0000    527.1840
    240    241    242   1    120.0000    527.1840
    240    241    248   1    120.0000    292.8800
    242    241    248   1    120.0000    292.8800
    241    242    243   1    120.0000    527.1840
    241    242    249   1    120.0000    292.8800
    243    242    249   1    120.0000    292.8800
    242    243    244   1    120.9350    502.0800
    242    243    246   1    120.0000    527.1840
    244    243    246   1    120.9350    502.0800
    243    244    245   1    123.2050    502.0800
    243    244    250   1    117.2630    334.7200
    245    244    250   1    120.0000    292.8800
    244    245    251   1    120.0000    292.8800
    244    245    254   1    123.2050    502.0800
    251    245    254   1    117.2630    334.7200
    243    246    247   1    120.0000    527.1840
    243    246    252   1    120.0000    292.8800
    247    246    252   1    120.0000    292.8800
    240    247    246   1    120.0000    527.1840
    240    247    253   1    120.0000    292.8800
    246    247    253   1    120.0000    292.8800
    245    254    255   1    120.9350    502.0800
    245    254    261   1    120.9350    502.0800
    255    254    261   1    120.0000    527.1840
    254    255    256   1    120.0000    527.1840
    254    255    262   1    120.0000    292.8800
    256    255    262   1    120.0000    292.8800
    255    256    257   1    120.0000    527.1840
    255    256    263   1    120.0000    292.8800
    257    256    263   1    120.0000    292.8800
    256    257    258   1    120.9350    502.0800
    256    257    260   1    120.0000    527.1840
    258    257    260   1    120.9350    502.0800
    257    258    259   1    123.2050    502.0800
    257    258    264   1    117.2630    334.7200
    259    258    264   1    120.0000    292.8800
    258    259    265   1    120.0000    292.8800
    258    259    268   1    123.2050    502.0800
    265    259    268   1    117.2630    334.7200
    257    260    261   1    120.0000    527.1840
    257    260    266   1    120.0000    292.8800
    261    260    266   1    120.0000    292.8800
    254    261    260   1    120.0000    527.1840
    254    261    267   1    120.0000    292.8800
    260    261    267   1    120.0000    292.8800
    259    268    269   1    120.9350    502.0800
    259    268    275   1    120.9350    502.0800
    269    268    275   1    120.0000    527.1840
    268    269    270   1    120.0000    527.1840
    268    269    276   1    120.0000    292.8800
    270    269    276   1    120.0000    292.8800
    269    270    271   1    120.0000    527.1840
    269    270    277   1    120.0000    292.8800
    271    270    277   1    120.0000    292.8800
    270    271    272   1    120.9350    502.0800
    270    271    274   1    120.0000    527.1840
    272    271    274   1    120.9350    502.0800
    271    272    273   1    123.2050    502.0800
    271    272    278   1    117.2630    334.7200
    273    272    278   1    120.0000    292.8800
    272    273    279   1    120.0000    292.8800
    272    273    282   1    120.0000    292.8800
    279    273    282   1    117.0000    292.8800
    271    274    275   1    120.0000    527.1840
    271    274    280   1    120.0000    292.8800
    275    274    280   1    120.0000    292.8800
    268    275    274   1    120.0000    527.1840
    268    275    281   1    120.0000    292.8800
    274    275    281   1    120.0000    292.8800

[ dihedrals ]
; Proper dihedrals
      8      1      2      3   5     0.00000    30.33400     0.00000  0.0
      8      1      2      9   5     0.00000    30.33400     0.00000  0.0
     15      1      2      3   5     0.00000    30.33400     0.00000  0.0
     15      1      2      9   5     0.00000    30.33400     0.00000  0.0
      2      1      8      7   5     0.00000    30.33400     0.00000  0.0
      2      1      8     14   5     0.00000    30.33400     0.00000  0.0
     15      1      8      7   5     0.00000    30.33400     0.00000  0.0
     15      1      8     14   5     0.00000    30.33400     0.00000  0.0
      1      2      3      4   5     0.00000    30.33400     0.00000  0.0
      1      2      3     10   5     0.00000    30.33400     0.00000  0.0
      9      2      3      4   5     0.00000    30.33400     0.00000  0.0
      9      2      3     10   5     0.00000    30.33400     0.00000  0.0
      2      3      4      5   5     0.00000    30.33400     0.00000  0.0
      2      3      4      7   5     0.00000    30.33400     0.00000  0.0
     10      3      4      5   5     0.00000    30.33400     0.00000  0.0
     10      3      4      7   5     0.00000    30.33400     0.00000  0.0
      3      4      5      6   5     1.32214    15.51009    -4.07522  0.0
      3      4      5     11   5     0.00000     0.00000     4.73210  0.0
      7      4      5      6   5     1.32214    15.51009    -4.07522  0.0
      7      4      5     11   5     0.00000     0.00000     4.73210  0.0
      3      4      7      8   5     0.00000    30.33400     0.00000  0.0
      3      4      7     13   5     0.00000    30.33400     0.00000  0.0
      5      4      7      8   5     0.00000    30.33400     0.00000  0.0
      5      4      7     13   5     0.00000    30.33400     0.00000  0.0
      4      5      6     12   5     0.00000    58.57600     0.00000  0.0
      4      5      6     16   5     0.00000    58.57600     0.00000  0.0
     11      5      6     12   5     0.00000    58.57600     0.00000  0.0
     11      5      6     16   5     0.00000    58.57600     0.00000  0.0
      5      6     16     17   5     1.32214    15.51009    -4.07522  0.0
      5      6     16     23   5     1.32214    15.51009    -4.07522  0.0
     12      6     16     17   5     0.00000     0.00000     4.73210  0.0
     12      6     16     23   5     0.00000     0.00000     4.73210  0.0
      4      7      8      1   5     0.00000    30.33400     0.00000  0.0
      4      7      8     14   5     0.00000    30.33400     0.00000  0.0
     13      7      8      1   5     0.00000    30.33400     0.00000  0.0
     13      7      8     14   5     0.00000    30.33400     0.00000  0.0
      6     16     17     18   5     0.00000    30.33400     0.00000  0.0
      6     16     17     24   5     0.00000    30.33400     0.00000  0.0
     23     16     17     18   5     0.00000    30.33400     0.00000  0.0
     23     16     17     24   5     0.00000    30.33400     0.00000  0.0
      6     16     23     22   5     0.00000    30.33400     0.00000  0.0
      6     16     23     29   5     0.00000    30.33400     0.00000  0.0
     17     16     23     22   5     0.00000    30.33400     0.00000  0.0
     17     16     23     29   5     0.00000    30.33400     0.00000  0.0
     16     17     18     19   5     0.00000    30.33400     0.00000  0.0
     16     17     18     25   5     0.00000    30.33400     0.00000  0.0
     24     17     18     19   5     0.00000    30.33400     0.00000  0.0
     24     17     18     25   5     0.00000    30.33400     0.00000  0.0
     17     18     19     20   5     0.00000    30.33400     0.00000  0.0
     17     18     19     22   5     0.00000    30.33400     0.00000  0.0
     25     18     19     20   5     0.00000    30.33400     0.00000  0.0
     25     18     19     22   5     0.00000    30.33400     0.00000  0.0
     18     19     20     21   5     1.32214    15.51009    -4.07522  0.0
     18     19     20     26   5     0.00000     0.00000     4.73210  0.0
     22     19     20     21   5     1.32214    15.51009    -4.07522  0.0
     22     19     20     26   5     0.00000     0.00000     4.73210  0.0
     18     19     22     23   5     0.00000    30.33400     0.00000  0.0
     18     19     22     28   5     0.00000    30.33400     0.00000  0.0
     20     19     22     23   5     0.00000    30.33400     0.00000  0.0
     20     19     22     28   5     0.00000    30.33400     0.00000  0.0
     19     20     21     27   5     0.00000    58.57600     0.00000  0.0
     19     20     21     30   5     0.00000    58.57600     0.00000  0.0
     26     20     21     27   5     0.00000    58.57600     0.00000  0.0
     26     20     21     30   5     0.00000    58.57600     0.00000  0.0
     20     21     30     31   5     1.32214    15.51009    -4.07522  0.0
     20     21     30     37   5     1.32214    15.51009    -4.07522  0.0
     27     21     30     31   5     0.00000     0.00000     4.73210  0.0
     27     21     30     37   5     0.00000     0.00000     4.73210  0.0
     19     22     23     16   5     0.00000    30.33400     0.00000  0.0
     19     22     23     29   5     0.00000    30.33400     0.00000  0.0
     28     22     23     16   5     0.00000    30.33400     0.00000  0.0
     28     22     23     29   5     0.00000    30.33400     0.00000  0.0
     21     30     31     32   5     0.00000    30.33400     0.00000  0.0
     21     30     31     38   5     0.00000    30.33400     0.00000  0.0
     37     30     31     32   5     0.00000    30.33400     0.00000  0.0
     37     30     31     38   5     0.00000    30.33400     0.00000  0.0
     21     30     37     36   5     0.00000    30.33400     0.00000  0.0
     21     30     37     43   5     0.00000    30.33400     0.00000  0.0
     31     30     37     36   5     0.00000    30.33400     0.00000  0.0
     31     30     37     43   5     0.00000    30.33400     0.00000  0.0
     30     31     32     33   5     0.00000    30.33400     0.00000  0.0
     30     31     32     39   5     0.00000    30.33400     0.00000  0.0
     38     31     32     33   5     0.00000    30.33400     0.00000  0.0
     38     31     32     39   5     0.00000    30.33400     0.00000  0.0
     31     32     33     34   5     0.00000    30.33400     0.00000  0.0
     31     32     33     36   5     0.00000    30.33400     0.00000  0.0
     39     32     33     34   5     0.00000    30.33400     0.00000  0.0
     39     32     33     36   5     0.00000    30.33400     0.00000  0.0
     32     33     34     35   5     1.32214    15.51009    -4.07522  0.0
     32     33     34     40   5     0.00000     0.00000     4.73210  0.0
     36     33     34     35   5     1.32214    15.51009    -4.07522  0.0
     36     33     34     40   5     0.00000     0.00000     4.73210  0.0
     32     33     36     37   5     0.00000    30.33400     0.00000  0.0
     32     33     36     42   5     0.00000    30.33400     0.00000  0.0
     34     33     36     37   5     0.00000    30.33400     0.00000  0.0
     34     33     36     42   5     0.00000    30.33400     0.00000  0.0
     33     34     35     41   5     0.00000    58.57600     0.00000  0.0
     33     34     35     44   5     0.00000    58.57600     0.00000  0.0
     40     34     35     41   5     0.00000    58.57600     0.00000  0.0
     40     34     35     44   5     0.00000    58.57600     0.00000  0.0
     34     35     44     45   5     1.32214    15.51009    -4.07522  0.0
     34     35     44     51   5     1.32214    15.51009    -4.07522  0.0
     41     35     44     45   5     0.00000     0.00000     4.73210  0.0
     41     35     44     51   5     0.00000     0.00000     4.73210  0.0
     33     36     37     30   5     0.00000    30.33400     0.00000  0.0
     33     36     37     43   5     0.00000    30.33400     0.00000  0.0
     42     36     37     30   5     0.00000    30.33400     0.00000  0.0
     42     36     37     43   5     0.00000    30.33400     0.00000  0.0
     35     44     45     46   5     0.00000    30.33400     0.00000  0.0
     35     44     45     52   5     0.00000    30.33400     0.00000  0.0
     51     44     45     46   5     0.00000    30.33400     0.00000  0.0
     51     44     45     52   5     0.00000    30.33400     0.00000  0.0
     35     44     51     50   5     0.00000    30.33400     0.00000  0.0
     35     44     51     57   5     0.00000    30.33400     0.00000  0.0
     45     44     51     50   5     0.00000    30.33400     0.00000  0.0
     45     44     51     57   5     0.00000    30.33400     0.00000  0.0
     44     45     46     47   5     0.00000    30.33400     0.00000  0.0
     44     45     46     53   5     0.00000    30.33400     0.00000  0.0
     52     45     46     47   5     0.00000    30.33400     0.00000  0.0
     52     45     46     53   5     0.00000    30.33400     0.00000  0.0
     45     46     47     48   5     0.00000    30.33400     0.00000  0.0
     45     46     47     50   5     0.00000    30.33400     0.00000  0.0
     53     46     47     48   5     0.00000    30.33400     0.00000  0.0
     53     46     47     50   5     0.00000    30.33400     0.00000  0.0
     46     47     48     49   5     1.32214    15.51009    -4.07522  0.0
     46     47     48     54   5     0.00000     0.00000     4.73210  0.0
     50     47     48     49   5     1.32214    15.51009    -4.07522  0.0
     50     47     48     54   5     0.00000     0.00000     4.73210  0.0
     46     47     50     51   5     0.00000    30.33400     0.00000  0.0
     46     47     50     56   5     0.00000    30.33400     0.00000  0.0
     48     47     50     51   5     0.00000    30.33400     0.00000  0.0
     48     47     50     56   5     0.00000    30.33400     0.00000  0.0
     47     48     49     55   5     0.00000    58.57600     0.00000  0.0
     47     48     49     58   5     0.00000    58.57600     0.00000  0.0
     54     48     49     55   5     0.00000    58.57600     0.00000  0.0
     54     48     49     58   5     0.00000    58.57600     0.00000  0.0
     48     49     58     59   5     1.32214    15.51009    -4.07522  0.0
     48     49     58     65   5     1.32214    15.51009    -4.07522  0.0
     55     49     58     59   5     0.00000     0.00000     4.73210  0.0
     55     49     58     65   5     0.00000     0.00000     4.73210  0.0
     47     50     51     44   5     0.00000    30.33400     0.00000  0.0
     47     50     51     57   5     0.00000    30.33400     0.00000  0.0
     56     50     51     44   5     0.00000    30.33400     0.00000  0.0
     56     50     51     57   5     0.00000    30.33400     0.00000  0.0
     49     58     59     60   5     0.00000    30.33400     0.00000  0.0
     49     58     59     66   5     0.00000    30.33400     0.00000  0.0
     65     58     59     60   5     0.00000    30.33400     0.00000  0.0
     65     58     59     66   5     0.00000    30.33400     0.00000  0.0
     49     58     65     64   5     0.00000    30.33400     0.00000  0.0
     49     58     65     71   5     0.00000    30.33400     0.00000  0.0
     59     58     65     64   5     0.00000    30.33400     0.00000  0.0
     59     58     65     71   5     0.00000    30.33400     0.00000  0.0
     58     59     60     61   5     0.00000    30.33400     0.00000  0.0
     58     59     60     67   5     0.00000    30.33400     0.00000  0.0
     66     59     60     61   5     0.00000    30.33400     0.00000  0.0
     66     59     60     67   5     0.00000    30.33400     0.00000  0.0
     59     60     61     62   5     0.00000    30.33400     0.00000  0.0
     59     60     61     64   5     0.00000    30.33400     0.00000  0.0
     67     60     61     62   5     0.00000    30.33400     0.00000  0.0
     67     60     61     64   5     0.00000    30.33400     0.00000  0.0
     60     61     62     63   5     1.32214    15.51009    -4.07522  0.0
     60     61     62     68   5     0.00000     0.00000     4.73210  0.0
     64     61     62     63   5     1.32214    15.51009    -4.07522  0.0
     64     61     62     68   5     0.00000     0.00000     4.73210  0.0
     60     61     64     65   5     0.00000    30.33400     0.00000  0.0
     60     61     64     70   5     0.00000    30.33400     0.00000  0.0
     62     61     64     65   5     0.00000    30.33400     0.00000  0.0
     62     61     64     70   5     0.00000    30.33400     0.00000  0.0
     61     62     63     69   5     0.00000    58.57600     0.00000  0.0
     61     62     63     72   5     0.00000    58.57600     0.00000  0.0
     68     62     63     69   5     0.00000    58.57600     0.00000  0.0
     68     62     63     72   5     0.00000    58.57600     0.00000  0.0
     62     63     72     73   5     1.32214    15.51009    -4.07522  0.0
     62     63     72     79   5     1.32214    15.51009    -4.07522  0.0
     69     63     72     73   5     0.00000     0.00000     4.73210  0.0
     69     63     72     79   5     0.00000     0.00000     4.73210  0.0
     61     64     65     58   5     0.00000    30.33400     0.00000  0.0
     61     64     65     71   5     0.00000    30.33400     0.00000  0.0
     70     64     65     58   5     0.00000    30.33400     0.00000  0.0
     70     64     65     71   5     0.00000    30.33400     0.00000  0.0
     63     72     73     74   5     0.00000    30.33400     0.00000  0.0
     63     72     73     80   5     0.00000    30.33400     0.00000  0.0
     79     72     73     74   5     0.00000    30.33400     0.00000  0.0
     79     72     73     80   5     0.00000    30.33400     0.00000  0.0
     63     72     79     78   5     0.00000    30.33400     0.00000  0.0
     63     72     79     85   5     0.00000    30.33400     0.00000  0.0
     73     72     79     78   5     0.00000    30.33400     0.00000  0.0
     73     72     79     85   5     0.00000    30.33400     0.00000  0.0
     72     73     74     75   5     0.00000    30.33400     0.00000  0.0
     72     73     74     81   5     0.00000    30.33400     0.00000  0.0
     80     73     74     75   5     0.00000    30.33400     0.00000  0.0
     80     73     74     81   5     0.00000    30.33400     0.00000  0.0
     73     74     75     76   5     0.00000    30.33400     0.00000  0.0
     73     74     75     78   5     0.00000    30.33400     0.00000  0.0
     81     74     75     76   5     0.00000    30.33400     0.00000  0.0
     81     74     75     78   5     0.00000    30.33400     0.00000  0.0
     74     75     76     77   5     1.32214    15.51009    -4.07522  0.0
     74     75     76     82   5     0.00000     0.00000     4.73210  0.0
     78     75     76     77   5     1.32214    15.51009    -4.07522  0.0
     78     75     76     82   5     0.00000     0.00000     4.73210  0.0
     74     75     78     79   5     0.00000    30.33400     0.00000  0.0
     74     75     78     84   5     0.00000    30.33400     0.00000  0.0
     76     75     78     79   5     0.00000    30.33400     0.00000  0.0
     76     75     78     84   5     0.00000    30.33400     0.00000  0.0
     75     76     77     83   5     0.00000    58.57600     0.00000  0.0
     75     76     77     86   5     0.00000    58.57600     0.00000  0.0
     82     76     77     83   5     0.00000    58.57600     0.00000  0.0
     82     76     77     86   5     0.00000    58.57600     0.00000  0.0
     76     77     86     87   5     1.32214    15.51009    -4.07522  0.0
     76     77     86     93   5     1.32214    15.51009    -4.07522  0.0
     83     77     86     87   5     0.00000     0.00000     4.73210  0.0
     83     77     86     93   5     0.00000     0.00000     4.73210  0.0
     75     78     79     72   5     0.00000    30.33400     0.00000  0.0
     75     78     79     85   5     0.00000    30.33400     0.00000  0.0
     84     78     79     72   5     0.00000    30.33400     0.00000  0.0
     84     78     79     85   5     0.00000    30.33400     0.00000  0.0
     77     86     87     88   5     0.00000    30.33400     0.00000  0.0
     77     86     87     94   5     0.00000    30.33400     0.00000  0.0
     93     86     87     88   5     0.00000    30.33400     0.00000  0.0
     93     86     87     94   5     0.00000    30.33400     0.00000  0.0
     77     86     93     92   5     0.00000    30.33400     0.00000  0.0
     77     86     93     99   5     0.00000    30.33400     0.00000  0.0
     87     86     93     92   5     0.00000    30.33400     0.00000  0.0
     87     86     93     99   5     0.00000    30.33400     0.00000  0.0
     86     87     88     89   5     0.00000    30.33400     0.00000  0.0
     86     87     88     95   5     0.00000    30.33400     0.00000  0.0
     94     87     88     89   5     0.00000    30.33400     0.00000  0.0
     94     87     88     95   5     0.00000    30.33400     0.00000  0.0
     87     88     89     90   5     0.00000    30.33400     0.00000  0.0
     87     88     89     92   5     0.00000    30.33400     0.00000  0.0
     95     88     89     90   5     0.00000    30.33400     0.00000  0.0
     95     88     89     92   5     0.00000    30.33400     0.00000  0.0
     88     89     90     91   5     1.32214    15.51009    -4.07522  0.0
     88     89     90     96   5     0.00000     0.00000     4.73210  0.0
     92     89     90     91   5     1.32214    15.51009    -4.07522  0.0
     92     89     90     96   5     0.00000     0.00000     4.73210  0.0
     88     89     92     93   5     0.00000    30.33400     0.00000  0.0
     88     89     92     98   5     0.00000    30.33400     0.00000  0.0
     90     89     92     93   5     0.00000    30.33400     0.00000  0.0
     90     89     92     98   5     0.00000    30.33400     0.00000  0.0
     89     90     91     97   5     0.00000    58.57600     0.00000  0.0
     89     90     91    100   5     0.00000    58.57600     0.00000  0.0
     96     90     91     97   5     0.00000    58.57600     0.00000  0.0
     96     90     91    100   5     0.00000    58.57600     0.00000  0.0
     90     91    100    101   5     1.32214    15.51009    -4.07522  0.0
     90     91    100    107   5     1.32214    15.51009    -4.07522  0.0
     97     91    100    101   5     0.00000     0.00000     4.73210  0.0
     97     91    100    107   5     0.00000     0.00000     4.73210  0.0
     89     92     93     86   5     0.00000    30.33400     0.00000  0.0
     89     92     93     99   5     0.00000    30.33400     0.00000  0.0
     98     92     93     86   5     0.00000    30.33400     0.00000  0.0
     98     92     93     99   5     0.00000    30.33400     0.00000  0.0
     91    100    101    102   5     0.00000    30.33400     0.00000  0.0
     91    100    101    108   5     0.00000    30.33400     0.00000  0.0
    107    100    101    102   5     0.00000    30.33400     0.00000  0.0
    107    100    101    108   5     0.00000    30.33400     0.00000  0.0
     91    100    107    106   5     0.00000    30.33400     0.00000  0.0
     91    100    107    113   5     0.00000    30.33400     0.00000  0.0
    101    100    107    106   5     0.00000    30.33400     0.00000  0.0
    101    100    107    113   5     0.00000    30.33400     0.00000  0.0
    100    101    102    103   5     0.00000    30.33400     0.00000  0.0
    100    101    102    109   5     0.00000    30.33400     0.00000  0.0
    108    101    102    103   5     0.00000    30.33400     0.00000  0.0
    108    101    102    109   5     0.00000    30.33400     0.00000  0.0
    101    102    103    104   5     0.00000    30.33400     0.00000  0.0
    101    102    103    106   5     0.00000    30.33400     0.00000  0.0
    109    102    103    104   5     0.00000    30.33400     0.00000  0.0
    109    102    103    106   5     0.00000    30.33400     0.00000  0.0
    102    103    104    105   5     1.32214    15.51009    -4.07522  0.0
    102    103    104    110   5     0.00000     0.00000     4.73210  0.0
    106    103    104    105   5     1.32214    15.51009    -4.07522  0.0
    106    103    104    110   5     0.00000     0.00000     4.73210  0.0
    102    103    106    107   5     0.00000    30.33400     0.00000  0.0
    102    103    106    112   5     0.00000    30.33400     0.00000  0.0
    104    103    106    107   5     0.00000    30.33400     0.00000  0.0
    104    103    106    112   5     0.00000    30.33400     0.00000  0.0
    103    104    105    111   5     0.00000    58.57600     0.00000  0.0
    103    104    105    114   5     0.00000    58.57600     0.00000  0.0
    110    104    105    111   5     0.00000    58.57600     0.00000  0.0
    110    104    105    114   5     0.00000    58.57600     0.00000  0.0
    104    105    114    115   5     1.32214    15.51009    -4.07522  0.0
    104    105    114    121   5     1.32214    15.51009    -4.07522  0.0
    111    105    114    115   5     0.00000     0.00000     4.73210  0.0
    111    105    114    121   5     0.00000     0.00000     4.73210  0.0
    103    106    107    100   5     0.00000    30.33400     0.00000  0.0
    103    106    107    113   5     0.00000    30.33400     0.00000  0.0
    112    106    107    100   5     0.00000    30.33400     0.00000  0.0
    112    106    107    113   5     0.00000    30.33400     0.00000  0.0
    105    114    115    116   5     0.00000    30.33400     0.00000  0.0
    105    114    115    122   5     0.00000    30.33400     0.00000  0.0
    121    114    115    116   5     0.00000    30.33400     0.00000  0.0
    121    114    115    122   5     0.00000    30.33400     0.00000  0.0
    105    114    121    120   5     0.00000    30.33400     0.00000  0.0
    105    114    121    127   5     0.00000    30.33400     0.00000  0.0
    115    114    121    120   5     0.00000    30.33400     0.00000  0.0
    115    114    121    127   5     0.00000    30.33400     0.00000  0.0
    114    115    116    117   5     0.00000    30.33400     0.00000  0.0
    114    115    116    123   5     0.00000    30.33400     0.00000  0.0
    122    115    116    117   5     0.00000    30.33400     0.00000  0.0
    122    115    116    123   5     0.00000    30.33400     0.00000  0.0
    115    116    117    118   5     0.00000    30.33400     0.00000  0.0
    115    116    117    120   5     0.00000    30.33400     0.00000  0.0
    123    116    117    118   5     0.00000    30.33400     0.00000  0.0
    123    116    117    120   5     0.00000    30.33400     0.00000  0.0
    116    117    118    119   5     1.32214    15.51009    -4.07522  0.0
    116    117    118    124   5     0.00000     0.00000     4.73210  0.0
    120    117    118    119   5     1.32214    15.51009    -4.07522  0.0
    120    117    118    124   5     0.00000     0.00000     4.73210  0.0
    116    117    120    121   5     0.00000    30.33400     0.00000  0.0
    116    117    120    126   5     0.00000    30.33400     0.00000  0.0
    118    117    120    121   5     0.00000    30.33400     0.00000  0.0
    118    117    120    126   5     0.00000    30.33400     0.00000  0.0
    117    118    119    125   5     0.00000    58.57600     0.00000  0.0
    117    118    119    128   5     0.00000    58.57600     0.00000  0.0
    124    118    119    125   5     0.00000    58.57600     0.00000  0.0
    124    118    119    128   5     0.00000    58.57600     0.00000  0.0
    118    119    128    129   5     1.32214    15.51009    -4.07522  0.0
    118    119    128    135   5     1.32214    15.51009    -4.07522  0.0
    125    119    128    129   5     0.00000     0.00000     4.73210  0.0
    125    119    128    135   5     0.00000     0.00000     4.73210  0.0
    117    120    121    114   5     0.00000    30.33400     0.00000  0.0
    117    120    121    127   5     0.00000    30.33400     0.00000  0.0
    126    120    121    114   5     0.00000    30.33400     0.00000  0.0
    126    120    121    127   5     0.00000    30.33400     0.00000  0.0
    119    128    129    130   5     0.00000    30.33400     0.00000  0.0
    119    128    129    136   5     0.00000    30.33400     0.00000  0.0
    135    128    129    130   5     0.00000    30.33400     0.00000  0.0
    135    128    129    136   5     0.00000    30.33400     0.00000  0.0
    119    128    135    134   5     0.00000    30.33400     0.00000  0.0
    119    128    135    141   5     0.00000    30.33400     0.00000  0.0
    129    128    135    134   5     0.00000    30.33400     0.00000  0.0
    129    128    135    141   5     0.00000    30.33400     0.00000  0.0
    128    129    130    131   5     0.00000    30.33400     0.00000  0.0
    128    129    130    137   5     0.00000    30.33400     0.00000  0.0
    136    129    130    131   5     0.00000    30.33400     0.00000  0.0
    136    129    130    137   5     0.00000    30.33400     0.00000  0.0
    129    130    131    132   5     0.00000    30.33400     0.00000  0.0
    129    130    131    134   5     0.00000    30.33400     0.00000  0.0
    137    130    131    132   5     0.00000    30.33400     0.00000  0.0
    137    130    131    134   5     0.00000    30.33400     0.00000  0.0
    130    131    132    133   5     1.32214    15.51009    -4.07522  0.0
    130    131    132    138   5     0.00000     0.00000     4.73210  0.0
    134    131    132    133   5     1.32214    15.51009    -4.07522  0.0
    134    131    132    138   5     0.00000     0.00000     4.73210  0.0
    130    131    134    135   5     0.00000    30.33400     0.00000  0.0
    130    131    134    140   5     0.00000    30.33400     0.00000  0.0
    132    131    134    135   5     0.00000    30.33400     0.00000  0.0
    132    131    134    140   5     0.00000    30.33400     0.00000  0.0
    131    132    133    139   5     0.00000    58.57600     0.00000  0.0
    131    132    133    142   5     0.00000    58.57600     0.00000  0.0
    138    132    133    139   5     0.00000    58.57600     0.00000  0.0
    138    132    133    142   5     0.00000    58.57600     0.00000  0.0
    132    133    142    143   5     1.32214    15.51009    -4.07522  0.0
    132    133    142    149   5     1.32214    15.51009    -4.07522  0.0
    139    133    142    143   5     0.00000     0.00000     4.73210  0.0
    139    133    142    149   5     0.00000     0.00000     4.73210  0.0
    131    134    135    128   5     0.00000    30.33400     0.00000  0.0
    131    134    135    141   5     0.00000    30.33400     0.00000  0.0
    140    134    135    128   5     0.00000    30.33400     0.00000  0.0
    140    134    135    141   5     0.00000    30.33400     0.00000  0.0
    133    142    143    144   5     0.00000    30.33400     0.00000  0.0
    133    142    143    150   5     0.00000    30.33400     0.00000  0.0
    149    142    143    144   5     0.00000    30.33400     0.00000  0.0
    149    142    143    150   5     0.00000    30.33400     0.00000  0.0
    133    142    149    148   5     0.00000    30.33400     0.00000  0.0
    133    142    149    155   5     0.00000    30.33400     0.00000  0.0
    143    142    149    148   5     0.00000    30.33400     0.00000  0.0
    143    142    149    155   5     0.00000    30.33400     0.00000  0.0
    142    143    144    145   5     0.00000    30.33400     0.00000  0.0
    142    143    144    151   5     0.00000    30.33400     0.00000  0.0
    150    143    144    145   5     0.00000    30.33400     0.00000  0.0
    150    143    144    151   5     0.00000    30.33400     0.00000  0.0
    143    144    145    146   5     0.00000    30.33400     0.00000  0.0
    143    144    145    148   5     0.00000    30.33400     0.00000  0.0
    151    144    145    146   5     0.00000    30.33400     0.00000  0.0
    151    144    145    148   5     0.00000    30.33400     0.00000  0.0
    144    145    146    147   5     1.32214    15.51009    -4.07522  0.0
    144    145    146    152   5     0.00000     0.00000     4.73210  0.0
    148    145    146    147   5     1.32214    15.51009    -4.07522  0.0
    148    145    146    152   5     0.00000     0.00000     4.73210  0.0
    144    145    148    149   5     0.00000    30.33400     0.00000  0.0
    144    145    148    154   5     0.00000    30.33400     0.00000  0.0
    146    145    148    149   5     0.00000    30.33400     0.00000  0.0
    146    145    148    154   5     0.00000    30.33400     0.00000  0.0
    145    146    147    153   5     0.00000    58.57600     0.00000  0.0
    145    146    147    156   5     0.00000    58.57600     0.00000  0.0
    152    146    147    153   5     0.00000    58.57600     0.00000  0.0
    152    146    147    156   5     0.00000    58.57600     0.00000  0.0
    146    147    156    157   5     1.32214    15.51009    -4.07522  0.0
    146    147    156    163   5     1.32214    15.51009    -4.07522  0.0
    153    147    156    157   5     0.00000     0.00000     4.73210  0.0
    153    147    156    163   5     0.00000     0.00000     4.73210  0.0
    145    148    149    142   5     0.00000    30.33400     0.00000  0.0
    145    148    149    155   5     0.00000    30.33400     0.00000  0.0
    154    148    149    142   5     0.00000    30.33400     0.00000  0.0
    154    148    149    155   5     0.00000    30.33400     0.00000  0.0
    147    156    157    158   5     0.00000    30.33400     0.00000  0.0
    147    156    157    164   5     0.00000    30.33400     0.00000  0.0
    163    156    157    158   5     0.00000    30.33400     0.00000  0.0
    163    156    157    164   5     0.00000    30.33400     0.00000  0.0
    147    156    163    162   5     0.00000    30.33400     0.00000  0.0
    147    156    163    169   5     0.00000    30.33400     0.00000  0.0
    157    156    163    162   5     0.00000    30.33400     0.00000  0.0
    157    156    163    169   5     0.00000    30.33400     0.00000  0.0
    156    157    158    159   5     0.00000    30.33400     0.00000  0.0
    156    157    158    165   5     0.00000    30.33400     0.00000  0.0
    164    157    158    159   5     0.00000    30.33400     0.00000  0.0
    164    157    158    165   5     0.00000    30.33400     0.00000  0.0
    157    158    159    160   5     0.00000    30.33400     0.00000  0.0
    157    158    159    162   5     0.00000    30.33400     0.00000  0.0
    165    158    159    160   5     0.00000    30.33400     0.00000  0.0
    165    158    159    162   5     0.00000    30.33400     0.00000  0.0
    158    159    160    161   5     1.32214    15.51009    -4.07522  0.0
    158    159    160    166   5     0.00000     0.00000     4.73210  0.0
    162    159    160    161   5     1.32214    15.51009    -4.07522  0.0
    162    159    160    166   5     0.00000     0.00000     4.73210  0.0
    158    159    162    163   5     0.00000    30.33400     0.00000  0.0
    158    159    162    168   5     0.00000    30.33400     0.00000  0.0
    160    159    162    163   5     0.00000    30.33400     0.00000  0.0
    160    159    162    168   5     0.00000    30.33400     0.00000  0.0
    159    160    161    167   5     0.00000    58.57600     0.00000  0.0
    159    160    161    170   5     0.00000    58.57600     0.00000  0.0
    166    160    161    167   5     0.00000    58.57600     0.00000  0.0
    166    160    161    170   5     0.00000    58.57600     0.00000  0.0
    160    161    170    171   5     1.32214    15.51009    -4.07522  0.0
    160    161    170    177   5     1.32214    15.51009    -4.07522  0.0
    167    161    170    171   5     0.00000     0.00000     4.73210  0.0
    167    161    170    177   5     0.00000     0.00000     4.73210  0.0
    159    162    163    156   5     0.00000    30.33400     0.00000  0.0
    159    162    163    169   5     0.00000    30.33400     0.00000  0.0
    168    162    163    156   5     0.00000    30.33400     0.00000  0.0
    168    162    163    169   5     0.00000    30.33400     0.00000  0.0
    161    170    171    172   5     0.00000    30.33400     0.00000  0.0
    161    170    171    178   5     0.00000    30.33400     0.00000  0.0
    177    170    171    172   5     0.00000    30.33400     0.00000  0.0
    177    170    171    178   5     0.00000    30.33400     0.00000  0.0
    161    170    177    176   5     0.00000    30.33400     0.00000  0.0
    161    170    177    183   5     0.00000    30.33400     0.00000  0.0
    171    170    177    176   5     0.00000    30.33400     0.00000  0.0
    171    170    177    183   5     0.00000    30.33400     0.00000  0.0
    170    171    172    173   5     0.00000    30.33400     0.00000  0.0
    170    171    172    179   5     0.00000    30.33400     0.00000  0.0
    178    171    172    173   5     0.00000    30.33400     0.00000  0.0
    178    171    172    179   5     0.00000    30.33400     0.00000  0.0
    171    172    173    174   5     0.00000    30.33400     0.00000  0.0
    171    172    173    176   5     0.00000    30.33400     0.00000  0.0
    179    172    173    174   5     0.00000    30.33400     0.00000  0.0
    179    172    173    176   5     0.00000    30.33400     0.00000  0.0
    172    173    174    175   5     1.32214    15.51009    -4.07522  0.0
    172    173    174    180   5     0.00000     0.00000     4.73210  0.0
    176    173    174    175   5     1.32214    15.51009    -4.07522  0.0
    176    173    174    180   5     0.00000     0.00000     4.73210  0.0
    172    173    176    177   5     0.00000    30.33400     0.00000  0.0
    172    173    176    182   5     0.00000    30.33400     0.00000  0.0
    174    173    176    177   5     0.00000    30.33400     0.00000  0.0
    174    173    176    182   5     0.00000    30.33400     0.00000  0.0
    173    174    175    181   5     0.00000    58.57600     0.00000  0.0
    173    174    175    184   5     0.00000    58.57600     0.00000  0.0
    180    174    175    181   5     0.00000    58.57600     0.00000  0.0
    180    174    175    184   5     0.00000    58.57600     0.00000  0.0
    174    175    184    185   5     1.32214    15.51009    -4.07522  0.0
    174    175    184    191   5     1.32214    15.51009    -4.07522  0.0
    181    175    184    185   5     0.00000     0.00000     4.73210  0.0
    181    175    184    191   5     0.00000     0.00000     4.73210  0.0
    173    176    177    170   5     0.00000    30.33400     0.00000  0.0
    173    176    177    183   5     0.00000    30.33400     0.00000  0.0
    182    176    177    170   5     0.00000    30.33400     0.00000  0.0
    182    176    177    183   5     0.00000    30.33400     0.00000  0.0
    175    184    185    186   5     0.00000    30.33400     0.00000  0.0
    175    184    185    192   5     0.00000    30.33400     0.00000  0.0
    191    184    185    186   5     0.00000    30.33400     0.00000  0.0
    191    184    185    192   5     0.00000    30.33400     0.00000  0.0
    175    184    191    190   5     0.00000    30.33400     0.00000  0.0
    175    184    191    197   5     0.00000    30.33400     0.00000  0.0
    185    184    191    190   5     0.00000    30.33400     0.00000  0.0
    185    184    191    197   5     0.00000    30.33400     0.00000  0.0
    184    185    186    187   5     0.00000    30.33400     0.00000  0.0
    184    185    186    193   5     0.00000    30.33400     0.00000  0.0
    192    185    186    187   5     0.00000    30.33400     0.00000  0.0
    192    185    186    193   5     0.00000    30.33400     0.00000  0.0
    185    186    187    188   5     0.00000    30.33400     0.00000  0.0
    185    186    187    190   5     0.00000    30.33400     0.00000  0.0
    193    186    187    188   5     0.00000    30.33400     0.00000  0.0
    193    186    187    190   5     0.00000    30.33400     0.00000  0.0
    186    187    188    189   5     1.32214    15.51009    -4.07522  0.0
    186    187    188    194   5     0.00000     0.00000     4.73210  0.0
    190    187    188    189   5     1.32214    15.51009    -4.07522  0.0
    190    187    188    194   5     0.00000     0.00000     4.73210  0.0
    186    187    190    191   5     0.00000    30.33400     0.00000  0.0
    186    187    190    196   5     0.00000    30.33400     0.00000  0.0
    188    187    190    191   5     0.00000    30.33400     0.00000  0.0
    188    187    190    196   5     0.00000    30.33400     0.00000  0.0
    187    188    189    195   5     0.00000    58.57600     0.00000  0.0
    187    188    189    198   5     0.00000    58.57600     0.00000  0.0
    194    188    189    195   5     0.00000    58.57600     0.00000  0.0
    194    188    189    198   5     0.00000    58.57600     0.00000  0.0
    188    189    198    199   5     1.32214    15.51009    -4.07522  0.0
    188    189    198    205   5     1.32214    15.51009    -4.07522  0.0
    195    189    198    199   5     0.00000     0.00000     4.73210  0.0
    195    189    198    205   5     0.00000     0.00000     4.73210  0.0
    187    190    191    184   5     0.00000    30.33400     0.00000  0.0
    187    190    191    197   5     0.00000    30.33400     0.00000  0.0
    196    190    191    184   5     0.00000    30.33400     0.00000  0.0
    196    190    191    197   5     0.00000    30.33400     0.00000  0.0
    189    198    199    200   5     0.00000    30.33400     0.00000  0.0
    189    198    199    206   5     0.00000    30.33400     0.00000  0.0
    205    198    199    200   5     0.00000    30.33400     0.00000  0.0
    205    198    199    206   5     0.00000    30.33400     0.00000  0.0
    189    198    205    204   5     0.00000    30.33400     0.00000  0.0
    189    198    205    211   5     0.00000    30.33400     0.00000  0.0
    199    198    205    204   5     0.00000    30.33400     0.00000  0.0
    199    198    205    211   5     0.00000    30.33400     0.00000  0.0
    198    199    200    201   5     0.00000    30.33400     0.00000  0.0
    198    199    200    207   5     0.00000    30.33400     0.00000  0.0
    206    199    200    201   5     0.00000    30.33400     0.00000  0.0
    206    199    200    207   5     0.00000    30.33400     0.00000  0.0
    199    200    201    202   5     0.00000    30.33400     0.00000  0.0
    199    200    201    204   5     0.00000    30.33400     0.00000  0.0
    207    200    201    202   5     0.00000    30.33400     0.00000  0.0
    207    200    201    204   5     0.00000    30.33400     0.00000  0.0
    200    201    202    203   5     1.32214    15.51009    -4.07522  0.0
    200    201    202    208   5     0.00000     0.00000     4.73210  0.0
    204    201    202    203   5     1.32214    15.51009    -4.07522  0.0
    204    201    202    208   5     0.00000     0.00000     4.73210  0.0
    200    201    204    205   5     0.00000    30.33400     0.00000  0.0
    200    201    204    210   5     0.00000    30.33400     0.00000  0.0
    202    201    204    205   5     0.00000    30.33400     0.00000  0.0
    202    201    204    210   5     0.00000    30.33400     0.00000  0.0
    201    202    203    209   5     0.00000    58.57600     0.00000  0.0
    201    202    203    212   5     0.00000    58.57600     0.00000  0.0
    208    202    203    209   5     0.00000    58.57600     0.00000  0.0
    208    202    203    212   5     0.00000    58.57600     0.00000  0.0
    202    203    212    213   5     1.32214    15.51009    -4.07522  0.0
    202    203    212    219   5     1.32214    15.51009    -4.07522  0.0
    209    203    212    213   5     0.00000     0.00000     4.73210  0.0
    209    203    212    219   5     0.00000     0.00000     4.73210  0.0
    201    204    205    198   5     0.00000    30.33400     0.00000  0.0
    201    204    205    211   5     0.00000    30.33400     0.00000  0.0
    210    204    205    198   5     0.00000    30.33400     0.00000  0.0
    210    204    205    211   5     0.00000    30.33400     0.00000  0.0
    203    212    213    214   5     0.00000    30.33400     0.00000  0.0
    203    212    213    220   5     0.00000    30.33400     0.00000  0.0
    219    212    213    214   5     0.00000    30.33400     0.00000  0.0
    219    212    213    220   5     0.00000    30.33400     0.00000  0.0
    203    212    219    218   5     0.00000    30.33400     0.00000  0.0
    203    212    219    225   5     0.00000    30.33400     0.00000  0.0
    213    212    219    218   5     0.00000    30.33400     0.00000  0.0
    213    212    219    225   5     0.00000    30.33400     0.00000  0.0
    212    213    214    215   5     0.00000    30.33400     0.00000  0.0
    212    213    214    221   5     0.00000    30.33400     0.00000  0.0
    220    213    214    215   5     0.00000    30.33400     0.00000  0.0
    220    213    214    221   5     0.00000    30.33400     0.00000  0.0
    213    214    215    216   5     0.00000    30.33400     0.00000  0.0
    213    214    215    218   5     0.00000    30.33400     0.00000  0.0
    221    214    215    216   5     0.00000    30.33400     0.00000  0.0
    221    214    215    218   5     0.00000    30.33400     0.00000  0.0
    214    215    216    217   5     1.32214    15.51009    -4.07522  0.0
    214    215    216    222   5     0.00000     0.00000     4.73210  0.0
    218    215    216    217   5     1.32214    15.51009    -4.07522  0.0
    218    215    216    222   5     0.00000     0.00000     4.73210  0.0
    214    215    218    219   5     0.00000    30.33400     0.00000  0.0
    214    215    218    224   5     0.00000    30.33400     0.00000  0.0
    216    215    218    219   5     0.00000    30.33400     0.00000  0.0
    216    215    218    224   5     0.00000    30.33400     0.00000  0.0
    215    216    217    223   5     0.00000    58.57600     0.00000  0.0
    215    216    217    226   5     0.00000    58.57600     0.00000  0.0
    222    216    217    223   5     0.00000    58.57600     0.00000  0.0
    222    216    217    226   5     0.00000    58.57600     0.00000  0.0
    216    217    226    227   5     1.32214    15.51009    -4.07522  0.0
    216    217    226    233   5     1.32214    15.51009    -4.07522  0.0
    223    217    226    227   5     0.00000     0.00000     4.73210  0.0
    223    217    226    233   5     0.00000     0.00000     4.73210  0.0
    215    218    219    212   5     0.00000    30.33400     0.00000  0.0
    215    218    219    225   5     0.00000    30.33400     0.00000  0.0
    224    218    219    212   5     0.00000    30.33400     0.00000  0.0
    224    218    219    225   5     0.00000    30.33400     0.00000  0.0
    217    226    227    228   5     0.00000    30.33400     0.00000  0.0
    217    226    227    234   5     0.00000    30.33400     0.00000  0.0
    233    226    227    228   5     0.00000    30.33400     0.00000  0.0
    233    226    227    234   5     0.00000    30.33400     0.00000  0.0
    217    226    233    232   5     0.00000    30.33400     0.00000  0.0
    217    226    233    239   5     0.00000    30.33400     0.00000  0.0
    227    226    233    232   5     0.00000    30.33400     0.00000  0.0
    227    226    233    239   5     0.00000    30.33400     0.00000  0.0
    226    227    228    229   5     0.00000    30.33400     0.00000  0.0
    226    227    228    235   5     0.00000    30.33400     0.00000  0.0
    234    227    228    229   5     0.00000    30.33400     0.00000  0.0
    234    227    228    235   5     0.00000    30.33400     0.00000  0.0
    227    228    229    230   5     0.00000    30.33400     0.00000  0.0
    227    228    229    232   5     0.00000    30.33400     0.00000  0.0
    235    228    229    230   5     0.00000    30.33400     0.00000  0.0
    235    228    229    232   5     0.00000    30.33400     0.00000  0.0
    228    229    230    231   5     1.32214    15.51009    -4.07522  0.0
    228    229    230    236   5     0.00000     0.00000     4.73210  0.0
    232    229    230    231   5     1.32214    15.51009    -4.07522  0.0
    232    229    230    236   5     0.00000     0.00000     4.73210  0.0
    228    229    232    233   5     0.00000    30.33400     0.00000  0.0
    228    229    232    238   5     0.00000    30.33400     0.00000  0.0
    230    229    232    233   5     0.00000    30.33400     0.00000  0.0
    230    229    232    238   5     0.00000    30.33400     0.00000  0.0
    229    230    231    237   5     0.00000    58.57600     0.00000  0.0
    229    230    231    240   5     0.00000    58.57600     0.00000  0.0
    236    230    231    237   5     0.00000    58.57600     0.00000  0.0
    236    230    231    240   5     0.00000    58.57600     0.00000  0.0
    230    231    240    241   5     1.32214    15.51009    -4.07522  0.0
    230    231    240    247   5     1.32214    15.51009    -4.07522  0.0
    237    231    240    241   5     0.00000     0.00000     4.73210  0.0
    237    231    240    247   5     0.00000     0.00000     4.73210  0.0
    229    232    233    226   5     0.00000    30.33400     0.00000  0.0
    229    232    233    239   5     0.00000    30.33400     0.00000  0.0
    238    232    233    226   5     0.00000    30.33400     0.00000  0.0
    238    232    233    239   5     0.00000    30.33400     0.00000  0.0
    231    240    241    242   5     0.00000    30.33400     0.00000  0.0
    231    240    241    248   5     0.00000    30.33400     0.00000  0.0
    247    240    241    242   5     0.00000    30.33400     0.00000  0.0
    247    240    241    248   5     0.00000    30.33400     0.00000  0.0
    231    240    247    246   5     0.00000    30.33400     0.00000  0.0
    231    240    247    253   5     0.00000    30.33400     0.00000  0.0
    241    240    247    246   5     0.00000    30.33400     0.00000  0.0
    241    240    247    253   5     0.00000    30.33400     0.00000  0.0
    240    241    242    243   5     0.00000    30.33400     0.00000  0.0
    240    241    242    249   5     0.00000    30.33400     0.00000  0.0
    248    241    242    243   5     0.00000    30.33400     0.00000  0.0
    248    241    242    249   5     0.00000    30.33400     0.00000  0.0
    241    242    243    244   5     0.00000    30.33400     0.00000  0.0
    241    242    243    246   5     0.00000    30.33400     0.00000  0.0
    249    242    243    244   5     0.00000    30.33400     0.00000  0.0
    249    242    243    246   5     0.00000    30.33400     0.00000  0.0
    242    243    244    245   5     1.32214    15.51009    -4.07522  0.0
    242    243    244    250   5     0.00000     0.00000     4.73210  0.0
    246    243    244    245   5     1.32214    15.51009    -4.07522  0.0
    246    243    244    250   5     0.00000     0.00000     4.73210  0.0
    242    243    246    247   5     0.00000    30.33400     0.00000  0.0
    242    243    246    252   5     0.00000    30.33400     0.00000  0.0
    244    243    246    247   5     0.00000    30.33400     0.00000  0.0
    244    243    246    252   5     0.00000    30.33400     0.00000  0.0
    243    244    245    251   5     0.00000    58.57600     0.00000  0.0
    243    244    245    254   5     0.00000    58.57600     0.00000  0.0
    250    244    245    251   5     0.00000    58.57600     0.00000  0.0
    250    244    245    254   5     0.00000    58.57600     0.00000  0.0
    244    245    254    255   5     1.32214    15.51009    -4.07522  0.0
    244    245    254    261   5     1.32214    15.51009    -4.07522  0.0
    251    245    254    255   5     0.00000     0.00000     4.73210  0.0
    251    245    254    261   5     0.00000     0.00000     4.73210  0.0
    243    246    247    240   5     0.00000    30.33400     0.00000  0.0
    243    246    247    253   5     0.00000    30.33400     0.00000  0.0
    252    246    247    240   5     0.00000    30.33400     0.00000  0.0
    252    246    247    253   5     0.00000    30.33400     0.00000  0.0
    245    254    255    256   5     0.00000    30.33400     0.00000  0.0
    245    254    255    262   5     0.00000    30.33400     0.00000  0.0
    261    254    255    256   5     0.00000    30.33400     0.00000  0.0
    261    254    255    262   5     0.00000    30.33400     0.00000  0.0
    245    254    261    260   5     0.00000    30.33400     0.00000  0.0
    245    254    261    267   5     0.00000    30.33400     0.00000  0.0
    255    254    261    260   5     0.00000    30.33400     0.00000  0.0
    255    254    261    267   5     0.00000    30.33400     0.00000  0.0
    254    255    256    257   5     0.00000    30.33400     0.00000  0.0
    254    255    256    263   5     0.00000    30.33400     0.00000  0.0
    262    255    256    257   5     0.00000    30.33400     0.00000  0.0
    262    255    256    263   5     0.00000    30.33400     0.00000  0.0
    255    256    257    258   5     0.00000    30.33400     0.00000  0.0
    255    256    257    260   5     0.00000    30.33400     0.00000  0.0
    263    256    257    258   5     0.00000    30.33400     0.00000  0.0
    263    256    257    260   5     0.00000    30.33400     0.00000  0.0
    256    257    258    259   5     1.32214    15.51009    -4.07522  0.0
    256    257    258    264   5     0.00000     0.00000     4.73210  0.0
    260    257    258    259   5     1.32214    15.51009    -4.07522  0.0
    260    257    258    264   5     0.00000     0.00000     4.73210  0.0
    256    257    260    261   5     0.00000    30.33400     0.00000  0.0
    256    257    260    266   5     0.00000    30.33400     0.00000  0.0
    258    257    260    261   5     0.00000    30.33400     0.00000  0.0
    258    257    260    266   5     0.00000    30.33400     0.00000  0.0
    257    258    259    265   5     0.00000    58.57600     0.00000  0.0
    257    258    259    268   5     0.00000    58.57600     0.00000  0.0
    264    258    259    265   5     0.00000    58.57600     0.00000  0.0
    264    258    259    268   5     0.00000    58.57600     0.00000  0.0
    258    259    268    269   5     1.32214    15.51009    -4.07522  0.0
    258    259    268    275   5     1.32214    15.51009    -4.07522  0.0
    265    259    268    269   5     0.00000     0.00000     4.73210  0.0
    265    259    268    275   5     0.00000     0.00000     4.73210  0.0
    257    260    261    254   5     0.00000    30.33400     0.00000  0.0
    257    260    261    267   5     0.00000    30.33400     0.00000  0.0
    266    260    261    254   5     0.00000    30.33400     0.00000  0.0
    266    260    261    267   5     0.00000    30.33400     0.00000  0.0
    259    268    269    270   5     0.00000    30.33400     0.00000  0.0
    259    268    269    276   5     0.00000    30.33400     0.00000  0.0
    275    268    269    270   5     0.00000    30.33400     0.00000  0.0
    275    268    269    276   5     0.00000    30.33400     0.00000  0.0
    259    268    275    274   5     0.00000    30.33400     0.00000  0.0
    259    268    275    281   5     0.00000    30.33400     0.00000  0.0
    269    268    275    274   5     0.00000    30.33400     0.00000  0.0
    269    268    275    281   5     0.00000    30.33400     0.00000  0.0
    268    269    270    271   5     0.00000    30.33400     0.00000  0.0
    268    269    270    277   5     0.00000    30.33400     0.00000  0.0
    276    269    270    271   5     0.00000    30.33400     0.00000  0.0
    276    269    270    277   5     0.00000    30.33400     0.00000  0.0
    269    270    271    272   5     0.00000    30.33400     0.00000  0.0
    269    270    271    274   5     0.00000    30.33400     0.00000  0.0
    277    270    271    272   5     0.00000    30.33400     0.00000  0.0
    277    270    271    274   5     0.00000    30.33400     0.00000  0.0
    270    271    272    273   5     1.32214    15.51009    -4.07522  0.0
    270    271    272    278   5     0.00000     0.00000     4.73210  0.0
    274    271    272    273   5     1.32214    15.51009    -4.07522  0.0
    274    271    272    278   5     0.00000     0.00000     4.73210  0.0
    270    271    274    275   5     0.00000    30.33400     0.00000  0.0
    270    271    274    280   5     0.00000    30.33400     0.00000  0.0
    272    271    274    275   5     0.00000    30.33400     0.00000  0.0
    272    271    274    280   5     0.00000    30.33400     0.00000  0.0
    271    272    273    279   5     0.00000    58.57600     0.00000  0.0
    271    272    273    282   5     0.00000    58.57600     0.00000  0.0
    278    272    273    279   5     0.00000    58.57600     0.00000  0.0
    278    272    273    282   5     0.00000    58.57600     0.00000  0.0
    271    274    275    268   5     0.00000    30.33400     0.00000  0.0
    271    274    275    281   5     0.00000    30.33400     0.00000  0.0
    280    274    275    268   5     0.00000    30.33400     0.00000  0.0
    280    274    275    281   5     0.00000    30.33400     0.00000  0.0

[ dihedrals ]
; Improper dihedrals
; h   i   j   k   funct
      2      8      1     15   5     0.00000     9.20480     0.00000  0.0
      1      3      2      9   5     0.00000     9.20480     0.00000  0.0
      2      4      3     10   5     0.00000     9.20480     0.00000  0.0
      3      5      4      7   5     0.00000    33.47200     0.00000  0.0
      4      6      5     11   5     0.00000   125.52000     0.00000  0.0
      5     12      6     16   5     0.00000   125.52000     0.00000  0.0
      4      8      7     13   5     0.00000     9.20480     0.00000  0.0
      1      7      8     14   5     0.00000     9.20480     0.00000  0.0
      6     17     16     23   5     0.00000    33.47200     0.00000  0.0
     16     18     17     24   5     0.00000     9.20480     0.00000  0.0
     17     19     18     25   5     0.00000     9.20480     0.00000  0.0
     18     20     19     22   5     0.00000    33.47200     0.00000  0.0
     19     21     20     26   5     0.00000   125.52000     0.00000  0.0
     20     27     21     30   5     0.00000   125.52000     0.00000  0.0
     19     23     22     28   5     0.00000     9.20480     0.00000  0.0
     16     22     23     29   5     0.00000     9.20480     0.00000  0.0
     21     31     30     37   5     0.00000    33.47200     0.00000  0.0
     30     32     31     38   5     0.00000     9.20480     0.00000  0.0
     31     33     32     39   5     0.00000     9.20480     0.00000  0.0
     32     34     33     36   5     0.00000    33.47200     0.00000  0.0
     33     35     34     40   5     0.00000   125.52000     0.00000  0.0
     34     41     35     44   5     0.00000   125.52000     0.00000  0.0
     33     37     36     42   5     0.00000     9.20480     0.00000  0.0
     30     36     37     43   5     0.00000     9.20480     0.00000  0.0
     35     45     44     51   5     0.00000    33.47200     0.00000  0.0
     44     46     45     52   5     0.00000     9.20480     0.00000  0.0
     45     47     46     53   5     0.00000     9.20480     0.00000  0.0
     46     48     47     50   5     0.00000    33.47200     0.00000  0.0
     47     49     48     54   5     0.00000   125.52000     0.00000  0.0
     48     55     49     58   5     0.00000   125.52000     0.00000  0.0
     47     51     50     56   5     0.00000     9.20480     0.00000  0.0
     44     50     51     57   5     0.00000     9.20480     0.00000  0.0
     49     59     58     65   5     0.00000    33.47200     0.00000  0.0
     58     60     59     66   5     0.00000     9.20480     0.00000  0.0
     59     61     60     67   5     0.00000     9.20480     0.00000  0.0
     60     62     61     64   5     0.00000    33.47200     0.00000  0.0
     61     63     62     68   5     0.00000   125.52000     0.00000  0.0
     62     69     63     72   5     0.00000   125.52000     0.00000  0.0
     61     65     64     70   5     0.00000     9.20480     0.00000  0.0
     58     64     65     71   5     0.00000     9.20480     0.00000  0.0
     63     73     72     79   5     0.00000    33.47200     0.00000  0.0
     72     74     73     80   5     0.00000     9.20480     0.00000  0.0
     73     75     74     81   5     0.00000     9.20480     0.00000  0.0
     74     76     75     78   5     0.00000    33.47200     0.00000  0.0
     75     77     76     82   5     0.00000   125.52000     0.00000  0.0
     76     83     77     86   5     0.00000   125.52000     0.00000  0.0
     75     79     78     84   5     0.00000     9.20480     0.00000  0.0
     72     78     79     85   5     0.00000     9.20480     0.00000  0.0
     77     87     86     93   5     0.00000    33.47200     0.00000  0.0
     86     88     87     94   5     0.00000     9.20480     0.00000  0.0
     87     89     88     95   5     0.00000     9.20480     0.00000  0.0
     88     90     89     92   5     0.00000    33.47200     0.00000  0.0
     89     91     90     96   5     0.00000   125.52000     0.00000  0.0
     90     97     91    100   5     0.00000   125.52000     0.00000  0.0
     89     93     92     98   5     0.00000     9.20480     0.00000  0.0
     86     92     93     99   5     0.00000     9.20480     0.00000  0.0
     91    101    100    107   5     0.00000    33.47200     0.00000  0.0
    100    102    101    108   5     0.00000     9.20480     0.00000  0.0
    101    103    102    109   5     0.00000     9.20480     0.00000  0.0
    102    104    103    106   5     0.00000    33.47200     0.00000  0.0
    103    105    104    110   5     0.00000   125.52000     0.00000  0.0
    104    111    105    114   5     0.00000   125.52000     0.00000  0.0
    103    107    106    112   5     0.00000     9.20480     0.00000  0.0
    100    106    107    113   5     0.00000     9.20480     0.00000  0.0
    105    115    114    121   5     0.00000    33.47200     0.00000  0.0
    114    116    115    122   5     0.00000     9.20480     0.00000  0.0
    115    117    116    123   5     0.00000     9.20480     0.00000  0.0
    116    118    117    120   5     0.00000    33.47200     0.00000  0.0
    117    119    118    124   5     0.00000   125.52000     0.00000  0.0
    118    125    119    128   5     0.00000   125.52000     0.00000  0.0
    117    121    120    126   5     0.00000     9.20480     0.00000  0.0
    114    120    121    127   5     0.00000     9.20480     0.00000  0.0
    119    129    128    135   5     0.00000    33.47200     0.00000  0.0
    128    130    129    136   5     0.00000     9.20480     0.00000  0.0
    129    131    130    137   5     0.00000     9.20480     0.00000  0.0
    130    132    131    134   5     0.00000    33.47200     0.00000  0.0
    131    133    132    138   5     0.00000   125.52000     0.00000  0.0
    132    139    133    142   5     0.00000   125.52000     0.00000  0.0
    131    135    134    140   5     0.00000     9.20480     0.00000  0.0
    128    134    135    141   5     0.00000     9.20480     0.00000  0.0
    133    143    142    149   5     0.00000    33.47200     0.00000  0.0
    142    144    143    150   5     0.00000     9.20480     0.00000  0.0
    143    145    144    151   5     0.00000     9.20480     0.00000  0.0
    144    146    145    148   5     0.00000    33.47200     0.00000  0.0
    145    147    146    152   5     0.00000   125.52000     0.00000  0.0
    146    153    147    156   5     0.00000   125.52000     0.00000  0.0
    145    149    148    154   5     0.00000     9.20480     0.00000  0.0
    142    148    149    155   5     0.00000     9.20480     0.00000  0.0
    147    157    156    163   5     0.00000    33.47200     0.00000  0.0
    156    158    157    164   5     0.00000     9.20480     0.00000  0.0
    157    159    158    165   5     0.00000     9.20480     0.00000  0.0
    158    160    159    162   5     0.00000    33.47200     0.00000  0.0
    159    161    160    166   5     0.00000   125.52000     0.00000  0.0
    160    167    161    170   5     0.00000   125.52000     0.00000  0.0
    159    163    162    168   5     0.00000     9.20480     0.00000  0.0
    156    162    163    169   5     0.00000     9.20480     0.00000  0.0
    161    171    170    177   5     0.00000    33.47200     0.00000  0.0
    170    172    171    178   5     0.00000     9.20480     0.00000  0.0
    171    173    172    179   5     0.00000     9.20480     0.00000  0.0
    172    174    173    176   5     0.00000    33.47200     0.00000  0.0
    173    175    174    180   5     0.00000   125.52000     0.00000  0.0
    174    181    175    184   5     0.00000   125.52000     0.00000  0.0
    173    177    176    182   5     0.00000     9.20480     0.00000  0.0
    170    176    177    183   5     0.00000     9.20480     0.00000  0.0
    175    185    184    191   5     0.00000    33.47200     0.00000  0.0
    184    186    185    192   5     0.00000     9.20480     0.00000  0.0
    185    187    186    193   5     0.00000     9.20480     0.00000  0.0
    186    188    187    190   5     0.00000    33.47200     0.00000  0.0
    187    189    188    194   5     0.00000   125.52000     0.00000  0.0
    188    195    189    198   5     0.00000   125.52000     0.00000  0.0
    187    191    190    196   5     0.00000     9.20480     0.00000  0.0
    184    190    191    197   5     0.00000     9.20480     0.00000  0.0
    189    199    198    205   5     0.00000    33.47200     0.00000  0.0
    198    200    199    206   5     0.00000     9.20480     0.00000  0.0
    199    201    200    207   5     0.00000     9.20480     0.00000  0.0
    200    202    201    204   5     0.00000    33.47200     0.00000  0.0
    201    203    202    208   5     0.00000   125.52000     0.00000  0.0
    202    209    203    212   5     0.00000   125.52000     0.00000  0.0
    201    205    204    210   5     0.00000     9.20480     0.00000  0.0
    198    204    205    211   5     0.00000     9.20480     0.00000  0.0
    203    213    212    219   5     0.00000    33.47200     0.00000  0.0
    212    214    213    220   5     0.00000     9.20480     0.00000  0.0
    213    215    214    221   5     0.00000     9.20480     0.00000  0.0
    214    216    215    218   5     0.00000    33.47200     0.00000  0.0
    215    217    216    222   5     0.00000   125.52000     0.00000  0.0
    216    223    217    226   5     0.00000   125.52000     0.00000  0.0
    215    219    218    224   5     0.00000     9.20480     0.00000  0.0
    212    218    219    225   5     0.00000     9.20480     0.00000  0.0
    217    227    226    233   5     0.00000    33.47200     0.00000  0.0
    226    228    227    234   5     0.00000     9.20480     0.00000  0.0
    227    229    228    235   5     0.00000     9.20480     0.00000  0.0
    228    230    229    232   5     0.00000    33.47200     0.00000  0.0
    229    231    230    236   5     0.00000   125.52000     0.00000  0.0
    230    237    231    240   5     0.00000   125.52000     0.00000  0.0
    229    233    232    238   5     0.00000     9.20480     0.00000  0.0
    226    232    233    239   5     0.00000     9.20480     0.00000  0.0
    231    241    240    247   5     0.00000    33.47200     0.00000  0.0
    240    242    241    248   5     0.00000     9.20480     0.00000  0.0
    241    243    242    249   5     0.00000     9.20480     0.00000  0.0
    242    244    243    246   5     0.00000    33.47200     0.00000  0.0
    243    245    244    250   5     0.00000   125.52000     0.00000  0.0
    244    251    245    254   5     0.00000   125.52000     0.00000  0.0
    243    247    246    252   5     0.00000     9.20480     0.00000  0.0
    240    246    247    253   5     0.00000     9.20480     0.00000  0.0
    245    255    254    261   5     0.00000    33.47200     0.00000  0.0
    254    256    255    262   5     0.00000     9.20480     0.00000  0.0
    255    257    256    263   5     0.00000     9.20480     0.00000  0.0
    256    258    257    260   5     0.00000    33.47200     0.00000  0.0
    257    259    258    264   5     0.00000   125.52000     0.00000  0.0
    258    265    259    268   5     0.00000   125.52000     0.00000  0.0
    257    261    260    266   5     0.00000     9.20480     0.00000  0.0
    254    260    261    267   5     0.00000     9.20480     0.00000  0.0
    259    269    268    275   5     0.00000    33.47200     0.00000  0.0
    268    270    269    276   5     0.00000     9.20480     0.00000  0.0
    269    271    270    277   5     0.00000     9.20480     0.00000  0.0
    270    272    271    274   5     0.00000    33.47200     0.00000  0.0
    271    273    272    278   5     0.00000   125.52000     0.00000  0.0
    272    279    273    282   5     0.00000   125.52000     0.00000  0.0
    271    275    274    280   5     0.00000     9.20480     0.00000  0.0
    268    274    275    281   5     0.00000     9.20480     0.00000  0.0
