Control file title. For DL_FIELD 4.10
49914
    1MOL     C1    1   7.101   2.779   4.398  0.6382  0.0553  0.7662
    1MOL     C2    2   7.032   2.765   4.523 -0.4227  0.0111  0.5842
    1MOL     C3    3   6.896   2.739   4.525  0.2244  0.3034 -0.2073
    1MOL     C4    4   6.827   2.729   4.401  0.3091  0.4916 -0.2385
    1MOL     C5    5   6.690   2.687   4.383 -0.4854  0.4679  0.2856
    1MOL     C6    6   6.605   2.682   4.492  0.2449  0.4115  0.3902
    1MOL     C7    7   6.893   2.762   4.275  0.1403  0.6709 -0.1029
    1MOL     C8    8   7.030   2.789   4.271 -0.0383 -0.5289 -0.5773
    1MOL     H9    9   7.086   2.772   4.617  0.8550  1.3567 -0.2120
    1MOL    H10   10   6.842   2.714   4.615  2.6619 -0.2557  1.1266
    1MOL    H11   11   6.655   2.664   4.283 -0.0316 -0.9926  0.4498
    1MOL    H12   12   6.642   2.702   4.592 -0.8606 -0.7440  1.0457
    1MOL    H13   13   6.828   2.777   4.191  1.8424  2.9277 -1.0765
    1MOL    H14   14   7.080   2.812   4.178  2.4538  0.5470  0.9581
    1MOL    H15   15   7.209   2.790   4.398  1.0219 -2.8340 -2.8687
    1MOL    C16   16   6.460   2.652   4.477  0.5682 -0.2144 -0.4057
    1MOL    C17   17   6.382   2.646   4.597  0.4070 -0.2979  0.3975
    1MOL    C18   18   6.237   2.634   4.593 -0.3050  0.8058  0.0963
    1MOL    C19   19   6.179   2.617   4.461  0.5732 -0.1438  0.3231
    1MOL    C20   20   6.037   2.599   4.455 -0.2003 -0.6204  0.1992
    1MOL    C21   21   5.956   2.560   4.551 -0.3558 -0.7470 -0.2204
    1MOL    C22   22   6.255   2.621   4.345  0.0156 -0.1810  0.7961
    1MOL    C23   23   6.395   2.634   4.352  0.2535  0.1321 -0.1284
    1MOL    H24   24   6.428   2.648   4.695 -0.6235  1.1741  0.8749
    1MOL    H25   25   6.186   2.636   4.688  1.3379  1.1269  0.9876
    1MOL    H26   26   5.993   2.621   4.359 -1.2785 -0.3171  0.7599
    1MOL    H27   27   5.986   2.549   4.654  1.6462  5.2560  0.0371
    1MOL    H28   28   6.209   2.611   4.247 -0.3946 -1.1231  1.0745
    1MOL    H29   29   6.450   2.635   4.259 -1.2446 -1.0813 -1.0566
    1MOL    C30   30   5.816   2.532   4.539 -0.7359  0.1628 -0.6173
    1MOL    C31   31   5.735   2.588   4.441 -0.8588 -0.0125 -0.0230
    1MOL    C32   32   5.609   2.537   4.421 -0.0849  0.9259  0.0930
    1MOL    C33   33   5.560   2.431   4.504  0.1014 -0.4152  0.2555
    1MOL    C34   34   5.420   2.383   4.489 -0.6854 -0.0002 -0.1635
    1MOL    C35   35   5.340   2.406   4.381  0.1291  0.4830  0.0390
    1MOL    C36   36   5.640   2.387   4.609 -0.3785 -0.3579 -0.2512
    1MOL    C37   37   5.771   2.434   4.627 -0.4171 -0.5409  0.4127
    1MOL    H38   38   5.767   2.666   4.373  1.0271 -0.8024 -0.0686
    1MOL    H39   39   5.548   2.575   4.339 -0.8796  2.0276  1.1762
    1MOL    H40   40   5.381   2.336   4.578  0.6231  1.2192  1.0978
    1MOL    H41   41   5.382   2.458   4.297  0.3195  1.1011  0.5115
    1MOL    H42   42   5.595   2.311   4.671 -3.1437  1.1719 -0.3410
    1MOL    H43   43   5.829   2.384   4.702  1.6220  1.4087  0.1908
    1MOL    C44   44   5.205   2.360   4.371  0.6185  0.0983  0.0868
    1MOL    C45   45   5.155   2.337   4.242  0.1845 -0.6270  0.1124
    1MOL    C46   46   5.018   2.291   4.227 -0.3706  0.4633  0.0680
    1MOL    C47   47   4.937   2.262   4.336  0.0147 -0.4828 -0.2082
    1MOL    C48   48   4.798   2.209   4.323 -0.2756 -0.6810 -0.1237
    1MOL    C49   49   4.710   2.225   4.221 -0.7428 -0.2186 -0.8682
    1MOL    C50   50   4.991   2.274   4.471 -0.1504 -0.7768  0.1081
    1MOL    C51   51   5.120   2.331   4.482  0.5218  0.0011  0.5629
    1MOL    H52   52   5.224   2.362   4.162 -0.5218 -1.4458 -0.7815
    1MOL    H53   53   4.973   2.264   4.132  0.4223  1.2216 -0.5379
    1MOL    H54   54   4.757   2.149   4.403 -0.7731  0.3985  0.4388
    1MOL    H55   55   4.745   2.294   4.146  1.6092 -0.6366 -0.2057
    1MOL    H56   56   4.938   2.249   4.562 -0.2459 -1.4425 -0.1300
    1MOL    H57   57   5.165   2.340   4.580  1.8373 -0.7605  0.0404
    1MOL    C58   58   4.574   2.170   4.215 -0.5742 -0.0640  0.5113
    1MOL    C59   59   4.509   2.101   4.320 -0.3216  0.7252 -0.0388
    1MOL    C60   60   4.369   2.063   4.312 -0.3879 -0.3942 -0.1329
    1MOL    C61   61   4.299   2.081   4.193 -0.4175  0.0536 -0.1348
    1MOL    C62   62   4.154   2.033   4.178 -0.3909  0.5606  0.3695
    1MOL    C63   63   4.076   2.030   4.072  0.2556 -0.3709 -0.1139
    1MOL    C64   64   4.366   2.153   4.094  0.4139  0.6093  0.6471
    1MOL    C65   65   4.495   2.199   4.100  0.3476  0.0661 -0.5274
    1MOL    H66   66   4.564   2.078   4.409 -1.2117 -2.0051 -0.1615
    1MOL    H67   67   4.330   2.018   4.402  3.8905 -1.4163  1.3271
    1MOL    H68   68   4.120   1.991   4.271  1.5910 -2.7219 -0.2905
    1MOL    H69   69   4.114   2.081   3.984  1.6525 -2.7557 -0.9432
    1MOL    H70   70   4.302   2.188   4.015 -0.1140 -1.6546  0.0624
    1MOL    H71   71   4.537   2.251   4.015 -1.2584  1.7076 -0.3608
    1MOL    C72   72   3.945   1.959   4.049 -1.1714  0.6301 -1.4313
    1MOL    C73   73   3.899   1.869   4.150  0.0189  0.1169  0.3417
    1MOL    C74   74   3.775   1.808   4.139 -0.0841 -0.2445 -0.6388
    1MOL    C75   75   3.698   1.832   4.021  0.8525  0.4037 -0.0296
    1MOL    C76   76   3.573   1.760   4.018  0.0103 -0.3496  0.0995
    1MOL    C77   77   3.469   1.786   3.932  1.1933 -0.3583 -0.2678
    1MOL    C78   78   3.750   1.921   3.927 -0.4103  0.1583  0.5273
    1MOL    C79   79   3.870   1.990   3.935  0.4018  0.6402 -0.6613
    1MOL    H80   80   3.961   1.851   4.238  0.7603  2.8010  0.4225
    1MOL    H81   81   3.745   1.741   4.219 -1.3151  0.6699 -0.3282
    1MOL    H82   82   3.564   1.681   4.092 -1.7339 -0.2566  0.0194
    1MOL    H83   83   3.472   1.852   3.847  1.5018 -0.7647 -0.5795
    1MOL    H84   84   3.691   1.929   3.837 -0.2645 -0.0798  0.4106
    1MOL    H85   85   3.904   2.062   3.862  1.8465 -0.9450 -1.5577
    1MOL    C86   86   3.339   1.712   3.932  0.0460 -0.2528 -0.0063
    1MOL    C87   87   3.302   1.630   4.043  0.1339 -0.3043 -1.0348
    1MOL    C88   88   3.190   1.540   4.041  0.1320 -0.7722 -0.6558
    1MOL    C89   89   3.098   1.547   3.930  0.2058  0.2931  0.2827
    1MOL    C90   90   2.982   1.451   3.918  0.4639  0.8243 -0.0241
    1MOL    C91   91   2.948   1.361   4.012 -0.3044  0.0263  0.2633
    1MOL    C92   92   3.130   1.631   3.820 -0.4913  0.0815 -0.1788
    1MOL    C93   93   3.251   1.704   3.820  0.0731 -0.3367 -0.4233
    1MOL    H94   94   3.365   1.645   4.130 -1.2176  1.4691 -0.3445
    1MOL    H95   95   3.170   1.479   4.128  1.4899  0.4638  0.5538
    1MOL    H96   96   2.927   1.451   3.825  0.0064  1.6503  0.2434
    1MOL    H97   97   2.993   1.370   4.110 -1.5273  2.2234  0.6649
    1MOL    H98   98   3.074   1.626   3.728  1.3589  2.4229 -1.4841
    1MOL    H99   99   3.278   1.757   3.730  1.1880  1.4279  0.9244
    1MOL   C100  100   2.860   1.246   4.000 -0.2983  0.2840 -0.0472
    1MOL   C101  101   2.818   1.197   3.879  0.6072  0.5100  0.9160
    1MOL   C102  102   2.746   1.071   3.877 -0.1807  0.7589 -0.1625
    1MOL   C103  103   2.710   1.002   4.004  0.4708 -0.5112  0.4286
    1MOL   C104  104   2.674   0.865   3.998  0.1673 -0.2171 -0.2241
    1MOL   C105  105   2.685   0.782   4.103 -0.0998 -0.1737 -0.1995
    1MOL   C106  106   2.727   1.077   4.124  0.3974  0.3069 -0.6491
    1MOL   C107  107   2.807   1.194   4.121 -0.2294 -0.1294  0.4248
    1MOL   H108  108   2.866   1.240   3.793 -0.3047 -0.7634 -0.2457
    1MOL   H109  109   2.712   1.030   3.783 -1.1048  0.9451  0.0937
    1MOL   H110  110   2.636   0.828   3.904 -0.8561 -3.2626  1.3357
    1MOL   H111  111   2.710   0.828   4.197 -0.0494 -2.0700  0.7455
    1MOL   H112  112   2.698   1.044   4.222 -0.4281 -0.7814 -1.2467
    1MOL   H113  113   2.840   1.241   4.213 -0.5046  0.9141  0.0022
    1MOL   C114  114   2.670   0.637   4.114 -0.5296 -0.2906  0.3651
    1MOL   C115  115   2.635   0.556   4.002 -0.0776 -0.0512  0.1940
    1MOL   C116  116   2.629   0.416   4.020 -0.6218 -0.1208  0.1730
    1MOL   C117  117   2.665   0.347   4.143 -0.7256  0.3206  0.2768
    1MOL   C118  118   2.689   0.203   4.147  0.1916 -0.5845  0.3759
    1MOL   C119  119   2.681   0.136   4.263 -0.2501  0.4351  0.2602
    1MOL   C120  120   2.698   0.433   4.250  0.2737  0.0073 -0.3716
    1MOL   C121  121   2.700   0.577   4.237 -0.2755  0.3108  1.1510
    1MOL   H122  122   2.599   0.596   3.909 -2.0625  0.8491  1.2915
    1MOL   H123  123   2.599   0.355   3.936 -1.4386 -0.5776  0.7851
    1MOL   H124  124   2.732   0.163   4.057  0.2239 -1.3282  0.7200
    1MOL   H125  125   2.625   0.178   4.344 -0.2774  0.3825  0.2675
    1MOL   H126  126   2.740   0.388   4.339 -1.0127 -0.1001  0.1822
    1MOL   H127  127   2.729   0.633   4.326 -1.0297 -0.1713  1.7013
    1MOL   C128  128   2.738   0.004   4.288 -0.3014  0.0976  0.2291
    1MOL   C129  129   2.802   8.070   4.190 -0.6111  0.2707 -0.1001
    1MOL   C130  130   2.886   7.958   4.224 -0.1427  0.1251  0.3653
    1MOL   C131  131   2.904   7.927   4.360  0.1666  0.4770 -0.5520
    1MOL   C132  132   3.000   7.831   4.401 -0.2601  0.3516 -0.0778
    1MOL   C133  133   3.065   7.746   4.318  0.1266 -0.3964  0.1127
    1MOL   C134  134   2.824   7.995   4.458  0.2186  0.2392 -0.1536
    1MOL   C135  135   2.750   8.105   4.418 -0.1114 -0.1221  0.7896
    1MOL   H136  136   2.798   8.097   4.085 -0.1201  2.8070  0.4851
    1MOL   H137  137   2.949   7.919   4.146  0.0435  2.7793 -0.8797
    1MOL   H138  138   3.022   7.833   4.507  0.1899  0.1136 -0.1665
    1MOL   H139  139   3.019   7.736   4.220 -0.7293  0.6191  0.3905
    1MOL   H140  140   2.841   7.967   4.561  0.0966  2.1327  0.3850
    1MOL   H141  141   2.706   0.017   4.499  2.1250  0.4899  1.6010
    1MOL   C142  142   3.181   7.655   4.338 -0.5721 -0.4181 -0.2568
    1MOL   C143  143   3.270   7.681   4.447 -0.6322  0.0732  0.0944
    1MOL   C144  144   3.383   7.607   4.453  0.6141  0.5287  0.2267
    1MOL   C145  145   3.418   7.506   4.363  1.0595 -0.7406 -0.2378
    1MOL   C146  146   3.531   7.419   4.385  0.3469  0.1895  0.1700
    1MOL   C147  147   3.636   7.444   4.466  0.3285  0.2601 -0.2742
    1MOL   C148  148   3.327   7.483   4.253  0.2470  0.1608  0.2296
    1MOL   C149  149   3.204   7.555   4.244 -0.6158  0.1188  0.5597
    1MOL   H150  150   3.240   7.760   4.515  1.7680 -0.7977  2.2256
    1MOL   H151  151   3.448   7.632   4.536 -1.5620 -0.0928  2.1684
    1MOL   H152  152   3.538   7.327   4.329  0.7086  0.4874 -0.2785
    1MOL   H153  153   3.634   7.537   4.521 -0.6574 -0.7560  1.4626
    1MOL   H154  154   3.345   7.408   4.177  0.7752 -0.0009  0.5037
    1MOL   H155  155   3.139   7.534   4.160  1.1033  2.1958 -1.3508
    1MOL   C156  156   3.758   7.356   4.490 -0.4659 -0.4786 -0.1184
    1MOL   C157  157   3.796   7.241   4.409 -0.5491 -0.2467  0.0145
    1MOL   C158  158   3.903   7.162   4.432 -0.6233  0.9163  0.3180
    1MOL   C159  159   3.992   7.198   4.530 -0.2666  1.3678 -0.7525
    1MOL   C160  160   4.110   7.107   4.557 -0.4830 -0.1587 -0.6764
    1MOL   C161  161   4.205   7.110   4.653 -0.4832  0.8347  0.1288
    1MOL   C162  162   3.967   7.308   4.616 -0.1049  0.1894  0.0681
    1MOL   C163  163   3.855   7.389   4.595  0.1799 -0.5920 -0.1785
    1MOL   H164  164   3.741   7.217   4.319 -0.5143  2.1912 -0.7182
    1MOL   H165  165   3.929   7.074   4.376 -0.0335  1.4991 -0.3259
    1MOL   H166  166   4.114   7.018   4.495 -3.0473 -0.4851 -0.4450
    1MOL   H167  167   4.209   7.193   4.722  0.0754  0.2663  0.7953
    1MOL   H168  168   4.028   7.332   4.702  0.5352 -1.6663  0.1585
    1MOL   H169  169   3.822   7.463   4.667 -1.0288 -1.6643  0.3811
    1MOL   C170  170   4.312   7.010   4.673  0.8429 -0.1759 -0.4832
    1MOL   C171  171   4.314   6.893   4.590  1.0083  0.5482 -0.3406
    1MOL   C172  172   4.406   6.790   4.623 -0.0047 -0.2835  0.3283
    1MOL   C173  173   4.507   6.809   4.717 -0.2304  0.5037  0.4056
    1MOL   C174  174   4.613   6.707   4.739 -0.3318  0.5734  0.0631
    1MOL   C175  175   4.727   6.723   4.807 -0.7136 -0.0848 -0.4396
    1MOL   C176  176   4.509   6.933   4.785  0.3126  0.1152 -0.0421
    1MOL   C177  177   4.406   7.032   4.769  0.2486  0.4259  0.5042
    1MOL   H178  178   4.252   6.856   4.509  1.3072 -2.0185  0.5314
    1MOL   H179  179   4.417   6.699   4.566  2.1518  0.8466 -1.1424
    1MOL   H180  180   4.592   6.609   4.699 -1.1615  1.1467 -0.9201
    1MOL   H181  181   4.740   6.827   4.832  0.0271 -0.2302 -0.2104
    1MOL   H182  182   4.577   6.950   4.867 -0.1231 -1.4266  0.6498
    1MOL   H183  183   4.419   7.121   4.828 -1.5543  0.7604  0.4189
    1MOL   C184  184   4.822   6.617   4.846  0.8108  0.5871 -0.2758
    1MOL   C185  185   4.961   6.643   4.856  0.0172 -0.1259 -0.5990
    1MOL   C186  186   5.053   6.556   4.921 -0.1829 -0.9385 -0.2177
    1MOL   C187  187   4.996   6.434   4.972 -0.0751  0.6359  0.3821
    1MOL   C188  188   5.083   6.342   5.050  0.5890 -0.2962  1.0133
    1MOL   C189  189   5.046   6.237   5.115 -0.4676 -0.5500 -0.7666
    1MOL   C190  190   4.856   6.401   4.951  0.4660 -0.3631 -0.9044
    1MOL   C191  191   4.765   6.490   4.883  0.1685 -0.4694 -0.4340
    1MOL   H192  192   4.995   6.740   4.823  2.2237  0.7497  3.7874
    1MOL   H193  193   5.161   6.564   4.918 -0.4178  2.7706 -3.2454
    1MOL   H194  194   5.183   6.381   5.055  0.3615  0.9561 -2.3675
    1MOL   H195  195   4.942   6.209   5.113 -0.9106  0.7521  1.6993
    1MOL   H196  196   4.817   6.310   4.993  0.6223 -1.8433 -3.8333
    1MOL   H197  197   4.659   6.475   4.880  0.3373 -2.6631  2.8157
    1MOL   C198  198   5.130   6.142   5.192  0.2553  0.2329  0.2234
    1MOL   C199  199   5.084   6.010   5.217 -0.3038 -0.4935 -0.1779
    1MOL   C200  200   5.152   5.913   5.292  0.2632 -0.2436  0.4872
    1MOL   C201  201   5.280   5.954   5.342  0.1701  0.8136 -1.2056
    1MOL   C202  202   5.346   5.858   5.426 -0.0271 -0.3131  0.4971
    1MOL   C203  203   5.451   5.881   5.509  0.6614 -0.1963  0.6658
    1MOL   C204  204   5.334   6.083   5.311 -0.0987  0.7969 -0.5894
    1MOL   C205  205   5.259   6.171   5.232  0.6452 -0.4937 -0.6183
    1MOL   H206  206   4.982   5.984   5.193  0.6125 -1.2029 -3.4492
    1MOL   H207  207   5.126   5.811   5.314  3.3120 -0.9199  1.1645
    1MOL   H208  208   5.304   5.759   5.436  1.2650 -0.7985  1.1694
    1MOL   H209  209   5.500   5.977   5.505  0.5699 -0.2289 -2.0494
    1MOL   H210  210   5.428   6.123   5.346  0.2510 -1.0259  0.6325
    1MOL   H211  211   5.305   6.268   5.214  1.5191 -0.7111  0.4182
    1MOL   C212  212   5.508   5.775   5.597 -0.3277 -0.3030  0.0925
    1MOL   C213  213   5.581   5.815   5.710  1.2030 -0.2144  0.1314
    1MOL   C214  214   5.623   5.717   5.808 -0.5024  0.1168  0.5998
    1MOL   C215  215   5.600   5.580   5.775 -0.2319 -0.5663 -0.0309
    1MOL   C216  216   5.631   5.478   5.874 -0.8224 -0.1312 -0.6118
    1MOL   C217  217   5.689   5.493   5.994 -0.5624  0.2815 -0.0245
    1MOL   C218  218   5.535   5.541   5.658  0.0056 -0.3215 -0.7868
    1MOL   C219  219   5.486   5.640   5.570 -0.1616  0.3055 -0.2656
    1MOL   H220  220   5.606   5.919   5.729 -0.1870  0.3230 -0.8952
    1MOL   H221  221   5.664   5.760   5.897  2.1640  1.9914 -1.4531
    1MOL   H222  222   5.587   5.383   5.847 -1.5882  0.4423 -1.4310
    1MOL   H223  223   5.722   5.590   6.028  1.7493 -0.4383 -0.1277
    1MOL   H224  224   5.513   5.438   5.636 -1.6646 -0.2312  0.3379
    1MOL   H225  225   5.436   5.606   5.481 -0.4746  0.0334  0.0128
    1MOL   C226  226   5.714   5.384   6.090  0.4672  0.6587  0.0042
    1MOL   C227  227   5.711   5.253   6.047  0.4021  0.7165  0.4752
    1MOL   C228  228   5.715   5.143   6.135  0.3919  0.6575  0.5545
    1MOL   C229  229   5.743   5.168   6.274 -0.2518 -0.1432 -0.0245
    1MOL   C230  230   5.725   5.058   6.372 -0.4289  0.5433  0.3121
    1MOL   C231  231   5.728   4.924   6.346 -0.1109  0.5138 -0.1167
    1MOL   C232  232   5.746   5.300   6.315 -0.1800  0.5702 -0.1655
    1MOL   C233  233   5.726   5.412   6.228  0.0148 -0.4137  0.8656
    1MOL   H234  234   5.701   5.226   5.943  0.9261  1.0773  0.3320
    1MOL   H235  235   5.710   5.047   6.085 -0.2386  2.5652 -3.2155
    1MOL   H236  236   5.700   5.094   6.471  0.7200 -1.6342  1.4369
    1MOL   H237  237   5.753   4.881   6.251  0.2730  0.0638  0.1902
    1MOL   H238  238   5.754   5.318   6.422 -2.0157 -0.0123  0.0906
    1MOL   H239  239   5.739   5.512   6.266  2.6063 -0.8186  1.1443
    1MOL   C240  240   5.699   4.821   6.453 -0.1663  0.3363 -0.7003
    1MOL   C241  241   5.677   4.850   6.589 -0.2190  0.2543  0.5825
    1MOL   C242  242   5.653   4.744   6.682  0.5757  0.0115 -0.1736
    1MOL   C243  243   5.642   4.611   6.635 -0.1192  0.1195 -0.2278
    1MOL   C244  244   5.613   4.500   6.729  0.0556 -0.7485  0.8433
    1MOL   C245  245   5.582   4.505   6.859  0.4166 -0.1784  0.0835
    1MOL   C246  246   5.653   4.588   6.497  0.0529 -0.5166 -0.1788
    1MOL   C247  247   5.688   4.690   6.404  0.1342  0.3545  0.4991
    1MOL   H248  248   5.684   4.952   6.623  1.7829  0.5405 -0.6598
    1MOL   H249  249   5.639   4.770   6.786  0.0921 -0.8523 -0.0155
    1MOL   H250  250   5.616   4.402   6.683  2.0409 -0.8508  1.1784
    1MOL   H251  251   5.580   4.598   6.913 -0.4205 -1.3745  2.1736
    1MOL   H252  252   5.639   4.485   6.468 -1.2524 -1.1200  2.4728
    1MOL   H253  253   5.696   4.660   6.301 -0.6251  1.0372  0.2289
    1MOL   C254  254   5.533   4.394   6.948  0.3191  0.5600  0.2567
    1MOL   C255  255   5.481   4.270   6.906  0.1182  0.1466 -0.5951
    1MOL   C256  256   5.440   4.168   6.999  0.0255 -0.0598 -1.0004
    1MOL   C257  257   5.447   4.195   7.131  0.4160  0.1382 -0.3053
    1MOL   C258  258   5.406   4.095   7.224  1.0767  0.0914 -0.5812
    1MOL   C259  259   5.465   4.053   7.343  0.3570  0.0943 -0.3512
    1MOL   C260  260   5.500   4.319   7.178 -0.7141 -0.4513  0.6791
    1MOL   C261  261   5.544   4.409   7.086 -0.1870  0.0041  0.1931
    1MOL   H262  262   5.474   4.253   6.800 -0.8573 -0.7776 -0.3920
    1MOL   H263  263   5.400   4.078   6.954 -0.5446 -0.1252 -0.3681
    1MOL   H264  264   5.312   4.044   7.212  0.0100  0.9590  3.1824
    1MOL   H265  265   5.411   3.976   7.397  0.3361 -0.5798 -1.2984
    1MOL   H266  266   5.520   4.328   7.284  1.9294  3.6075 -0.0549
    1MOL   H267  267   5.578   4.506   7.121 -1.5528  0.2930  0.7622
    1MOL   C268  268   5.594   4.086   7.409  0.0118  0.0721 -0.9201
    1MOL   C269  269   5.705   4.130   7.331  0.3167  0.1177 -0.2580
    1MOL   C270  270   5.831   4.148   7.393 -0.1533 -0.2949  0.6006
    1MOL   C271  271   5.844   4.146   7.534 -0.4484  0.5189 -0.1200
    1MOL   C272  272   5.972   4.175   7.606  0.5372  0.1920  0.0735
    1MOL   C273  273   6.101   4.163   7.565 -0.1913  0.3995 -0.6784
    1MOL   C274  274   5.730   4.106   7.612 -0.3467 -0.2879  0.5184
    1MOL   C275  275   5.604   4.079   7.548 -0.8176  0.3921 -0.4094
    1MOL   H276  276   5.696   4.136   7.224  2.4787  1.2559 -0.4007
    1MOL   H277  277   5.920   4.163   7.334 -0.4324  1.0783  0.5053
    1MOL   H278  278   5.956   4.198   7.711  1.4105  0.8882  0.0613
    1MOL   H279  279   6.108   4.129   7.463 -0.9649 -1.9744  0.0245
    1MOL   H280  280   5.738   4.085   7.717  1.9984 -2.7075 -0.0807
    1MOL   H281  281   5.516   4.052   7.604 -1.7722  0.5640 -1.8006
    1MOL   H282  282   6.190   4.175   7.625 -0.7500  0.8928  0.0530
    2MOL     C1  283   3.598   0.509   7.933 -0.3132 -0.3201 -0.2770
    2MOL     C2  284   3.538   0.615   7.996 -0.2829  0.4974 -0.0447
    2MOL     C3  285   3.594   0.680   8.108  0.1253 -0.2669  0.9364
    2MOL     C4  286   3.717   0.637   0.015 -0.2619 -1.3116  0.0070
    2MOL     C5  287   3.783   0.719   0.117  0.1156  0.0255 -0.2099
    2MOL     C6  288   3.741   0.828   0.182 -0.2404  0.1049  0.1327
    2MOL     C7  289   3.779   0.527   8.097  0.3078 -0.7912  0.3112
    2MOL     C8  290   3.717   0.457   7.991  0.0403  0.3408 -0.2751
    2MOL     H9  291   3.440   0.643   7.959 -1.1995  0.4857  2.2838
    2MOL    H10  292   3.533   0.756   0.012 -2.4456 -1.6376 -0.0605
    2MOL    H11  293   3.881   0.679   0.141 -0.4548 -0.1769  1.9353
    2MOL    H12  294   3.642   0.867   0.161 -1.1353 -2.2843 -0.1497
    2MOL    H13  295   3.871   0.479   8.125  0.2848  1.0042  3.6943
    2MOL    H14  296   3.762   0.370   7.946 -1.0057  0.6067 -1.8896
    2MOL    H15  297   3.541   0.455   7.859 -0.8243 -1.2715  0.7917
    2MOL    C16  298   3.810   0.912   0.287 -0.1903  0.3648  0.1389
    2MOL    C17  299   3.933   0.877   0.339  0.2291  0.6970 -0.9380
    2MOL    C18  300   3.998   0.952   0.435 -0.1998  0.0901 -0.2179
    2MOL    C19  301   3.935   1.065   0.488 -0.0044  0.3228  0.0037
    2MOL    C20  302   3.998   1.140   0.593  0.0592 -1.2671  0.4071
    2MOL    C21  303   3.941   1.203   0.695 -0.7059 -0.1085  0.1721
    2MOL    C22  304   3.812   1.114   0.432  0.5745  0.4900 -0.5975
    2MOL    C23  305   3.755   1.035   0.330 -0.8541  0.2146 -0.2151
    2MOL    H24  306   3.988   0.790   0.308  1.1606 -0.8204  4.3454
    2MOL    H25  307   4.096   0.922   0.467 -0.0247 -0.4062 -1.2096
    2MOL    H26  308   4.105   1.146   0.583 -0.4152  3.2390 -3.9286
    2MOL    H27  309   3.834   1.208   0.697 -0.7442 -0.4512 -0.6491
    2MOL    H28  310   3.761   1.202   0.470 -1.6942 -0.1717 -1.9987
    2MOL    H29  311   3.666   1.074   0.283 -1.1700  0.9835  0.9925
    2MOL    C30  312   4.014   1.271   0.799 -0.0586 -0.5226 -0.6775
    2MOL    C31  313   3.931   1.324   0.909 -0.1379  0.2929  0.4241
    2MOL    C32  314   4.001   1.382   1.013  0.0655 -0.1079  0.2590
    2MOL    C33  315   4.136   1.387   1.024 -0.6710 -0.1096  0.2331
    2MOL    C34  316   4.196   1.428   1.150  0.0989 -0.0884 -0.1416
    2MOL    C35  317   4.326   1.447   1.178 -0.4379 -0.0672 -0.0112
    2MOL    C36  318   4.211   1.334   0.911  0.5752  0.3701 -0.4921
    2MOL    C37  319   4.151   1.276   0.803 -0.2472  0.5605  1.0062
    2MOL    H38  320   3.823   1.325   0.909 -0.1593 -1.0023  0.5500
    2MOL    H39  321   3.939   1.412   1.096 -0.5393  2.7701 -1.1368
    2MOL    H40  322   4.126   1.442   1.231  1.8054  1.1126  1.1432
    2MOL    H41  323   4.404   1.437   1.103  1.9392 -0.0456  2.3966
    2MOL    H42  324   4.319   1.340   0.909  0.5374  2.1564  1.2434
    2MOL    H43  325   4.214   1.242   0.723 -2.2824  1.3083 -0.9684
    2MOL    C44  326   4.371   1.475   1.312 -0.1057  0.3338 -0.3839
    2MOL    C45  327   4.479   1.562   1.327  0.1745  0.3625  0.5317
    2MOL    C46  328   4.525   1.585   1.453 -0.5710 -0.5142 -0.2344
    2MOL    C47  329   4.473   1.525   1.571  0.4673 -0.2178  0.0814
    2MOL    C48  330   4.519   1.542   1.713  0.2988 -0.0059  0.5975
    2MOL    C49  331   4.626   1.615   1.755 -0.0608  0.2740 -0.3750
    2MOL    C50  332   4.364   1.432   1.551 -0.4763  0.4683 -0.5194
    2MOL    C51  333   4.310   1.410   1.422  0.7807 -0.2832 -0.5012
    2MOL    H52  334   4.528   1.604   1.240 -1.6490  1.2022 -0.1128
    2MOL    H53  335   4.609   1.652   1.464 -1.3417  0.5611 -0.7919
    2MOL    H54  336   4.468   1.480   1.784 -0.4672  0.7894  0.7507
    2MOL    H55  337   4.684   1.668   1.681  0.6207  0.4689  0.2872
    2MOL    H56  338   4.314   1.376   1.629 -1.1618  0.1717 -1.1642
    2MOL    H57  339   4.222   1.352   1.401 -0.1903  0.2741  1.8746
    2MOL    C58  340   4.681   1.620   1.892  0.3519 -0.1489 -0.0968
    2MOL    C59  341   4.746   1.738   1.937 -0.1072  0.3030 -0.5628
    2MOL    C60  342   4.817   1.726   2.058  0.1932 -1.0223 -0.6342
    2MOL    C61  343   4.830   1.602   2.134  0.2367 -0.4106  0.2161
    2MOL    C62  344   4.915   1.584   2.254  0.4714  0.7550  0.2998
    2MOL    C63  345   4.982   1.683   2.315  0.1947 -0.3091 -0.1153
    2MOL    C64  346   4.758   1.494   2.087  0.9784  0.4847 -0.3996
    2MOL    C65  347   4.685   1.499   1.966 -0.3659 -0.7597 -0.5158
    2MOL    H66  348   4.721   1.826   1.880 -1.4585  1.1758  1.3675
    2MOL    H67  349   4.868   1.818   2.082  1.0821 -1.1702 -1.8653
    2MOL    H68  350   4.920   1.480   2.283 -0.0865  0.8037  0.5704
    2MOL    H69  351   4.970   1.784   2.279 -2.6436 -1.1711 -1.7801
    2MOL    H70  352   4.764   1.403   2.143 -0.2574  1.1362  0.8048
    2MOL    H71  353   4.635   1.409   1.935 -0.9531 -1.1784  1.5407
    2MOL    C72  354   5.067   1.664   2.432  0.3507 -0.1664  0.0961
    2MOL    C73  355   5.124   1.785   2.481 -0.0531 -0.3543  0.2447
    2MOL    C74  356   5.221   1.778   2.580  0.0314 -0.3770  0.6558
    2MOL    C75  357   5.254   1.658   2.644  0.2119  0.8294 -0.3190
    2MOL    C76  358   5.344   1.660   2.753 -0.1241 -0.1072  0.4469
    2MOL    C77  359   5.393   1.550   2.821 -0.1731 -0.8853 -0.3670
    2MOL    C78  360   5.201   1.537   2.591  0.0278 -0.1406 -0.0056
    2MOL    C79  361   5.106   1.547   2.483 -0.5792  0.1884 -0.3782
    2MOL    H80  362   5.099   1.881   2.439  1.0131 -0.3552 -0.4140
    2MOL    H81  363   5.256   1.874   2.614  1.1616  0.5753 -2.9760
    2MOL    H82  364   5.382   1.759   2.772  2.3456 -1.0112  0.4986
    2MOL    H83  365   5.349   1.454   2.796  0.0889 -0.9749 -0.4840
    2MOL    H84  366   5.235   1.442   2.628  0.6157 -0.6708 -1.8727
    2MOL    H85  367   5.057   1.457   2.448  1.4263 -0.9341 -0.3870
    2MOL    C86  368   5.499   1.558   2.926  0.4698  0.4921 -0.4178
    2MOL    C87  369   5.560   1.441   2.963  0.6938 -0.1464 -0.1514
    2MOL    C88  370   5.676   1.441   3.037  0.2679 -0.0525  0.3591
    2MOL    C89  371   5.732   1.562   3.085 -0.5493 -0.6899 -0.1681
    2MOL    C90  372   5.851   1.554   3.158  0.4519 -0.0114 -0.9149
    2MOL    C91  373   5.899   1.648   3.245 -0.7402  0.3561 -0.0686
    2MOL    C92  374   5.659   1.682   3.074  0.5770  0.0932  0.3371
    2MOL    C93  375   5.549   1.681   2.986  0.7171 -0.1437 -0.2214
    2MOL    H94  376   5.536   1.344   2.921  1.4655 -0.5819  0.3982
    2MOL    H95  377   5.723   1.350   3.070 -1.4253 -0.4020  1.9360
    2MOL    H96  378   5.911   1.466   3.141  3.0589  1.7993 -1.4122
    2MOL    H97  379   5.847   1.743   3.253 -1.2590  0.0091  0.6910
    2MOL    H98  380   5.700   1.775   3.111 -0.1660  0.1999  0.9090
    2MOL    H99  381   5.493   1.772   2.969  1.0701  0.2921  0.8903
    2MOL   C100  382   6.026   1.632   3.321  0.1188 -0.1287  0.2460
    2MOL   C101  383   6.092   1.508   3.320 -0.3069  0.3281  0.2348
    2MOL   C102  384   6.208   1.495   3.395  0.4763  0.3786  0.3432
    2MOL   C103  385   6.261   1.604   3.475  0.6227 -0.1109  0.7513
    2MOL   C104  386   6.382   1.582   3.553 -0.2155  0.0155  0.2025
    2MOL   C105  387   6.442   1.668   3.637  0.7036  0.0167 -0.8851
    2MOL   C106  388   6.193   1.728   3.472 -0.4199  0.3932 -0.1427
    2MOL   C107  389   6.082   1.746   3.387 -0.1754  0.5313 -0.2720
    2MOL   H108  390   6.062   1.414   3.276  1.8140  0.4528 -1.5975
    2MOL   H109  391   6.258   1.400   3.393 -1.4349 -0.6599  0.3791
    2MOL   H110  392   6.420   1.482   3.542 -2.1043 -0.7231  0.1882
    2MOL   H111  393   6.396   1.765   3.650  0.3378 -0.0470 -1.6875
    2MOL   H112  394   6.223   1.810   3.536  1.5075 -0.1340 -0.3298
    2MOL   H113  395   6.028   1.839   3.380  0.0670  0.6255 -1.0131
    2MOL   C114  396   6.560   1.639   3.719 -0.5311 -0.1155 -0.8705
    2MOL   C115  397   6.634   1.743   3.778 -0.7747 -1.0122 -0.0769
    2MOL   C116  398   6.748   1.721   3.856 -0.2663 -0.6522 -0.5846
    2MOL   C117  399   6.781   1.588   3.893 -0.2771 -0.0891  0.3596
    2MOL   C118  400   6.894   1.566   3.992 -0.2381 -0.5132 -0.4363
    2MOL   C119  401   6.939   1.443   4.033  0.1721  0.0225  0.0253
    2MOL   C120  402   6.710   1.482   3.838  0.6027 -0.2135  0.1149
    2MOL   C121  403   6.600   1.503   3.749 -1.1690  0.3648 -0.0374
    2MOL   H122  404   6.609   1.847   3.767 -0.7338 -0.8188  1.6359
    2MOL   H123  405   6.784   1.807   3.911 -0.8441 -1.1191  0.5477
    2MOL   H124  406   6.928   1.658   4.038 -0.5031  0.7735 -2.7059
    2MOL   H125  407   6.899   1.354   3.988 -4.0914  0.8263  1.9721
    2MOL   H126  408   6.751   1.387   3.866 -2.4699 -0.6619  3.5673
    2MOL   H127  409   6.550   1.413   3.717 -3.6559  1.4958  0.6197
    2MOL   C128  410   7.041   1.416   4.134  0.7684  0.4724  1.0112
    2MOL   C129  411   7.051   1.283   4.177 -0.2413 -0.5821  0.3677
    2MOL   C130  412   7.146   1.237   4.269 -0.4320 -0.1873  0.3119
    2MOL   C131  413   7.228   1.330   4.332 -0.2119 -0.4287 -0.2510
    2MOL   C132  414   7.317   1.276   4.433 -0.6657 -0.3074  0.4286
    2MOL   C133  415   7.434   1.329   4.478 -0.4824 -0.4881 -0.0764
    2MOL   C134  416   7.230   1.463   4.284  0.8723  0.6557 -0.2834
    2MOL   C135  417   7.137   1.506   4.183  1.0041  0.8443  0.3927
    2MOL   H136  418   6.987   1.207   4.135 -1.7753 -0.1124  1.8270
    2MOL   H137  419   7.147   1.132   4.292  1.4719 -0.1346  0.6211
    2MOL   H138  420   7.272   1.188   4.477 -0.0010 -0.9243 -0.1001
    2MOL   H139  421   7.474   1.416   4.429  0.9709 -1.0025  0.1644
    2MOL   H140  422   7.305   1.532   4.320  1.2192 -1.3416  3.0202
    2MOL   H141  423   7.133   1.604   4.139  1.0259 -0.3735 -2.4407
    2MOL   C142  424   7.508   1.279   4.595  0.7140 -0.1818 -0.6093
    2MOL   C143  425   7.636   1.323   4.624 -0.1828 -0.6294 -0.2140
    2MOL   C144  426   7.695   1.301   4.753  0.5466  0.0566 -0.5416
    2MOL   C145  427   7.623   1.231   4.849  0.1125 -0.1014  0.7043
    2MOL   C146  428   7.675   1.197   4.986  0.2625  0.8898 -0.3012
    2MOL   C147  429   7.591   1.175   5.091 -0.3355 -0.4569  0.0168
    2MOL   C148  430   7.492   1.176   4.816  0.1320 -0.3340  0.3447
    2MOL   C149  431   7.436   1.199   4.691 -0.4108 -0.0528  0.3691
    2MOL   H150  432   7.691   1.377   4.548 -0.2506 -0.6574 -0.2826
    2MOL   H151  433   7.795   1.335   4.774  0.4851 -0.0022 -0.1633
    2MOL   H152  434   7.782   1.187   4.996  0.3964  2.2183 -0.3225
    2MOL   H153  435   7.484   1.181   5.075 -0.7052  1.1371  2.7523
    2MOL   H154  436   7.439   1.105   4.878 -0.7394 -1.0549 -1.1754
    2MOL   H155  437   7.335   1.167   4.673 -1.2374  3.7210 -2.2761
    2MOL   C156  438   7.618   1.139   5.229  0.5641  0.3676  0.2680
    2MOL   C157  439   7.753   1.138   5.282 -0.0880 -0.3015 -0.1901
    2MOL   C158  440   7.781   1.122   5.419 -0.1984 -0.3977 -0.4145
    2MOL   C159  441   7.680   1.098   5.514 -0.4363 -0.8753  0.4660
    2MOL   C160  442   7.720   1.076   5.651  0.4682  1.1337  0.1521
    2MOL   C161  443   7.638   1.035   5.751 -0.9177 -0.3817 -0.2797
    2MOL   C162  444   7.545   1.101   5.467  0.2566 -0.3447 -0.1018
    2MOL   C163  445   7.515   1.121   5.329 -0.1287 -0.1330  0.2006
    2MOL   H164  446   7.832   1.167   5.214 -0.1397  0.5390  0.1111
    2MOL   H165  447   7.881   1.106   5.456 -0.4109 -1.5765 -0.3363
    2MOL   H166  448   7.823   1.085   5.681  0.8926  1.4682 -1.4090
    2MOL   H167  449   7.534   1.016   5.729 -0.6562 -1.6056 -0.4887
    2MOL   H168  450   7.464   1.079   5.536  0.5121  1.7961  0.9360
    2MOL   H169  451   7.410   1.117   5.305  0.1136 -1.7020 -0.6160
    2MOL   C170  452   7.676   1.010   5.889  0.0264  0.1637  0.2685
    2MOL   C171  453   7.587   1.024   5.995  0.1671  0.2322 -0.1303
    2MOL   C172  454   7.632   1.021   6.131  0.0561  0.1460 -0.2941
    2MOL   C173  455   7.767   1.002   6.164  0.9061 -0.1107  0.3016
    2MOL   C174  456   7.811   1.023   6.295  0.4743  0.2310 -0.6955
    2MOL   C175  457   7.746   1.091   6.392 -0.5763 -0.7499 -0.6215
    2MOL   C176  458   7.858   0.980   6.056  0.0157  0.8853 -0.2219
    2MOL   C177  459   7.813   0.981   5.920 -0.6099  0.3126 -1.0117
    2MOL   H178  460   7.483   1.047   5.974  0.1844 -0.9326 -1.5424
    2MOL   H179  461   7.566   1.041   6.214  0.0539  1.8034 -0.6656
    2MOL   H180  462   7.910   0.987   6.321  0.7491 -0.3412 -2.4417
    2MOL   H181  463   7.646   1.131   6.380 -0.9347 -0.2121  3.4961
    2MOL   H182  464   7.963   0.981   6.082  0.2172  0.8557 -1.0263
    2MOL   H183  465   7.894   0.978   5.848  0.6117  1.9822  0.2318
    2MOL   C184  466   7.811   1.113   6.522  0.1371 -0.7585 -0.0489
    2MOL   C185  467   7.955   1.096   6.543 -0.0333 -0.4076 -0.2139
    2MOL   C186  468   8.001   1.127   6.673 -0.1255 -0.4643 -0.0579
    2MOL   C187  469   7.918   1.180   6.776 -0.0369 -0.1887  0.5147
    2MOL   C188  470   7.967   1.239   6.893 -0.3349 -0.3997 -0.3446
    2MOL   C189  471   8.081   1.313   6.882 -0.9571  0.5407 -0.1697
    2MOL   C190  472   7.783   1.194   6.748 -0.7892 -0.2398  0.4820
    2MOL   C191  473   7.725   1.160   6.628  0.4121  0.2735  0.1856
    2MOL   H192  474   8.023   1.072   6.463  0.6805 -2.0809  0.8524
    2MOL   H193  475   8.108   1.139   6.686 -0.0084 -1.7879  0.3110
    2MOL   H194  476   7.927   1.230   6.993  0.2415 -0.6464 -0.1278
    2MOL   H195  477   8.121   1.329   6.783  0.4638 -2.9007 -0.2142
    2MOL   H196  478   7.719   1.236   6.824  0.2773  0.7448  0.8351
    2MOL   H197  479   7.619   1.181   6.620  0.5462  0.4445 -1.3682
    2MOL   C198  480   0.020   1.378   6.986  0.3263 -0.6432  0.0061
    2MOL   C199  481   0.119   1.472   6.946 -0.6140  0.1759  0.2272
    2MOL   C200  482   0.193   1.553   7.037  0.2310 -0.2696 -0.1788
    2MOL   C201  483   0.184   1.526   7.172 -0.2850  0.1075 -0.0060
    2MOL   C202  484   0.271   1.590   7.259 -0.1720  0.2325  0.9936
    2MOL   C203  485   0.302   1.576   7.390  0.1366  0.0530  0.3746
    2MOL   C204  486   0.086   1.428   7.214  0.1144  0.1240  0.0601
    2MOL   C205  487   0.004   1.364   7.124  0.4099  0.5608 -0.2406
    2MOL   H206  488   0.134   1.485   6.840  1.8942  0.8873  0.6369
    2MOL   H207  489   0.251   1.640   7.009  1.2368 -1.0070 -0.3986
    2MOL   H208  490   0.317   1.674   7.210 -3.0643  0.6757 -1.0736
    2MOL   H209  491   0.271   1.480   7.430  1.0233  0.3404  1.7868
    2MOL   H210  492   0.078   1.398   7.317  3.0381 -0.3998  0.2005
    2MOL   H211  493   8.078   1.289   7.158 -0.1710  1.6079  0.8912
    2MOL   C212  494   0.395   1.661   7.477  0.1841  0.0759  0.4290
    2MOL   C213  495   0.428   1.784   7.428 -0.3839  0.6254 -0.3099
    2MOL   C214  496   0.522   1.861   7.496 -0.3557  0.3244 -0.3883
    2MOL   C215  497   0.584   1.819   7.614  0.3899  0.6621 -0.3170
    2MOL   C216  498   0.682   1.908   7.675  0.4557  0.3569  0.7587
    2MOL   C217  499   0.743   1.903   7.793  0.0673 -0.1499 -0.0778
    2MOL   C218  500   0.550   1.693   7.670 -0.7504 -1.0258  0.1190
    2MOL   C219  501   0.452   1.617   7.599  0.3539  0.0358 -0.5419
    2MOL   H220  502   0.383   1.828   7.340  2.1210  1.4150 -1.2245
    2MOL   H221  503   0.545   1.961   7.462 -2.0674  0.7103 -0.4219
    2MOL   H222  504   0.701   1.988   7.605  0.9598 -1.6065 -1.3926
    2MOL   H223  505   0.711   1.822   7.856 -0.1000  2.0477  2.7866
    2MOL   H224  506   0.588   1.669   7.768  0.4565  2.2643  0.4960
    2MOL   H225  507   0.426   1.517   7.631  1.0789  0.3262  0.9913
    2MOL   C226  508   0.838   1.999   7.852  0.0736 -0.1620  0.0496
    2MOL   C227  509   0.903   1.967   7.975 -0.2891  0.2926  0.7553
    2MOL   C228  510   1.006   2.053   8.027 -0.2446  0.6011  0.0022
    2MOL   C229  511   1.029   2.179   7.970  0.2267  0.3553 -0.0080
    2MOL   C230  512   1.123   2.269   8.037  0.5472  0.0955 -0.1298
    2MOL   C231  513   1.131   2.398   8.001 -0.3141 -0.3125  0.8614
    2MOL   C232  514   0.953   2.209   7.858 -0.3515  0.2729  0.3383
    2MOL   C233  515   0.862   2.125   7.796  0.5263  0.2539  0.6487
    2MOL   H234  516   0.900   1.870   8.021  1.7997  0.2975  0.9635
    2MOL   H235  517   1.063   2.005   8.105 -0.4166  0.6143  0.1359
    2MOL   H236  518   1.184   2.223   8.113 -0.0543 -0.0861  0.2476
    2MOL   H237  519   1.068   2.428   7.918  0.8623  0.0047  0.0661
    2MOL   H238  520   0.958   2.296   7.794 -0.2644  0.5660  0.7381
    2MOL   H239  521   0.813   2.162   7.708  0.1293 -1.2581  0.2116
    2MOL   C240  522   1.203   2.507   8.068  0.0333  1.0970 -0.1481
    2MOL   C241  523   1.286   2.485   0.031  0.1565 -0.3151  0.4890
    2MOL   C242  524   1.361   2.595   0.087  0.1589  0.4036  0.7096
    2MOL   C243  525   1.342   2.724   0.041  0.2279  0.2855 -0.3814
    2MOL   C244  526   1.412   2.838   0.109  0.5708 -0.6571 -0.0471
    2MOL   C245  527   1.493   2.839   0.218 -0.6647 -0.1215  0.0134
    2MOL   C246  528   1.265   2.745   8.077 -0.6242 -1.3387  0.5544
    2MOL   C247  529   1.193   2.638   8.021  0.4548 -0.4309  0.4286
    2MOL   H248  530   1.305   2.389   0.076 -0.7225 -0.4189  0.6458
    2MOL   H249  531   1.423   2.567   0.171 -0.4773  0.4868  1.2124
    2MOL   H250  532   1.397   2.939   0.073  0.3657 -0.5206  0.4197
    2MOL   H251  533   1.516   2.748   0.271  3.1639  0.6641 -0.1214
    2MOL   H252  534   1.252   2.845   8.037 -2.3182 -1.6456  0.2827
    2MOL   H253  535   1.139   2.661   7.931  0.9176 -0.8950  0.0294
    2MOL   C254  536   1.557   2.957   0.278  0.3640 -0.2808 -0.2848
    2MOL   C255  537   1.505   3.091   0.266 -0.0570  0.2399  0.0737
    2MOL   C256  538   1.572   3.203   0.321 -0.3976  0.7863 -0.3356
    2MOL   C257  539   1.692   3.181   0.396 -0.5586 -0.7489 -0.8740
    2MOL   C258  540   1.766   3.288   0.464 -0.5609  0.2512 -0.3923
    2MOL   C259  541   1.795   3.416   0.424 -0.2153 -0.2769  0.2003
    2MOL   C260  542   1.747   3.052   0.399 -0.0024 -0.1585 -0.5745
    2MOL   C261  543   1.685   2.942   0.339  0.5118  0.2978  0.0079
    2MOL   H262  544   1.408   3.111   0.221 -0.4062 -2.0288 -0.2300
    2MOL   H263  545   1.539   3.306   0.312  0.4970  1.0734 -0.3781
    2MOL   H264  546   1.806   3.255   0.559 -1.3805 -1.4492 -0.6068
    2MOL   H265  547   1.858   3.480   0.483  1.3975 -1.5050 -0.1366
    2MOL   H266  548   1.840   3.044   0.454 -0.4248  2.7418  0.6438
    2MOL   H267  549   1.733   2.846   0.349 -1.1229 -0.5947 -0.4789
    2MOL   C268  550   1.766   3.473   0.298 -0.0272 -0.1204 -0.7475
    2MOL   C269  551   1.750   3.399   0.180  0.0949 -0.2203 -0.5082
    2MOL   C270  552   1.711   3.457   0.057  0.2778 -0.2284 -0.1470
    2MOL   C271  553   1.692   3.600   0.053 -0.2245  0.0013  0.2607
    2MOL   C272  554   1.662   3.666   8.069 -0.6347  0.3228 -1.0079
    2MOL   C273  555   1.670   3.799   8.029  0.7471  0.0221  0.3030
    2MOL   C274  556   1.701   3.682   0.171  0.7009  0.1192 -0.2538
    2MOL   C275  557   1.743   3.612   0.288  0.3516  0.5647 -0.6882
    2MOL   H276  558   1.793   3.301   0.180  1.1106  0.2154  0.4810
    2MOL   H277  559   1.711   3.394   8.114 -0.2358  0.3908 -0.5978
    2MOL   H278  560   1.637   3.608   7.981  1.0847 -3.0300  0.6392
    2MOL   H279  561   1.703   3.870   8.104  0.7996  3.1390 -2.5739
    2MOL   H280  562   1.676   3.787   0.178 -1.7162 -0.4145 -0.3720
    2MOL   H281  563   1.757   3.671   0.377 -1.4566  0.2224 -0.1559
    2MOL   H282  564   1.650   3.838   7.931  1.4925 -0.6792 -0.1405
    3MOL     C1  565   1.215   3.168   6.988  0.5636  0.8717 -0.7999
    3MOL     C2  566   1.166   3.209   6.861 -0.6459 -0.1138  0.3087
    3MOL     C3  567   1.032   3.189   6.824  0.6840  0.0117 -0.4521
    3MOL     C4  568   0.944   3.126   6.912 -0.1993  0.4319 -0.1476
    3MOL     C5  569   0.809   3.093   6.881  0.2185  0.5471 -0.4340
    3MOL     C6  570   0.706   3.090   6.964 -0.4497  0.0745 -0.5712
    3MOL     C7  571   0.994   3.087   7.046  0.0927  0.1708  0.0666
    3MOL     C8  572   1.129   3.098   7.076 -0.1067 -0.7829 -0.0294
    3MOL     H9  573   1.242   3.256   6.800 -0.1156 -0.3363  0.7827
    3MOL    H10  574   1.010   3.221   6.723 -2.1811 -1.4995 -0.3431
    3MOL    H11  575   0.790   3.059   6.780 -1.2515 -1.4764  0.5053
    3MOL    H12  576   0.715   3.119   7.068  0.4312  2.9070 -1.3972
    3MOL    H13  577   0.933   3.053   7.128  0.0586 -0.8553 -0.3793
    3MOL    H14  578   1.162   3.066   7.174  1.2539 -0.4414 -0.3643
    3MOL    H15  579   1.314   3.203   7.015  0.7736  0.2833 -0.8019
    3MOL    C16  580   0.569   3.047   6.917  0.3006 -0.2539  0.1027
    3MOL    C17  581   0.469   3.040   7.018 -0.8376 -0.1061  0.1173
    3MOL    C18  582   0.340   2.991   6.990 -0.3331 -0.3056  0.7378
    3MOL    C19  583   0.302   2.956   6.863  0.4702  0.2497  0.5223
    3MOL    C20  584   0.163   2.911   6.833  0.6709  0.0402 -0.3213
    3MOL    C21  585   0.060   2.933   6.919  1.1595  0.1866 -0.1693
    3MOL    C22  586   0.400   2.947   6.765  0.0339 -0.0629  0.1844
    3MOL    C23  587   0.532   2.991   6.789 -0.4446  0.2460  0.2380
    3MOL    H24  588   0.502   3.046   7.120  2.9494  0.0853 -1.0359
    3MOL    H25  589   0.279   2.970   7.077 -3.2140 -1.8021 -1.5630
    3MOL    H26  590   0.143   2.863   6.738  2.0782  0.2525 -0.7427
    3MOL    H27  591   0.076   2.979   7.015  0.9334  1.7547 -0.8771
    3MOL    H28  592   0.381   2.919   6.663  1.6391 -0.2634 -0.0790
    3MOL    H29  593   0.604   2.992   6.708  1.6484 -0.3533  2.0554
    3MOL    C30  594   8.068   2.879   6.909  0.4180  0.2283 -0.2430
    3MOL    C31  595   8.039   2.763   6.836  0.0342  0.1590  0.5490
    3MOL    C32  596   7.906   2.725   6.833 -0.3326 -0.4193 -0.9728
    3MOL    C33  597   7.801   2.800   6.894 -0.1291  0.2609  0.4484
    3MOL    C34  598   7.663   2.751   6.864 -0.3474  0.1599  0.0617
    3MOL    C35  599   7.546   2.807   6.894  0.4504  0.0459  0.0746
    3MOL    C36  600   7.826   2.922   6.955  0.2521  0.3767  0.3159
    3MOL    C37  601   7.961   2.958   6.972  0.0275 -0.7032 -0.3356
    3MOL    H38  602   8.116   2.700   6.794 -0.4178  0.0984 -0.1973
    3MOL    H39  603   7.885   2.628   6.790 -0.8362 -0.6534 -0.2034
    3MOL    H40  604   7.652   2.657   6.812 -1.0514 -0.4078  1.2069
    3MOL    H41  605   7.541   2.904   6.940 -1.4620 -0.7539  1.6116
    3MOL    H42  606   7.749   2.985   6.996 -0.8001 -1.3405  1.0068
    3MOL    H43  607   7.986   3.051   7.022  0.1854 -0.1523 -1.4222
    3MOL    C44  608   7.407   2.748   6.875  0.5829 -0.1332  0.4364
    3MOL    C45  609   7.404   2.609   6.866 -0.3362 -0.0036 -0.1244
    3MOL    C46  610   7.293   2.533   6.825 -0.8939  0.2940 -0.1198
    3MOL    C47  611   7.173   2.602   6.797 -0.1865  0.4111 -0.7018
    3MOL    C48  612   7.049   2.528   6.766 -0.0725  0.4491  0.1791
    3MOL    C49  613   7.045   2.404   6.714 -0.0522 -0.2779  0.5654
    3MOL    C50  614   7.167   2.743   6.806 -0.3791  0.1723  1.3687
    3MOL    C51  615   7.286   2.815   6.847  0.2179 -0.1508 -0.2820
    3MOL    H52  616   7.490   2.552   6.898 -0.0652  0.9399  0.8288
    3MOL    H53  617   7.301   2.426   6.843 -1.3941  0.2904  0.0836
    3MOL    H54  618   6.960   2.586   6.788  0.5429  1.5914 -0.3249
    3MOL    H55  619   7.140   2.352   6.706 -0.1663 -0.1008 -2.3997
    3MOL    H56  620   7.072   2.786   6.776  0.2157  0.3129 -0.3781
    3MOL    H57  621   7.296   2.922   6.839 -0.5912 -0.0469  0.0604
    3MOL    C58  622   6.937   2.317   6.680 -0.6691 -0.0808  0.4167
    3MOL    C59  623   6.811   2.350   6.734  0.7033 -0.7342 -0.4452
    3MOL    C60  624   6.700   2.268   6.697  1.0600 -0.6342  0.0686
    3MOL    C61  625   6.712   2.160   6.613  0.0730 -0.0566 -0.0509
    3MOL    C62  626   6.597   2.081   6.582  1.1818 -0.0307  0.1421
    3MOL    C63  627   6.470   2.120   6.599  0.5163 -0.2697  0.1352
    3MOL    C64  628   6.841   2.126   6.555 -0.1993 -0.5538  0.1366
    3MOL    C65  629   6.952   2.207   6.593 -0.2047  0.5237 -0.3920
    3MOL    H66  630   6.797   2.436   6.798 -0.5178 -1.5084  0.3518
    3MOL    H67  631   6.605   2.296   6.742  0.9286 -2.0152  0.6633
    3MOL    H68  632   6.609   1.979   6.547 -0.5713 -0.1023 -0.3383
    3MOL    H69  633   6.445   2.221   6.626  1.9347 -0.1469  1.0697
    3MOL    H70  634   6.849   2.041   6.488 -0.5232 -1.9289  1.8081
    3MOL    H71  635   7.048   2.175   6.555 -0.5943 -3.1978  1.5293
    3MOL    C72  636   6.354   2.033   6.582  0.2745  0.4754  0.4432
    3MOL    C73  637   6.228   2.061   6.635 -0.0935  0.4413 -0.0722
    3MOL    C74  638   6.115   1.982   6.612  0.6032 -0.0853  0.5599
    3MOL    C75  639   6.123   1.872   6.518  0.1353 -0.3258  0.6997
    3MOL    C76  640   6.010   1.789   6.484  0.4250  0.0888 -0.1286
    3MOL    C77  641   5.880   1.804   6.518 -0.5068 -0.2411 -0.3048
    3MOL    C78  642   6.252   1.847   6.462  0.3555  0.0916 -0.1327
    3MOL    C79  643   6.368   1.921   6.499 -0.0945  0.0169 -0.3571
    3MOL    H80  644   6.201   2.148   6.692 -0.8224 -0.8587  1.6198
    3MOL    H81  645   6.024   2.008   6.663  0.2753 -1.2251  0.5707
    3MOL    H82  646   6.033   1.695   6.435  1.4459  0.6409 -0.7206
    3MOL    H83  647   5.855   1.898   6.566 -2.0410 -0.4025 -0.7750
    3MOL    H84  648   6.269   1.760   6.399 -1.1422 -0.5984  0.4001
    3MOL    H85  649   6.461   1.900   6.449  0.4092  2.5381 -0.5450
    3MOL    C86  650   5.766   1.723   6.482 -0.2735  0.0166 -0.6473
    3MOL    C87  651   5.780   1.617   6.389  0.4537  0.2417  0.4547
    3MOL    C88  652   5.667   1.534   6.367  0.6212  0.8942  0.4245
    3MOL    C89  653   5.539   1.569   6.422  0.2695 -0.3292 -0.3251
    3MOL    C90  654   5.422   1.489   6.377  0.1337  0.5541  1.1777
    3MOL    C91  655   5.297   1.495   6.415  0.1842  0.5800  0.1728
    3MOL    C92  656   5.531   1.676   6.511  0.1288  0.5927  0.0737
    3MOL    C93  657   5.650   1.742   6.546  0.0763 -0.0055 -0.3310
    3MOL    H94  658   5.873   1.588   6.342  0.6270  3.1923 -1.1667
    3MOL    H95  659   5.672   1.446   6.305  1.5619  0.8351  0.5735
    3MOL    H96  660   5.446   1.426   6.293  3.2703 -1.1828  3.2452
    3MOL    H97  661   5.268   1.555   6.500 -0.6004  1.9372 -1.0155
    3MOL    H98  662   5.444   1.699   6.570  0.1118 -1.3706  0.8307
    3MOL    H99  663   5.647   1.824   6.616 -1.0660  0.6520 -1.1425
    3MOL   C100  664   5.187   1.417   6.360  0.8789  0.0012  0.1494
    3MOL   C101  665   5.059   1.435   6.410  0.3751 -0.5811 -0.0209
    3MOL   C102  666   4.956   1.357   6.357 -0.2740 -0.0953  0.4150
    3MOL   C103  667   4.980   1.253   6.263  0.3714  0.1341  0.0146
    3MOL   C104  668   4.869   1.171   6.210 -0.0715  0.2140  0.2261
    3MOL   C105  669   4.737   1.193   6.223  0.2832  0.1043  0.0117
    3MOL   C106  670   5.112   1.225   6.230 -0.2031  0.2095 -0.2207
    3MOL   C107  671   5.213   1.314   6.263 -0.6156 -0.0204 -0.0677
    3MOL   H108  672   5.032   1.512   6.481 -1.4964  1.0794 -2.4546
    3MOL   H109  673   4.857   1.379   6.396 -0.1094 -2.6063  2.3769
    3MOL   H110  674   4.906   1.079   6.167  0.2174  0.8918 -1.0095
    3MOL   H111  675   4.699   1.288   6.256  0.0965  0.2190 -0.5271
    3MOL   H112  676   5.124   1.128   6.183 -0.6414  0.8187 -1.6427
    3MOL   H113  677   5.310   1.297   6.220 -0.3090  0.2336  0.5207
    3MOL   C114  678   4.633   1.100   6.190  0.3411  0.6109  0.2033
    3MOL   C115  679   4.634   0.991   6.113 -1.0254 -0.0533  0.1417
    3MOL   C116  680   4.523   0.909   6.090 -0.5819  0.1851 -0.2860
    3MOL   C117  681   4.400   0.936   6.158  0.1013  0.4827 -0.5241
    3MOL   C118  682   4.287   0.844   6.121 -0.0984  1.1340  0.4187
    3MOL   C119  683   4.163   0.833   6.170  0.7734 -0.1273 -0.2450
    3MOL   C120  684   4.396   1.049   6.237 -0.0913 -0.5117 -0.4287
    3MOL   C121  685   4.513   1.128   6.258  0.5507 -0.4326  0.3902
    3MOL   H122  686   4.727   0.963   6.065 -0.7404 -0.2379  0.8033
    3MOL   H123  687   4.534   0.822   6.028 -1.3828 -0.1128 -0.0200
    3MOL   H124  688   4.313   0.781   6.038 -3.3364 -0.9113  0.8407
    3MOL   H125  689   4.131   0.890   6.256  0.8039 -0.7571  0.1886
    3MOL   H126  690   4.297   1.075   6.272  0.4246  0.2619  0.4651
    3MOL   H127  691   4.489   1.218   6.313  0.3750  0.9831 -1.9179
    3MOL   C128  692   4.064   0.740   6.121 -0.2371  0.1497 -0.1076
    3MOL   C129  693   4.082   0.673   5.997  0.0658  0.0846  0.1326
    3MOL   C130  694   3.997   0.569   5.960  0.3033 -0.0227 -0.5225
    3MOL   C131  695   3.906   0.518   6.053 -0.8229 -0.8678 -0.1008
    3MOL   C132  696   3.848   0.387   6.024 -0.4092  0.0056  0.1320
    3MOL   C133  697   3.760   0.320   6.103 -0.3897 -0.5331 -0.0276
    3MOL   C134  698   3.881   0.596   6.174  0.0942  0.8739  0.7841
    3MOL   C135  699   3.952   0.714   6.199  0.1623  0.1235 -0.0429
    3MOL   H136  700   4.162   0.702   5.930  0.6546 -0.3377  0.6425
    3MOL   H137  701   4.013   0.513   5.869  0.2845  1.4387 -1.4420
    3MOL   H138  702   3.875   0.348   5.927  0.0014  0.0528  0.2264
    3MOL   H139  703   3.732   0.359   6.199 -2.5368 -2.7113  0.2812
    3MOL   H140  704   3.808   0.558   6.244 -0.0414 -2.5163 -1.0947
    3MOL   H141  705   3.940   0.770   6.290  0.3762  0.3888 -0.1771
    3MOL   C142  706   3.689   0.191   6.087 -0.2213  0.0922 -0.6653
    3MOL   C143  707   3.587   0.157   6.175 -0.1969  0.6111  0.3729
    3MOL   C144  708   3.540   0.027   6.176 -0.2542 -0.0418  0.5648
    3MOL   C145  709   3.589   8.076   6.086 -0.0941 -0.0922  0.0626
    3MOL   C146  710   3.550   7.934   6.091 -0.4205 -0.1462 -0.1409
    3MOL   C147  711   3.466   7.876   6.183 -0.0818 -0.2477 -0.4384
    3MOL   C148  712   3.677   8.113   5.987  0.6559 -0.4225  0.5166
    3MOL   C149  713   3.731   0.094   5.989 -0.3392 -0.5339 -0.6663
    3MOL   H150  714   3.549   0.226   6.249  1.5614  1.4866  0.4799
    3MOL   H151  715   3.460   8.134   6.238 -0.9160  3.2686  1.8459
    3MOL   H152  716   3.596   7.869   6.018  2.1534 -0.1932  1.4375
    3MOL   H153  717   3.421   7.934   6.262  0.8259 -0.8806  0.5586
    3MOL   H154  718   3.700   8.039   5.912 -1.8020  1.1931 -1.9458
    3MOL   H155  719   3.819   0.123   5.932 -1.2768  1.7422 -1.0185
    3MOL   C156  720   3.454   7.730   6.200  0.3490  0.2643 -0.5688
    3MOL   C157  721   3.329   7.673   6.240  0.2721 -0.1274  0.4696
    3MOL   C158  722   3.322   7.533   6.266 -0.6581  0.0184  0.7105
    3MOL   C159  723   3.437   7.452   6.236 -0.4313  0.5594  0.2471
    3MOL   C160  724   3.437   7.307   6.254  0.2823  0.1297 -0.5365
    3MOL   C161  725   3.333   7.223   6.288 -0.3962 -1.7317 -0.0764
    3MOL   C162  726   3.555   7.512   6.185  0.0362  0.7200 -0.1897
    3MOL   C163  727   3.564   7.645   6.170 -0.2625  0.0509 -0.5536
    3MOL   H164  728   3.249   7.746   6.244  1.7827  1.5571  0.8125
    3MOL   H165  729   3.225   7.492   6.290 -0.8902  0.0085 -0.2177
    3MOL   H166  730   3.534   7.262   6.241  0.9411  0.6305  2.2737
    3MOL   H167  731   3.234   7.266   6.300  0.8128  0.8321  1.2197
    3MOL   H168  732   3.641   7.450   6.162 -1.0996 -0.3551 -1.6752
    3MOL   H169  733   3.659   7.686   6.139 -0.2314  1.8129  1.7393
    3MOL   C170  734   3.334   7.081   6.300  0.1811  0.4095  0.2316
    3MOL   C171  735   3.454   7.006   6.269 -0.0553 -0.8899  0.3856
    3MOL   C172  736   3.445   6.867   6.294  0.4435  0.4070  0.3148
    3MOL   C173  737   3.331   6.811   6.353 -0.3024 -0.0594  0.5409
    3MOL   C174  738   3.308   6.668   6.371  0.2023  0.0983 -0.5137
    3MOL   C175  739   3.378   6.565   6.322  0.5803  0.4927  0.0595
    3MOL   C176  740   3.220   6.893   6.394  0.3230 -0.0689 -1.0150
    3MOL   C177  741   3.221   7.029   6.355  0.4484  0.0993 -0.4061
    3MOL   H178  742   3.543   7.058   6.239 -1.3103  1.4137  0.5514
    3MOL   H179  743   3.529   6.804   6.267 -1.5536 -1.9733 -0.5375
    3MOL   H180  744   3.229   6.642   6.439 -0.0351  1.6643 -0.1860
    3MOL   H181  745   3.450   6.578   6.243  0.8119  0.3409  0.2448
    3MOL   H182  746   3.130   6.847   6.431 -0.6063  2.9144  0.5815
    3MOL   H183  747   3.139   7.094   6.382 -2.0495 -2.1311 -2.3142
    3MOL   C184  748   3.347   6.430   6.361 -0.4764  0.7497 -1.2095
    3MOL   C185  749   3.450   6.336   6.334  0.4057  0.1428  0.4667
    3MOL   C186  750   3.426   6.195   6.374  0.3966  0.3125  0.1940
    3MOL   C187  751   3.309   6.157   6.442 -0.3819 -0.0155 -0.2281
    3MOL   C188  752   3.297   6.009   6.472 -0.0074  0.3296 -0.1441
    3MOL   C189  753   3.187   5.953   6.523  0.1176  0.7675  0.7589
    3MOL   C190  754   3.202   6.246   6.460 -0.3210 -0.5722  0.4887
    3MOL   C191  755   3.223   6.385   6.418  0.3927  0.2273 -0.3955
    3MOL   H192  756   3.541   6.363   6.283  1.1723 -1.7339  0.7836
    3MOL   H193  757   3.507   6.126   6.356 -1.5700 -1.0480 -4.0859
    3MOL   H194  758   3.386   5.948   6.461 -0.2110  0.1635 -0.9001
    3MOL   H195  759   3.094   6.007   6.534 -0.2527  0.1287  0.7817
    3MOL   H196  760   3.099   6.235   6.489 -0.5589  1.6564  0.5859
    3MOL   H197  761   3.136   6.447   6.427  0.5065  0.6157 -1.8297
    3MOL   C198  762   3.187   5.809   6.569  0.6206  0.2157  0.6591
    3MOL   C199  763   3.300   5.730   6.587  0.3972  0.6250  0.1918
    3MOL   C200  764   3.292   5.609   6.658 -0.0912 -0.2651 -0.1398
    3MOL   C201  765   3.168   5.549   6.689  0.3494 -0.4971 -0.0021
    3MOL   C202  766   3.170   5.421   6.752  0.3764  0.1963  0.3848
    3MOL   C203  767   3.062   5.362   6.797  0.3920 -0.2100  0.1897
    3MOL   C204  768   3.052   5.622   6.658 -0.1463 -0.3310 -0.2201
    3MOL   C205  769   3.067   5.758   6.616  0.2356  0.0864 -0.1585
    3MOL   H206  770   3.395   5.770   6.558 -0.3830  0.9039 -2.0472
    3MOL   H207  771   3.384   5.556   6.676 -0.8990 -2.1645 -1.3768
    3MOL   H208  772   3.261   5.363   6.754 -0.5659 -1.3288 -0.2339
    3MOL   H209  773   2.971   5.421   6.791  0.5376  0.0195  0.2418
    3MOL   H210  774   2.955   5.577   6.672  0.7614 -2.5774 -0.9558
    3MOL   H211  775   2.980   5.820   6.600 -0.3421 -0.8110 -0.5361
    3MOL   C212  776   3.049   5.233   6.865 -0.5440 -0.4717 -0.1486
    3MOL   C213  777   3.160   5.154   6.896 -0.2486 -0.1517 -0.4913
    3MOL   C214  778   3.136   5.031   6.961 -0.5998  0.5204 -0.1978
    3MOL   C215  779   3.008   4.986   6.995  0.2022 -0.1792 -0.2712
    3MOL   C216  780   2.982   4.847   7.046 -0.2259 -0.1827 -0.4499
    3MOL   C217  781   3.069   4.744   7.037  0.2279  0.6284  0.3506
    3MOL   C218  782   2.900   5.072   6.970  0.3178  0.6278  0.3430
    3MOL   C219  783   2.918   5.192   6.909 -0.3167  0.0866  0.5304
    3MOL   H220  784   3.259   5.188   6.868  0.0272 -1.2785 -0.9323
    3MOL   H221  785   3.223   4.970   6.981  0.8386  2.1007 -1.4710
    3MOL   H222  786   2.886   4.836   7.093  0.7117 -0.4247  1.4489
    3MOL   H223  787   3.168   4.759   6.996 -0.0452  1.2857 -0.0846
    3MOL   H224  788   2.801   5.039   6.998  0.6941 -0.9671 -0.1010
    3MOL   H225  789   2.834   5.259   6.892  2.8303  3.9908 -0.4224
    3MOL   C226  790   3.035   4.598   7.081  0.1119 -1.0616 -0.5483
    3MOL   C227  791   3.111   4.484   7.043  0.7437 -0.2480 -0.2160
    3MOL   C228  792   3.073   4.353   7.076  0.0159 -0.6402  1.1047
    3MOL   C229  793   2.964   4.331   7.152 -0.2876 -1.1395  0.0067
    3MOL   C230  794   2.923   4.202   7.197  0.1639  0.2261  0.0085
    3MOL   C231  795   2.987   4.088   7.200  0.0995  0.0918 -0.8179
    3MOL   C232  796   2.895   4.441   7.197 -0.2918  0.4427 -0.0991
    3MOL   C233  797   2.921   4.575   7.158  0.0719 -0.7217  0.1283
    3MOL   H234  798   3.200   4.503   6.984  1.7309  0.6825  1.5346
    3MOL   H235  799   3.126   4.273   7.028 -0.4627  0.1145 -0.7209
    3MOL   H236  800   2.819   4.203   7.229 -0.0233  2.2953 -0.5777
    3MOL   H237  801   3.090   4.089   7.169  0.4681 -2.8210  0.1452
    3MOL   H238  802   2.808   4.421   7.259  0.4328 -0.5968  0.5875
    3MOL   H239  803   2.864   4.654   7.204 -2.4904 -0.7901 -2.7812
    3MOL   C240  804   2.932   3.964   7.250  0.7191  0.3335  0.4816
    3MOL   C241  805   3.017   3.855   7.256 -0.5864 -0.0559  0.6926
    3MOL   C242  806   2.970   3.731   7.304 -0.3166  0.1141  0.9325
    3MOL   C243  807   2.842   3.705   7.350 -0.0017  0.1991  0.5605
    3MOL   C244  808   2.799   3.581   7.418 -0.2341  0.7458  0.4143
    3MOL   C245  809   2.876   3.495   7.486  0.1858  0.2612 -0.4391
    3MOL   C246  810   2.756   3.815   7.338  0.6045 -0.0058  0.3837
    3MOL   C247  811   2.796   3.938   7.283  0.9082  0.4970 -0.0712
    3MOL   H248  812   3.119   3.865   7.222 -0.4281 -0.0435  1.1702
    3MOL   H249  813   3.033   3.643   7.304 -0.0605  0.2981  0.0599
    3MOL   H250  814   2.694   3.560   7.433  0.1614 -1.1074  0.8342
    3MOL   H251  815   2.983   3.508   7.482  0.3895 -0.1421  2.5979
    3MOL   H252  816   2.656   3.813   7.378 -0.2256 -1.5681 -1.6403
    3MOL   H253  817   2.720   4.015   7.285 -0.4243 -0.8342  1.5358
    3MOL   C254  818   2.830   3.378   7.569 -0.8548 -0.3941  0.2364
    3MOL   C255  819   2.697   3.352   7.605 -0.4099  0.3720  0.2032
    3MOL   C256  820   2.662   3.228   7.665  0.1134 -0.6888  0.3170
    3MOL   C257  821   2.763   3.147   7.720 -0.4334 -0.1954  0.3228
    3MOL   C258  822   2.721   3.032   7.803  0.5220 -0.0154  0.7886
    3MOL   C259  823   2.798   2.971   7.891  0.0769 -0.5321  0.4258
    3MOL   C260  824   2.899   3.174   7.686  0.3405 -0.4713  0.4328
    3MOL   C261  825   2.933   3.287   7.612  0.4941 -0.6161  0.0084
    3MOL   H262  826   2.614   3.418   7.590  0.7708  2.0545  0.8964
    3MOL   H263  827   2.558   3.207   7.683 -0.1454 -1.1472 -1.5881
    3MOL   H264  828   2.623   2.991   7.784  0.5327  0.6015 -0.7043
    3MOL   H265  829   2.750   2.893   7.948  0.1804 -1.1589 -0.3353
    3MOL   H266  830   2.982   3.117   7.726  0.4696  0.5601  1.6875
    3MOL   H267  831   3.037   3.307   7.588  0.2830  2.2026  1.2602
    3MOL   C268  832   2.929   3.000   7.937 -0.3538  0.0941 -0.6939
    3MOL   C269  833   2.950   3.116   8.010  0.0351  0.2593  0.3398
    3MOL   C270  834   3.081   3.154   8.047  0.1147 -0.0029 -0.0941
    3MOL   C271  835   3.186   3.067   8.016 -0.9745 -0.4648  0.0854
    3MOL   C272  836   3.324   3.101   8.049  0.6159  0.0188  0.9193
    3MOL   C273  837   3.437   3.065   7.981 -0.1611  0.2662 -0.4193
    3MOL   C274  838   3.162   2.945   7.953 -0.4707 -0.4191  0.1211
    3MOL   C275  839   3.031   2.910   7.904 -0.2359 -0.0603  0.1338
    3MOL   H276  840   2.860   3.173   8.027 -1.6354 -2.4510  0.9512
    3MOL   H277  841   3.107   3.245   8.099  0.2309  0.4869 -0.9901
    3MOL   H278  842   3.347   3.163   8.134 -0.9475 -0.0213  1.3872
    3MOL   H279  843   3.430   3.008   7.890 -0.2667 -0.9117  0.3160
    3MOL   H280  844   3.234   2.866   7.935 -0.3988 -0.1722 -0.6962
    3MOL   H281  845   3.001   2.819   7.855 -0.2627 -2.0235  3.6595
    3MOL   H282  846   3.537   3.094   8.012 -1.5735  1.5754  3.1965
    4MOL     C1  847   0.437   0.904   2.279 -0.6188 -0.5695  0.0149
    4MOL     C2  848   0.550   0.976   2.320  0.2268  0.9643 -0.0584
    4MOL     C3  849   0.662   0.907   2.376  0.0766 -0.4143 -0.0121
    4MOL     C4  850   0.664   0.764   2.368  0.5450  0.3210 -0.0275
    4MOL     C5  851   0.785   0.690   2.382 -0.5161 -0.1417 -0.4413
    4MOL     C6  852   0.910   0.743   2.369  0.2659  0.1584  0.3122
    4MOL     C7  853   0.549   0.695   2.326 -0.1059 -0.3293  0.5969
    4MOL     C8  854   0.433   0.764   2.279 -0.6516  0.5150 -0.6147
    4MOL     H9  855   0.545   1.084   2.321 -1.2617  0.9021 -0.5011
    4MOL    H10  856   0.743   0.968   2.412 -0.5052  0.5411 -0.3064
    4MOL    H11  857   0.786   0.586   2.409 -0.4226 -0.0432 -0.0600
    4MOL    H12  858   0.919   0.845   2.335  0.4765  0.4296  1.1633
    4MOL    H13  859   0.551   0.588   2.312  2.4492 -0.1562 -0.7952
    4MOL    H14  860   0.342   0.713   2.250 -0.8352  2.2084 -3.1652
    4MOL    H15  861   0.354   0.954   2.231  0.1352 -0.2288 -0.9439
    4MOL    C16  862   1.036   0.664   2.377  0.1399 -0.1743 -0.0370
    4MOL    C17  863   1.155   0.739   2.407  0.1519  0.0465 -0.6576
    4MOL    C18  864   1.271   0.673   2.419 -0.9732  0.8139  0.0741
    4MOL    C19  865   1.283   0.531   2.406 -0.0354  0.8745  0.2057
    4MOL    C20  866   1.413   0.466   2.413 -1.1778 -0.6093 -0.7369
    4MOL    C21  867   1.445   0.342   2.362 -0.3148 -0.0997 -0.2538
    4MOL    C22  868   1.166   0.455   2.376  0.1695 -0.4240 -0.6745
    4MOL    C23  869   1.043   0.523   2.370 -0.0963 -0.5392 -0.0119
    4MOL    H24  870   1.150   0.847   2.418  1.1028  0.1273 -0.9395
    4MOL    H25  871   1.361   0.731   2.432 -0.1250 -0.5975  0.7226
    4MOL    H26  872   1.490   0.518   2.467 -0.9976 -1.0077 -0.6036
    4MOL    H27  873   1.372   0.284   2.307  1.6301 -0.8055 -2.1687
    4MOL    H28  874   1.150   0.349   2.365  0.2518 -0.8982  3.1382
    4MOL    H29  875   0.957   0.462   2.349 -0.1880 -0.2711 -0.4408
    4MOL    C30  876   1.584   0.278   2.385 -0.2216  0.7821  0.0036
    4MOL    C31  877   1.691   0.334   2.451 -0.7476 -0.2840  0.3262
    4MOL    C32  878   1.813   0.266   2.465  0.4551  0.2199  0.3012
    4MOL    C33  879   1.831   0.138   2.410 -0.1915 -0.4461  0.0778
    4MOL    C34  880   1.966   0.080   2.423  0.6492  0.1559  0.3887
    4MOL    C35  881   2.000   8.107   2.362  0.1725  0.2751  0.0531
    4MOL    C36  882   1.719   0.079   2.338  0.9859  0.7427 -0.2655
    4MOL    C37  883   1.595   0.155   2.320 -0.2852 -0.0028 -1.0833
    4MOL    H38  884   1.677   0.433   2.493 -0.5136  0.1219 -0.5345
    4MOL    H39  885   1.897   0.316   2.511 -0.4565  0.6387  1.5426
    4MOL    H40  886   2.029   0.134   2.492  0.7137  0.9267 -0.2799
    4MOL    H41  887   1.933   8.060   2.293 -0.7499 -0.5688  1.4996
    4MOL    H42  888   1.723   8.129   2.287 -1.0176  1.4648 -1.8152
    4MOL    H43  889   1.507   0.117   2.270 -0.5359 -0.2809 -0.4300
    4MOL    C44  890   2.127   8.040   2.379  0.3475 -0.5738 -0.0853
    4MOL    C45  891   2.182   7.974   2.270 -0.1257  0.5586 -0.0187
    4MOL    C46  892   2.317   7.934   2.266 -0.5991 -0.8875 -0.2575
    4MOL    C47  893   2.398   7.945   2.379  0.4812 -0.2655  0.1711
    4MOL    C48  894   2.537   7.902   2.368 -0.6357 -0.0191 -0.3188
    4MOL    C49  895   2.628   7.906   2.467  0.4031  0.4650  0.2941
    4MOL    C50  896   2.338   8.000   2.496  0.2088  0.1173 -0.1983
    4MOL    C51  897   2.211   8.058   2.496 -0.5055 -0.0901 -0.4226
    4MOL    H52  898   2.118   7.961   2.185 -2.2230  1.0210  1.4476
    4MOL    H53  899   2.353   7.891   2.174  0.7646 -2.1597  0.8499
    4MOL    H54  900   2.565   7.859   2.272 -0.5036  3.6747 -1.9996
    4MOL    H55  901   2.593   7.960   2.553 -0.3079 -0.4325  0.5794
    4MOL    H56  902   2.390   8.008   2.591 -0.4272 -1.0731  0.2572
    4MOL    H57  903   2.174   8.106   2.586  0.9165 -2.0956  1.2901
    4MOL    C58  904   2.770   7.864   2.462  0.3786 -0.2272  0.7012
    4MOL    C59  905   2.839   7.848   2.341  0.2544 -0.2951 -0.3937
    4MOL    C60  906   2.972   7.813   2.345  0.3491  0.5670  0.5708
    4MOL    C61  907   3.036   7.794   2.468 -0.6880 -0.2144 -0.1405
    4MOL    C62  908   3.181   7.763   2.472  0.1561 -0.2752  0.2937
    4MOL    C63  909   3.264   7.749   2.369  0.3154 -0.7871 -0.4838
    4MOL    C64  910   2.967   7.812   2.587  0.0436 -0.5259 -1.3162
    4MOL    C65  911   2.830   7.835   2.586  0.5377 -0.4687  0.7403
    4MOL    H66  912   2.793   7.873   2.246 -4.1030 -2.1128  1.0860
    4MOL    H67  913   3.029   7.805   2.254 -0.6704  0.4821 -0.0556
    4MOL    H68  914   3.217   7.764   2.574 -1.6545 -0.2539  0.9602
    4MOL    H69  915   3.228   7.761   2.268 -1.0501 -2.1709 -0.1773
    4MOL    H70  916   3.008   7.791   2.684 -1.1938  2.0332 -0.2068
    4MOL    H71  917   2.776   7.840   2.679 -0.5976  3.5646 -0.0408
    4MOL    C72  918   3.409   7.715   2.377  0.5141 -0.4127  0.0414
    4MOL    C73  919   3.490   7.745   2.488  0.1415  0.3716 -0.1308
    4MOL    C74  920   3.625   7.707   2.493  0.7602 -0.2946 -0.1171
    4MOL    C75  921   3.678   7.632   2.389 -0.6023  0.2459 -0.2527
    4MOL    C76  922   3.812   7.573   2.390 -0.8432 -0.1752 -0.2327
    4MOL    C77  923   3.908   7.585   2.482 -0.8254 -0.5323  0.2108
    4MOL    C78  924   3.601   7.611   2.272 -0.0373  0.4498  0.4126
    4MOL    C79  925   3.465   7.653   2.265  0.4458 -0.2483 -0.0346
    4MOL    H80  926   3.442   7.784   2.577 -0.0817 -1.1118  0.4068
    4MOL    H81  927   3.684   7.736   2.578  1.8780  0.5557 -1.1785
    4MOL    H82  928   3.828   7.513   2.302 -1.0831 -0.4086 -0.1158
    4MOL    H83  929   3.892   7.652   2.565 -0.0841  0.9083 -0.7736
    4MOL    H84  930   3.645   7.559   2.188 -1.5549  0.7043 -0.5567
    4MOL    H85  931   3.410   7.637   2.174  0.3030 -0.5415  0.1034
    4MOL    C86  932   4.035   7.522   2.494 -0.0405 -0.5383 -0.3750
    4MOL    C87  933   4.056   7.412   2.408 -0.0699  0.5510 -0.1326
    4MOL    C88  934   4.179   7.341   2.429 -0.2220 -0.1898  1.3242
    4MOL    C89  935   4.280   7.385   2.514  0.5220 -0.3387  0.6993
    4MOL    C90  936   4.405   7.311   2.533 -0.5087 -0.4130 -0.4279
    4MOL    C91  937   4.434   7.197   2.466  0.7378  0.3036  0.4297
    4MOL    C92  938   4.259   7.511   2.582  0.3213  0.3363  0.3816
    4MOL    C93  939   4.137   7.574   2.572  0.4962  0.3407  0.0673
    4MOL    H94  940   3.988   7.369   2.335 -1.7251 -0.1752  1.7845
    4MOL    H95  941   4.196   7.252   2.371  1.5894  0.8129  0.2580
    4MOL    H96  942   4.480   7.354   2.598 -1.4799  2.4956 -1.1340
    4MOL    H97  943   4.360   7.159   2.398 -1.0412  0.4686  2.2275
    4MOL    H98  944   4.343   7.560   2.628 -0.3478  0.6454  1.2723
    4MOL    H99  945   4.114   7.667   2.623 -1.4237 -0.2721  0.3534
    4MOL   C100  946   4.563   7.126   2.472  0.2508 -0.9817  0.0617
    4MOL   C101  947   4.658   7.147   2.576 -0.0827 -0.8036  0.7704
    4MOL   C102  948   4.787   7.086   2.570  0.6410 -0.8743 -0.6869
    4MOL   C103  949   4.822   7.002   2.466  0.5745  0.9111  0.5950
    4MOL   C104  950   4.958   6.937   2.470  0.2278  0.6094 -0.2228
    4MOL   C105  951   5.015   6.842   2.392  0.0253  0.0282 -0.9012
    4MOL   C106  952   4.733   6.984   2.356  0.0253  0.7361  0.0756
    4MOL   C107  953   4.603   7.041   2.365  0.4600 -0.7270  0.1508
    4MOL   H108  954   4.625   7.202   2.664 -2.4325 -1.3500  0.2629
    4MOL   H109  955   4.855   7.097   2.653  0.6951 -1.9605 -0.5836
    4MOL   H110  956   5.011   6.974   2.556 -0.1133  0.9392 -0.1518
    4MOL   H111  957   4.948   6.801   2.319 -0.4307 -0.7043 -0.0792
    4MOL   H112  958   4.758   6.913   2.280  1.2014  2.2155 -0.9539
    4MOL   H113  959   4.531   7.013   2.289 -0.4255  0.3621  0.5740
    4MOL   C114  960   5.155   6.790   2.409 -0.2126  0.4405 -0.2850
    4MOL   C115  961   5.235   6.809   2.524  0.0293  0.0791  0.0694
    4MOL   C116  962   5.376   6.774   2.534  0.3314 -0.1336 -0.0505
    4MOL   C117  963   5.433   6.718   2.422  0.9341 -0.0018  0.0170
    4MOL   C118  964   5.578   6.687   2.426  0.5149 -0.6632  0.1004
    4MOL   C119  965   5.650   6.675   2.536  0.1219 -0.6544 -0.4599
    4MOL   C120  966   5.350   6.700   2.305 -0.1710  0.0689  0.3745
    4MOL   C121  967   5.214   6.736   2.301 -0.6824  0.2535  0.2186
    4MOL   H122  968   5.200   6.863   2.611 -0.7499 -1.0727  0.4870
    4MOL   H123  969   5.424   6.798   2.628  2.6362 -1.8963 -0.7480
    4MOL   H124  970   5.618   6.674   2.326  0.5226 -0.4615  0.0787
    4MOL   H125  971   5.611   6.683   2.637  0.1077  0.4283 -0.5434
    4MOL   H126  972   5.394   6.661   2.215  0.2970 -0.9692  1.0401
    4MOL   H127  973   5.168   6.731   2.204 -0.4777  2.4002 -0.0342
    4MOL   C128  974   5.791   6.650   2.544 -0.3139 -0.6428 -0.2347
    4MOL   C129  975   5.876   6.639   2.436 -0.9043 -0.5468  0.4080
    4MOL   C130  976   6.016   6.632   2.441 -0.2984  0.3435  0.3934
    4MOL   C131  977   6.072   6.625   2.572  0.0419  0.3093  0.7037
    4MOL   C132  978   6.223   6.622   2.590  0.0130  0.0939 -0.4719
    4MOL   C133  979   6.286   6.598   2.711 -0.3003 -0.0377  0.1087
    4MOL   C134  980   5.987   6.628   2.686 -0.5088 -0.0391  0.4506
    4MOL   C135  981   5.846   6.644   2.674 -0.0117 -0.2402 -0.2215
    4MOL   H136  982   5.821   6.641   2.343 -0.3657 -2.7050  0.0289
    4MOL   H137  983   6.075   6.624   2.351 -0.1156  1.5152  0.3962
    4MOL   H138  984   6.285   6.642   2.504 -0.8099  1.9844 -0.6538
    4MOL   H139  985   6.232   6.609   2.804  1.5830  0.6838  1.1511
    4MOL   H140  986   6.028   6.611   2.785 -0.4853 -0.9764  0.2863
    4MOL   H141  987   5.788   6.651   2.765  0.2121 -1.4262  0.0239
    4MOL   C142  988   6.430   6.567   2.729 -0.5793 -0.2193  0.4653
    4MOL   C143  989   6.487   6.595   2.852  0.0671  0.0631 -0.6355
    4MOL   C144  990   6.623   6.577   2.879  0.1801 -0.4075  0.3196
    4MOL   C145  991   6.709   6.538   2.772  0.1786 -0.1712  0.4356
    4MOL   C146  992   6.861   6.517   2.787  0.2173  0.1046  0.2562
    4MOL   C147  993   6.917   6.481   2.902  0.1976 -0.1616 -0.5434
    4MOL   C148  994   6.651   6.517   2.645 -0.0104 -0.1862  0.2271
    4MOL   C149  995   6.513   6.526   2.624  0.1489 -0.0786 -0.0064
    4MOL   H150  996   6.421   6.631   2.929  1.1438 -1.0612  0.8484
    4MOL   H151  997   6.669   6.600   2.974 -0.3539 -1.2451  0.7864
    4MOL   H152  998   6.921   6.532   2.699  1.8603 -0.2522  1.2998
    4MOL   H153  999   6.866   6.462   2.995  0.9780  1.7012  0.2928
    4MOL   H154 1000   6.720   6.491   2.566 -2.4487  0.1193 -2.1070
    4MOL   H155 1001   6.470   6.501   2.528 -1.0542 -0.0402  0.5112
    4MOL   C156 1002   7.061   6.462   2.930  0.4745 -0.3945  0.4991
    4MOL   C157 1003   7.098   6.452   3.069 -0.2135 -0.3921  0.0992
    4MOL   C158 1004   7.230   6.430   3.112 -0.0576 -0.2185  0.1632
    4MOL   C159 1005   7.331   6.415   3.017  0.1921  0.7374  0.1991
    4MOL   C160 1006   7.469   6.403   3.037  0.2184  0.5021 -0.5597
    4MOL   C161 1007   7.533   6.369   3.149  0.1985 -0.1888 -0.6857
    4MOL   C162 1008   7.299   6.430   2.875 -0.2864  0.0364 -0.1333
    4MOL   C163 1009   7.167   6.455   2.840 -0.9163  0.1581  0.2863
    4MOL   H164 1010   7.026   6.465   3.148 -3.2080 -1.2203 -2.3849
    4MOL   H165 1011   7.251   6.432   3.218  0.8962  1.5133 -0.0321
    4MOL   H166 1012   7.540   6.419   2.957  0.8473  2.5003  0.3673
    4MOL   H167 1013   7.469   6.348   3.233 -0.1033  0.1121 -0.8383
    4MOL   H168 1014   7.374   6.434   2.797 -1.3842  0.5948 -1.1915
    4MOL   H169 1015   7.142   6.471   2.736 -0.4258 -2.2035 -0.2121
    4MOL   C170 1016   7.678   6.349   3.171 -0.4500  0.4550  0.2614
    4MOL   C171 1017   7.764   6.320   3.059  0.3052  0.6299 -0.0263
    4MOL   C172 1018   7.898   6.275   3.078  0.1372 -0.9799  0.6262
    4MOL   C173 1019   7.950   6.267   3.209 -0.7569  0.1312  0.2483
    4MOL   C174 1020   8.081   6.211   3.251  0.2587  0.2412 -0.1592
    4MOL   C175 1021   0.024   6.160   3.165  0.1918  0.4161 -0.4215
    4MOL   C176 1022   7.871   6.314   3.318 -0.2090  0.4240  0.1914
    4MOL   C177 1023   7.733   6.345   3.302  0.1238 -0.2099 -0.3815
    4MOL   H178 1024   7.722   6.322   2.959  3.0489 -1.5848 -1.3170
    4MOL   H179 1025   7.947   6.265   2.983  0.1644  1.3280  0.3749
    4MOL   H180 1026   8.097   6.219   3.357 -0.0349  1.1688 -0.1855
    4MOL   H181 1027   0.004   6.157   3.059  4.0035  3.0467 -1.3126
    4MOL   H182 1028   7.927   6.320   3.410  0.3515 -0.8871 -0.0514
    4MOL   H183 1029   7.678   6.358   3.394  1.0606  0.9562  0.0276
    4MOL   C184 1030   0.151   6.109   3.212 -0.0864 -0.2977 -0.0164
    4MOL   C185 1031   0.218   6.030   3.121 -0.0019 -0.3454 -0.1219
    4MOL   C186 1032   0.341   5.973   3.160 -0.8396  0.2972  0.1440
    4MOL   C187 1033   0.396   5.996   3.291  0.4196  0.4134 -0.5117
    4MOL   C188 1034   0.523   5.938   3.326 -0.3193 -0.2961 -0.5909
    4MOL   C189 1035   0.608   5.868   3.240  0.5513 -0.0596 -0.4922
    4MOL   C190 1036   0.319   6.074   3.380  0.5525  0.0236 -0.2674
    4MOL   C191 1037   0.204   6.133   3.340  0.7479 -0.1159 -0.4298
    4MOL   H192 1038   0.176   6.012   3.023  0.9779 -0.5509 -0.5115
    4MOL   H193 1039   0.377   5.900   3.088  0.3357  0.1747  0.8497
    4MOL   H194 1040   0.547   5.957   3.430  2.2926 -0.5870 -1.0904
    4MOL   H195 1041   0.589   5.857   3.134  2.2181  1.6654 -0.9851
    4MOL   H196 1042   0.355   6.079   3.481 -1.9263  0.3681  0.6179
    4MOL   H197 1043   0.145   6.184   3.415 -1.1102 -0.2884 -1.7423
    4MOL   C198 1044   0.733   5.815   3.291  0.1098 -0.0886 -0.3584
    4MOL   C199 1045   0.782   5.799   3.426 -0.2718  0.0721 -0.7447
    4MOL   C200 1046   0.914   5.741   3.445  0.4546 -0.5144 -0.1482
    4MOL   C201 1047   0.982   5.679   3.341 -0.2199 -0.0430  0.2585
    4MOL   C202 1048   1.113   5.612   3.371  0.8028  0.0848  0.0931
    4MOL   C203 1049   1.185   5.563   3.275 -0.5559 -0.0439  0.0687
    4MOL   C204 1050   0.927   5.685   3.208 -0.5600 -0.4174  0.6426
    4MOL   C205 1051   0.808   5.752   3.188  0.3874  0.0207 -0.3608
    4MOL   H206 1052   0.719   5.813   3.512  0.3812  0.1250 -0.2663
    4MOL   H207 1053   0.956   5.744   3.545 -0.1812 -0.4451  0.1220
    4MOL   H208 1054   1.143   5.604   3.475  1.1820  1.5873  0.1145
    4MOL   H209 1055   1.160   5.579   3.171 -1.3890 -0.0831  0.2565
    4MOL   H210 1056   0.962   5.640   3.116  0.7466  1.5345  0.1688
    4MOL   H211 1057   0.774   5.751   3.085  1.5924 -2.5053 -0.7732
    4MOL   C212 1058   1.314   5.492   3.293 -0.3997  0.6297 -0.4915
    4MOL   C213 1059   1.366   5.421   3.182 -0.4930  0.4843  0.5724
    4MOL   C214 1060   1.479   5.346   3.195 -0.2274  0.2776  0.0202
    4MOL   C215 1061   1.546   5.326   3.317  0.6378 -0.5214  0.0077
    4MOL   C216 1062   1.666   5.247   3.334  0.8056  0.2690 -0.4224
    4MOL   C217 1063   1.750   5.202   3.238 -0.4752 -0.0519 -0.9837
    4MOL   C218 1064   1.494   5.386   3.432 -0.9211  0.3292  0.0039
    4MOL   C219 1065   1.375   5.461   3.416  0.4563  0.4591 -0.3115
    4MOL   H220 1066   1.313   5.426   3.088 -1.3890 -2.2544  0.8921
    4MOL   H221 1067   1.520   5.300   3.106 -2.2266 -0.9252 -0.3019
    4MOL   H222 1068   1.691   5.216   3.434 -0.7940  0.2877 -0.0043
    4MOL   H223 1069   1.729   5.208   3.133 -0.8115  0.2106 -0.9016
    4MOL   H224 1070   1.532   5.357   3.528 -1.1761 -0.7420 -0.2051
    4MOL   H225 1071   1.338   5.494   3.512  1.6798  2.1229 -0.3729
    4MOL   C226 1072   1.874   5.125   3.256 -0.4127 -0.2945  0.4391
    4MOL   C227 1073   1.947   5.087   3.136  0.7395 -0.4850 -0.2324
    4MOL   C228 1074   2.064   5.012   3.140 -0.5541 -0.3017 -0.3198
    4MOL   C229 1075   2.108   4.958   3.264  0.1894  0.2747 -0.2630
    4MOL   C230 1076   2.229   4.882   3.284 -0.3984  0.2789 -0.8099
    4MOL   C231 1077   2.323   4.865   3.192  0.9073  0.2856 -0.0619
    4MOL   C232 1078   2.036   4.992   3.378 -0.4577  0.7109  0.3604
    4MOL   C233 1079   1.930   5.082   3.375 -0.0738 -0.4729 -0.3663
    4MOL   H234 1080   1.920   5.124   3.038  0.2116 -0.5773 -0.1250
    4MOL   H235 1081   2.113   4.993   3.045 -1.1600 -0.7481 -0.5453
    4MOL   H236 1082   2.237   4.835   3.381  1.5896 -2.2376 -2.1222
    4MOL   H237 1083   2.300   4.894   3.090  1.4489  1.5142  0.1530
    4MOL   H238 1084   2.062   4.960   3.477  2.0520 -0.3696 -0.6067
    4MOL   H239 1085   1.881   5.106   3.468  0.9104 -1.7658  0.5017
    4MOL   C240 1086   2.444   4.785   3.201 -0.2687  0.3197  0.1600
    4MOL   C241 1087   2.443   4.672   3.286 -0.5675  0.6012  0.4350
    4MOL   C242 1088   2.555   4.585   3.295  0.4757  0.3076  0.3420
    4MOL   C243 1089   2.663   4.604   3.206  0.6157  0.1265 -0.2162
    4MOL   C244 1090   2.775   4.509   3.206  0.2514 -0.0473  0.0786
    4MOL   C245 1091   2.898   4.539   3.165 -0.2357 -0.1109  0.3095
    4MOL   C246 1092   2.660   4.717   3.125 -0.5192  0.0574 -0.2379
    4MOL   C247 1093   2.552   4.811   3.119 -0.2072  0.4664  0.0007
    4MOL   H248 1094   2.352   4.657   3.342 -1.4621  1.1452 -0.8650
    4MOL   H249 1095   2.554   4.508   3.371 -1.1302  0.3150  0.3334
    4MOL   H250 1096   2.753   4.411   3.247  0.5005  0.3230  1.1097
    4MOL   H251 1097   2.925   4.638   3.132  0.7553 -0.4796 -0.0021
    4MOL   H252 1098   2.735   4.726   3.048 -0.3855 -1.8418 -0.3606
    4MOL   H253 1099   2.547   4.886   3.041 -2.5469 -1.5226 -1.8233
    4MOL   C254 1100   3.010   4.439   3.170  0.0403  0.1461 -0.2960
    4MOL   C255 1101   3.094   4.428   3.280 -0.3281 -0.3153 -0.1402
    4MOL   C256 1102   3.192   4.330   3.282  0.0235  0.0201 -0.4905
    4MOL   C257 1103   3.201   4.235   3.175  0.2237  0.1692 -0.2047
    4MOL   C258 1104   3.269   4.108   3.194  0.0753 -0.3393 -0.4647
    4MOL   C259 1105   3.217   3.982   3.177  0.3143  0.5423  0.5756
    4MOL   C260 1106   3.124   4.253   3.060 -0.3603 -0.0513 -0.4228
    4MOL   C261 1107   3.031   4.357   3.056  0.6715 -0.2220  0.2596
    4MOL   H262 1108   3.092   4.499   3.362 -1.0978 -1.9771  1.3141
    4MOL   H263 1109   3.250   4.314   3.371 -0.1438 -0.6577 -0.5007
    4MOL   H264 1110   3.366   4.124   3.238  0.1366  2.8840 -1.6379
    4MOL   H265 1111   3.292   3.908   3.197  1.5017  1.6408  0.2533
    4MOL   H266 1112   3.154   4.198   2.972  1.7523 -0.2583  0.4099
    4MOL   H267 1113   2.984   4.376   2.960  5.1549  0.5013 -1.8917
    4MOL   C268 1114   3.081   3.932   3.140 -0.2527 -0.4054 -0.4161
    4MOL   C269 1115   2.970   4.012   3.169 -0.3568 -0.1813  0.7838
    4MOL   C270 1116   2.845   3.965   3.129  0.2611  0.3725 -0.1802
    4MOL   C271 1117   2.822   3.849   3.054  0.0737 -0.1774 -0.3120
    4MOL   C272 1118   2.684   3.821   3.008 -0.0983  0.4022  0.2076
    4MOL   C273 1119   2.658   3.737   2.909  0.5284  0.2057  0.6269
    4MOL   C274 1120   2.937   3.778   3.018  0.1763  0.2096  0.3396
    4MOL   C275 1121   3.065   3.817   3.066  0.4471  0.3687  0.0530
    4MOL   H276 1122   2.978   4.101   3.229 -0.0889  1.8826 -2.2074
    4MOL   H277 1123   2.756   4.016   3.163 -1.0674 -1.9727  0.0089
    4MOL   H278 1124   2.599   3.871   3.052 -1.0237 -2.6549  2.0963
    4MOL   H279 1125   2.742   3.686   2.863 -0.6101 -1.6252  0.5615
    4MOL   H280 1126   2.925   3.688   2.959  0.4950 -0.2579  0.9832
    4MOL   H281 1127   3.151   3.755   3.044  2.1926  2.7010  0.0862
    4MOL   H282 1128   2.555   3.728   2.879  1.7995  0.6069 -4.3446
    5MOL     C1 1129   1.484   0.240   7.643 -0.5777  0.1023  0.3309
    5MOL     C2 1130   1.618   0.285   7.616  0.8429 -0.3852  0.2461
    5MOL     C3 1131   1.661   0.410   7.656 -0.3444  0.4342 -0.0536
    5MOL     C4 1132   1.581   0.491   7.737  0.1101 -0.9302  0.7281
    5MOL     C5 1133   1.613   0.626   7.792 -0.3078  0.2952 -0.9622
    5MOL     C6 1134   1.736   0.686   7.788 -0.4675  0.3230 -0.3004
    5MOL     C7 1135   1.446   0.447   7.770  0.7273 -0.2885 -0.4108
    5MOL     C8 1136   1.403   0.319   7.728  0.2774  0.2655  0.0681
    5MOL     H9 1137   1.685   0.218   7.563  1.4324 -1.1808  1.9311
    5MOL    H10 1138   1.764   0.439   7.638  0.1126 -0.9205  0.3109
    5MOL    H11 1139   1.527   0.678   7.832  0.7245  2.7921 -1.9205
    5MOL    H12 1140   1.815   0.630   7.739  4.2968  4.7541  1.8614
    5MOL    H13 1141   1.394   0.516   7.834  1.5073 -1.8924  2.0428
    5MOL    H14 1142   1.302   0.285   7.747  0.5453  0.1795  1.3710
    5MOL    H15 1143   1.451   0.141   7.616 -3.5687  0.7415  1.4238
    5MOL    C16 1144   1.765   0.823   7.838  0.1454  0.1634  0.5305
    5MOL    C17 1145   1.881   0.895   7.795  0.4819  0.4977 -0.0354
    5MOL    C18 1146   1.909   1.023   7.843 -0.5114 -0.1582  0.2679
    5MOL    C19 1147   1.825   1.081   7.941 -0.0215 -0.4239 -0.4619
    5MOL    C20 1148   1.856   1.219   7.996  0.1095 -0.0673 -0.3219
    5MOL    C21 1149   1.781   1.293   8.089  0.4609 -0.1661  0.0886
    5MOL    C22 1150   1.705   1.015   7.976 -0.1932 -0.4051 -0.7893
    5MOL    C23 1151   1.673   0.882   7.927 -0.0793 -0.0199  0.0127
    5MOL    H24 1152   1.956   0.839   7.742  0.5552 -0.0226  0.6026
    5MOL    H25 1153   2.002   1.068   7.813 -0.5319 -0.6248 -0.5025
    5MOL    H26 1154   1.955   1.252   7.967 -0.6483  0.3052 -2.6014
    5MOL    H27 1155   1.690   1.259   8.135  0.3795  1.0566  0.8427
    5MOL    H28 1156   1.645   1.062   8.053 -0.1470  0.9540 -1.5761
    5MOL    H29 1157   1.578   0.833   7.941  0.2519 -1.1316 -1.4370
    5MOL    C30 1158   1.831   1.420   0.003 -0.0564 -0.5475 -0.4167
    5MOL    C31 1159   1.972   1.440   0.012 -0.1065  0.7986  0.0829
    5MOL    C32 1160   2.020   1.572   0.038 -0.0875  0.0401 -0.2334
    5MOL    C33 1161   1.936   1.676   0.079 -0.3194  0.1426 -0.1712
    5MOL    C34 1162   1.988   1.803   0.121 -0.0539 -0.3082 -0.7086
    5MOL    C35 1163   2.120   1.835   0.123  0.0121  0.8589 -0.3591
    5MOL    C36 1164   1.794   1.649   0.088  0.0477 -0.6369 -0.2728
    5MOL    C37 1165   1.742   1.521   0.048  0.2829 -0.5626  0.0052
    5MOL    H38 1166   2.040   1.364   8.122 -2.5350 -2.7745  2.7688
    5MOL    H39 1167   2.127   1.584   0.029  0.2814 -1.6864  1.3743
    5MOL    H40 1168   1.922   1.882   0.154  0.1925 -0.9474  1.3506
    5MOL    H41 1169   2.196   1.763   0.095  0.1243  1.0374 -0.5092
    5MOL    H42 1170   1.732   1.737   0.097 -0.1326 -0.6351 -1.5066
    5MOL    H43 1171   1.634   1.514   0.045  0.1355  1.1592  0.9439
    5MOL    C44 1172   2.176   1.962   0.158 -0.5697 -0.2794 -0.1665
    5MOL    C45 1173   2.103   2.081   0.181 -0.3760  0.2645  0.2091
    5MOL    C46 1174   2.172   2.198   0.217  0.0717  0.8828  0.1512
    5MOL    C47 1175   2.305   2.190   0.257  0.2106 -0.5454 -0.2695
    5MOL    C48 1176   2.371   2.307   0.311  0.2940 -0.2193  0.1196
    5MOL    C49 1177   2.461   2.311   0.407  0.1129  0.0596  0.2434
    5MOL    C50 1178   2.374   2.072   0.244 -0.1198 -0.1812  0.5153
    5MOL    C51 1179   2.313   1.965   0.183  0.8434  0.3820  0.2768
    5MOL    H52 1180   1.996   2.078   0.168 -0.4489 -4.0823  0.9992
    5MOL    H53 1181   2.122   2.293   0.224  2.3398  2.0810  0.4731
    5MOL    H54 1182   2.334   2.393   0.258 -0.0900 -0.1005  0.5749
    5MOL    H55 1183   2.505   2.220   0.447 -2.8066 -1.1304  0.8804
    5MOL    H56 1184   2.478   2.067   0.272 -0.4353  0.3852  1.8029
    5MOL    H57 1185   2.371   1.875   0.170 -0.8274 -0.9468  1.7943
    5MOL    C58 1186   2.516   2.431   0.470 -0.1223  0.3273  0.3752
    5MOL    C59 1187   2.474   2.558   0.431 -0.0133 -0.3229 -0.4725
    5MOL    C60 1188   2.531   2.667   0.497  0.5300 -0.0526 -0.1605
    5MOL    C61 1189   2.619   2.658   0.603  0.1518  0.2090 -0.1686
    5MOL    C62 1190   2.666   2.774   0.679 -0.1717 -1.0472 -0.3147
    5MOL    C63 1191   2.686   2.778   0.816 -0.9668 -0.0373  0.7313
    5MOL    C64 1192   2.649   2.528   0.649 -0.4061  0.1056 -0.1323
    5MOL    C65 1193   2.600   2.415   0.582 -0.1150 -0.1131 -0.5687
    5MOL    H66 1194   2.418   2.572   0.340 -0.3332 -0.8313 -0.3585
    5MOL    H67 1195   2.498   2.763   0.460  1.9388  0.9648  1.1767
    5MOL    H68 1196   2.691   2.861   0.620 -2.0656 -0.0086  0.3439
    5MOL    H69 1197   2.649   2.706   0.887  0.4218 -1.6141 -0.1192
    5MOL    H70 1198   2.698   2.506   0.743  1.2711 -0.5432 -1.1387
    5MOL    H71 1199   2.618   2.318   0.625 -0.3407 -0.6218 -1.6215
    5MOL    C72 1200   2.742   2.891   0.889 -0.2047  0.2867  0.4332
    5MOL    C73 1201   2.822   2.872   1.005 -0.1119  0.2031 -0.0837
    5MOL    C74 1202   2.893   2.980   1.062  0.0690  0.7960  0.1901
    5MOL    C75 1203   2.876   3.112   1.019 -0.7555  0.5279 -0.0230
    5MOL    C76 1204   2.938   3.217   1.109  0.3338 -0.7166  0.1562
    5MOL    C77 1205   2.916   3.353   1.103 -0.1609  0.6333  0.5976
    5MOL    C78 1206   2.802   3.134   0.904 -0.5199 -0.4763 -0.3332
    5MOL    C79 1207   2.743   3.027   0.834  0.5657  0.5909 -0.3025
    5MOL    H80 1208   2.827   2.773   1.047  0.8105 -0.3179 -1.3834
    5MOL    H81 1209   2.956   2.940   1.140 -0.0264  1.2736  0.5165
    5MOL    H82 1210   2.989   3.185   1.198  1.1964 -0.8058 -0.3596
    5MOL    H83 1211   2.853   3.393   1.026  0.2508 -0.9080 -0.5673
    5MOL    H84 1212   2.778   3.233   0.870  1.4247 -0.1323 -0.7869
    5MOL    H85 1213   2.675   3.044   0.752 -0.1092  1.0219  0.3343
    5MOL    C86 1214   2.960   3.449   1.206 -0.3610  0.2030  0.6195
    5MOL    C87 1215   2.927   3.431   1.341  0.6169  0.1715 -0.8061
    5MOL    C88 1216   2.932   3.542   1.432 -0.4702  0.6715 -0.3359
    5MOL    C89 1217   2.972   3.673   1.388  0.3273  0.3554  0.0549
    5MOL    C90 1218   2.957   3.790   1.471 -0.3486  0.7822  0.5080
    5MOL    C91 1219   2.913   3.786   1.602 -0.4174 -0.5152  0.4523
    5MOL    C92 1220   3.023   3.680   1.253 -0.2507 -0.6190 -0.9220
    5MOL    C93 1221   3.018   3.571   1.160  0.2363 -0.0301  0.2926
    5MOL    H94 1222   2.883   3.336   1.364  0.8270 -1.1788 -5.4201
    5MOL    H95 1223   2.887   3.525   1.528  0.9492 -1.3233 -0.0014
    5MOL    H96 1224   2.971   3.888   1.427 -0.0001 -0.4568 -2.2569
    5MOL    H97 1225   2.894   3.687   1.642  1.3987 -0.9433  0.2906
    5MOL    H98 1226   3.049   3.778   1.218  1.3076 -0.7526 -0.1786
    5MOL    H99 1227   3.034   3.594   1.056 -1.6561  1.0228  0.2166
    5MOL   C100 1228   2.890   3.897   1.687  0.1979 -0.5986 -0.2302
    5MOL   C101 1229   2.948   4.027   1.668  0.2424  0.1157  0.3475
    5MOL   C102 1230   2.888   4.131   1.750  0.6964  0.3616 -0.0275
    5MOL   C103 1231   2.785   4.107   1.839 -0.1304 -0.6907  0.6344
    5MOL   C104 1232   2.711   4.226   1.894  0.6089  0.0175  0.1437
    5MOL   C105 1233   2.758   4.355   1.903  0.0953 -0.5888  0.8605
    5MOL   C106 1234   2.739   3.978   1.867  0.0309  0.7306  0.3037
    5MOL   C107 1235   2.792   3.876   1.791 -0.0115  0.5964 -0.1525
    5MOL   H108 1236   3.029   4.065   1.606  0.1505 -0.6952 -0.2778
    5MOL   H109 1237   2.915   4.234   1.737 -0.3703  0.6835  0.2540
    5MOL   H110 1238   2.610   4.211   1.928  0.8364  1.8522  1.7332
    5MOL   H111 1239   2.861   4.377   1.880  0.4450  0.4672  3.3079
    5MOL   H112 1240   2.674   3.962   1.951  0.8012 -1.0363  0.5907
    5MOL   H113 1241   2.755   3.777   1.812  1.3204 -0.0306 -0.7709
    5MOL   C114 1242   2.677   4.477   1.949  0.4419  0.6906 -0.6183
    5MOL   C115 1243   2.550   4.459   2.010  0.1508  0.0965  0.9313
    5MOL   C116 1244   2.472   4.573   2.046 -0.6768  1.2421  0.6263
    5MOL   C117 1245   2.517   4.700   2.020  0.0600  0.8834 -0.6331
    5MOL   C118 1246   2.420   4.812   2.040 -0.0916  0.1058 -0.4908
    5MOL   C119 1247   2.289   4.809   2.056 -0.9045  0.2315  0.1054
    5MOL   C120 1248   2.640   4.719   1.947 -0.6209  0.0244  0.2408
    5MOL   C121 1249   2.718   4.606   1.917 -0.1121 -0.0263 -0.0461
    5MOL   H122 1250   2.515   4.358   2.029 -0.6939  0.2663  0.3251
    5MOL   H123 1251   2.371   4.560   2.082 -0.7246  1.9601  0.7640
    5MOL   H124 1252   2.461   4.912   2.040 -0.3180  0.2079  1.0264
    5MOL   H125 1253   2.242   4.712   2.066  1.8569 -1.1691 -0.0499
    5MOL   H126 1254   2.674   4.814   1.909 -0.1259 -0.3196 -0.1854
    5MOL   H127 1255   2.812   4.608   1.863  0.4487  1.2632  0.9295
    5MOL   C128 1256   2.199   4.922   2.071  0.2854  0.6438 -0.7514
    5MOL   C129 1257   2.230   5.059   2.052 -0.0856 -0.0655 -0.1482
    5MOL   C130 1258   2.136   5.160   2.057  0.7250 -0.0606  0.5812
    5MOL   C131 1259   1.999   5.128   2.069  0.0706 -0.6351  0.4250
    5MOL   C132 1260   1.889   5.229   2.062 -0.5797  0.2512 -1.0161
    5MOL   C133 1261   1.767   5.195   2.025  0.4159  0.8184 -0.0336
    5MOL   C134 1262   1.962   4.996   2.094 -0.0512  0.3283  0.0528
    5MOL   C135 1263   2.058   4.894   2.091 -0.4416 -0.7606 -0.0401
    5MOL   H136 1264   2.330   5.095   2.034 -0.0827 -0.2337 -0.4642
    5MOL   H137 1265   2.166   5.263   2.041  0.9277 -0.4011 -1.3707
    5MOL   H138 1266   1.910   5.333   2.080 -1.1753  0.4480 -1.4499
    5MOL   H139 1267   1.748   5.091   2.003 -0.1889  0.7797  0.6519
    5MOL   H140 1268   1.860   4.965   2.110 -0.5253  0.5079 -2.5407
    5MOL   H141 1269   2.029   4.791   2.111 -1.6097 -0.1408  1.5477
    5MOL   C142 1270   1.656   5.284   2.000 -0.0352  0.1286 -0.8499
    5MOL   C143 1271   1.655   5.422   2.034  0.0292 -0.6191  0.5436
    5MOL   C144 1272   1.547   5.507   1.996  0.5546 -0.1093  0.0495
    5MOL   C145 1273   1.433   5.445   1.936 -0.6683 -0.3755 -0.2927
    5MOL   C146 1274   1.326   5.534   1.895  0.1470  0.3784  0.1785
    5MOL   C147 1275   1.212   5.496   1.829 -0.6759  0.1080 -0.1882
    5MOL   C148 1276   1.428   5.303   1.919 -0.0301 -0.6921 -0.1463
    5MOL   C149 1277   1.541   5.227   1.948  0.2121  0.3023  0.6510
    5MOL   H150 1278   1.732   5.467   2.095 -0.4137  0.0163  0.6403
    5MOL   H151 1279   1.554   5.614   2.008  0.0598 -0.0436 -0.2435
    5MOL   H152 1280   1.332   5.638   1.925  1.0023  0.4142 -0.0816
    5MOL   H153 1281   1.196   5.391   1.809 -1.8270  0.5910 -1.8534
    5MOL   H154 1282   1.341   5.261   1.870 -0.7107  2.2175 -1.5400
    5MOL   H155 1283   1.542   5.119   1.942 -1.1607  0.3364 -0.4722
    5MOL   C156 1284   1.096   5.584   1.790 -0.1778  0.0569  0.1221
    5MOL   C157 1285   1.088   5.721   1.824 -0.2559  0.0829  0.0711
    5MOL   C158 1286   0.987   5.804   1.770 -0.2759  0.1025  0.6421
    5MOL   C159 1287   0.879   5.745   1.688  0.6209  0.2470  0.4692
    5MOL   C160 1288   0.770   5.838   1.641 -0.5393 -0.0497 -0.6646
    5MOL   C161 1289   0.661   5.805   1.564 -0.0236  0.1830 -0.3856
    5MOL   C162 1290   0.889   5.611   1.654  0.5175  0.3300  0.0732
    5MOL   C163 1291   0.999   5.533   1.700 -0.2165 -0.5958 -0.1801
    5MOL   H164 1292   1.161   5.779   1.879  0.0246  0.9756 -1.2173
    5MOL   H165 1293   0.996   5.911   1.785  0.1577 -0.2067  2.7665
    5MOL   H166 1294   0.780   5.942   1.669 -1.3434  0.5291 -2.4368
    5MOL   H167 1295   0.651   5.701   1.536  1.7134 -0.3487  0.8552
    5MOL   H168 1296   0.818   5.562   1.588  0.1656 -0.4458  1.0188
    5MOL   H169 1297   1.003   5.428   1.674 -0.5422 -0.3562 -1.2436
    5MOL   C170 1298   0.546   5.892   1.536 -0.7778 -0.1915 -0.2612
    5MOL   C171 1299   0.530   6.005   1.615  0.6126  0.4431 -0.6216
    5MOL   C172 1300   0.405   6.075   1.597  0.7570  0.0670  0.0571
    5MOL   C173 1301   0.311   6.044   1.495  0.4807 -0.7439 -0.8222
    5MOL   C174 1302   0.190   6.119   1.488  1.5701  0.5036 -0.3907
    5MOL   C175 1303   0.083   6.075   1.417 -0.6418 -0.1632  0.8630
    5MOL   C176 1304   0.328   5.919   1.426 -0.5488 -0.6583  0.9527
    5MOL   C177 1305   0.449   5.850   1.442  0.1242 -0.3415 -0.5385
    5MOL   H178 1306   0.597   6.052   1.685 -0.4481 -0.0208  0.7349
    5MOL   H179 1307   0.395   6.161   1.661  1.3273 -0.1276  0.4018
    5MOL   H180 1308   0.192   6.212   1.543  0.3190 -0.0769  0.6684
    5MOL   H181 1309   0.092   5.982   1.363 -1.0028  0.6144 -0.5426
    5MOL   H182 1310   0.262   5.882   1.349  0.3764 -1.1777  0.3843
    5MOL   H183 1311   0.453   5.755   1.391  1.5716 -0.6347  0.1114
    5MOL   C184 1312   8.099   6.145   1.393  0.7218  0.2108 -0.6469
    5MOL   C185 1313   8.050   6.245   1.480  0.3482 -0.4490  0.0259
    5MOL   C186 1314   7.915   6.288   1.456 -0.4806 -0.3611 -0.0880
    5MOL   C187 1315   7.837   6.253   1.342  0.1267 -0.2968 -1.0647
    5MOL   C188 1316   7.706   6.307   1.325  0.4281 -0.2843  0.0615
    5MOL   C189 1317   7.613   6.267   1.234  0.3654 -0.1108 -0.1658
    5MOL   C190 1318   7.897   6.159   1.253  1.1650 -0.3933 -0.1442
    5MOL   C191 1319   8.025   6.105   1.276  0.2148 -0.5114 -0.1258
    5MOL   H192 1320   8.098   6.273   1.572  1.2263 -1.7602 -0.0164
    5MOL   H193 1321   7.871   6.351   1.531  0.5601  1.5420 -1.0190
    5MOL   H194 1322   7.680   6.385   1.396  1.2583  0.4430 -0.4172
    5MOL   H195 1323   7.641   6.187   1.167 -0.2636  0.3072 -0.9337
    5MOL   H196 1324   7.843   6.135   1.163 -0.0972  1.6005  0.0376
    5MOL   H197 1325   8.059   6.032   1.204 -1.2037  0.6282 -1.9716
    5MOL   C198 1326   7.475   6.318   1.211  0.4363  0.0076  0.0339
    5MOL   C199 1327   7.410   6.411   1.293  0.2223 -0.2472 -0.1146
    5MOL   C200 1328   7.292   6.468   1.256  0.3632 -0.3484 -0.2896
    5MOL   C201 1329   7.225   6.433   1.135 -0.5565 -0.6554  0.1030
    5MOL   C202 1330   7.085   6.475   1.104  0.7504  0.5072  0.2670
    5MOL   C203 1331   7.016   6.456   0.989  0.9005  0.0427  0.0880
    5MOL   C204 1332   7.286   6.331   1.059 -0.1244  0.0595 -0.8406
    5MOL   C205 1333   7.413   6.277   1.087  0.0045 -0.3703  0.2764
    5MOL   H206 1334   7.456   6.445   1.385  0.7744 -1.5792  0.1185
    5MOL   H207 1335   7.253   6.542   1.326  1.1792 -0.0621 -0.1339
    5MOL   H208 1336   7.035   6.524   1.186  0.2504  1.1074 -0.4001
    5MOL   H209 1337   7.063   6.405   0.907 -1.6911 -2.6576  0.1851
    5MOL   H210 1338   7.242   6.294   0.968 -1.1653  1.4109 -0.9092
    5MOL   H211 1339   7.461   6.224   1.006 -0.7791 -0.0721 -0.3816
    5MOL   C212 1340   6.884   6.506   0.969 -0.2025  0.0267 -0.3442
    5MOL   C213 1341   6.815   6.593   1.054  0.1364  0.7589 -0.7551
    5MOL   C214 1342   6.678   6.620   1.028  0.1144  0.0068  0.3311
    5MOL   C215 1343   6.611   6.562   0.920 -0.3220 -0.3041 -0.5064
    5MOL   C216 1344   6.468   6.596   0.900  0.3450  0.0156 -1.3944
    5MOL   C217 1345   6.386   6.568   0.799 -0.2265 -0.2407 -0.0726
    5MOL   C218 1346   6.685   6.474   0.833 -0.1666  0.1325  0.2255
    5MOL   C219 1347   6.820   6.451   0.862  0.0581 -0.2486  0.2001
    5MOL   H220 1348   6.857   6.641   1.142  1.6105  1.3171 -1.7582
    5MOL   H221 1349   6.636   6.691   1.098  1.0225 -0.0781  0.9711
    5MOL   H222 1350   6.417   6.642   0.984 -0.5536 -2.5441 -0.5117
    5MOL   H223 1351   6.429   6.522   0.712 -1.4851 -0.5299 -0.5555
    5MOL   H224 1352   6.647   6.431   0.742  2.1712 -2.4869  0.4067
    5MOL   H225 1353   6.870   6.391   0.788  0.8016  0.6803 -0.0600
    5MOL   C226 1354   6.244   6.610   0.786 -0.3650 -0.2122  0.3871
    5MOL   C227 1355   6.160   6.555   0.688 -0.4602 -0.7249 -0.0553
    5MOL   C228 1356   6.021   6.586   0.677  0.4332  0.1745  0.1636
    5MOL   C229 1357   5.962   6.678   0.768 -0.2362 -0.4889 -1.0155
    5MOL   C230 1358   5.818   6.722   0.768 -0.1041  0.1767 -0.1461
    5MOL   C231 1359   5.728   6.696   0.667  0.7476  0.7691 -0.5810
    5MOL   C232 1360   6.050   6.741   0.862 -0.0793 -0.0231 -0.9583
    5MOL   C233 1361   6.183   6.702   0.871  0.1698 -0.3899 -0.2922
    5MOL   H234 1362   6.206   6.479   0.627  0.6458 -0.3312  0.2657
    5MOL   H235 1363   5.956   6.549   0.598  1.1290 -0.2108 -0.2383
    5MOL   H236 1364   5.792   6.791   0.846 -2.1419 -0.4201 -0.2488
    5MOL   H237 1365   5.758   6.629   0.588 -1.3986 -4.1622  2.4992
    5MOL   H238 1366   6.014   6.823   0.922  0.9003  0.0970 -0.5303
    5MOL   H239 1367   6.242   6.743   0.952 -1.4043 -0.7913  1.0739
    5MOL   C240 1368   5.589   6.748   0.670  0.5500  0.2396  0.3823
    5MOL   C241 1369   5.542   6.838   0.759  0.8171 -0.2468 -0.1494
    5MOL   C242 1370   5.409   6.875   0.762 -0.4656 -0.2519  0.6798
    5MOL   C243 1371   5.313   6.824   0.673  0.4356 -0.2983  0.8848
    5MOL   C244 1372   5.167   6.868   0.671 -0.2019  0.3793 -0.6625
    5MOL   C245 1373   5.095   6.935   0.766 -0.1286  0.6854  0.0943
    5MOL   C246 1374   5.362   6.742   0.570 -0.6494 -0.3048  0.0349
    5MOL   C247 1375   5.497   6.705   0.570 -0.0768 -0.4130  0.2900
    5MOL   H248 1376   5.608   6.864   0.840  0.6331 -0.2142 -0.0079
    5MOL   H249 1377   5.372   6.947   0.833 -1.9315 -0.1511 -0.1539
    5MOL   H250 1378   5.114   6.846   0.579 -0.8326 -3.5415  0.5309
    5MOL   H251 1379   5.140   6.947   0.864  0.7114 -1.8701  0.0729
    5MOL   H252 1380   5.295   6.706   0.493 -0.1066  0.8733 -0.9853
    5MOL   H253 1381   5.526   6.643   0.486 -1.8021 -0.6009 -0.1898
    5MOL   C254 1382   4.958   6.991   0.743 -0.0258  0.0940  0.0848
    5MOL   C255 1383   4.913   7.000   0.608  0.0185  0.4800 -0.0062
    5MOL   C256 1384   4.787   7.050   0.590 -0.1419 -0.2095 -0.2679
    5MOL   C257 1385   4.702   7.086   0.692 -0.4507 -0.2711 -0.0559
    5MOL   C258 1386   4.561   7.106   0.650 -0.2034  0.0949 -0.3256
    5MOL   C259 1387   4.444   7.073   0.713 -0.5788  0.6149  0.0837
    5MOL   C260 1388   4.747   7.083   0.827  0.3413 -0.4145 -0.4637
    5MOL   C261 1389   4.875   7.032   0.854 -0.4155  0.2156  0.3672
    5MOL   H262 1390   4.969   6.965   0.522 -1.7217 -2.6177  0.0798
    5MOL   H263 1391   4.759   7.062   0.486 -0.4338  2.1356  0.0579
    5MOL   H264 1392   4.547   7.153   0.553  0.4983  0.9367 -0.0269
    5MOL   H265 1393   4.346   7.091   0.669 -0.9962 -0.8015  0.3856
    5MOL   H266 1394   4.673   7.116   0.899  0.3329 -0.4302 -0.4651
    5MOL   H267 1395   4.904   7.021   0.958 -2.3903 -1.5035  0.7579
    5MOL   C268 1396   4.429   7.016   0.851  0.0973  0.0601  0.2903
    5MOL   C269 1397   4.512   6.916   0.899 -0.7338  0.6325 -0.1278
    5MOL   C270 1398   4.504   6.878   1.034  0.4033  0.7042 -0.6848
    5MOL   C271 1399   4.410   6.932   1.116  0.2192  0.3017 -0.2576
    5MOL   C272 1400   4.414   6.886   1.259 -0.2574 -0.8292 -0.3999
    5MOL   C273 1401   4.325   6.928   1.355  0.3733 -0.2678  0.4773
    5MOL   C274 1402   4.317   7.024   1.069  0.0834  0.1817  0.7079
    5MOL   C275 1403   4.335   7.074   0.937 -0.9264  0.3885 -0.7176
    5MOL   H276 1404   4.581   6.869   0.831 -1.2694 -0.2256 -0.0954
    5MOL   H277 1405   4.565   6.796   1.069 -2.2041 -1.3187 -0.7303
    5MOL   H278 1406   4.485   6.809   1.285  0.2739  0.4359  2.0827
    5MOL   H279 1407   4.243   6.995   1.336 -0.3473 -1.5810 -1.2117
    5MOL   H280 1408   4.254   7.080   1.136 -3.2682 -2.0327 -0.4254
    5MOL   H281 1409   4.283   7.163   0.906  0.5295  0.5878 -2.6370
    5MOL   H282 1410   4.329   6.890   1.457 -1.8371 -0.8803  0.3585
    6MOL     C1 1411   4.061   4.233   1.476  0.2300  0.6289  0.9386
    6MOL     C2 1412   4.160   4.245   1.579  0.4028  0.2726  0.3580
    6MOL     C3 1413   4.279   4.168   1.569 -0.8919 -0.6579  0.1034
    6MOL     C4 1414   4.305   4.090   1.450 -0.6139 -0.8771  0.4805
    6MOL     C5 1415   4.433   4.009   1.454  0.2082  0.1207 -0.8129
    6MOL     C6 1416   4.475   3.917   1.361  0.4388 -0.5656 -0.0310
    6MOL     C7 1417   4.211   4.087   1.349 -0.3539  0.5666  0.1620
    6MOL     C8 1418   4.087   4.154   1.362 -0.8966 -0.0133 -0.2757
    6MOL     H9 1419   4.137   4.305   1.666 -0.0297  1.7504 -0.7562
    6MOL    H10 1420   4.349   4.176   1.651 -0.4196  2.2234 -0.5212
    6MOL    H11 1421   4.498   4.038   1.535  1.0023 -1.1317 -0.9808
    6MOL    H12 1422   4.418   3.899   1.271  1.7979  0.5889 -1.1458
    6MOL    H13 1423   4.238   4.029   1.262  0.4363 -0.2503  0.9315
    6MOL    H14 1424   4.013   4.137   1.285 -0.5391  0.0447 -0.6315
    6MOL    H15 1425   3.964   4.280   1.487  0.7253  1.9972 -0.3068
    6MOL    C16 1426   4.603   3.847   1.374  0.1438  0.3613  0.5185
    6MOL    C17 1427   4.711   3.912   1.443  0.7128  0.2297  0.3490
    6MOL    C18 1428   4.835   3.849   1.462 -0.2529 -0.3599  0.2226
    6MOL    C19 1429   4.854   3.725   1.395 -0.6018 -0.7080 -0.1257
    6MOL    C20 1430   4.989   3.669   1.403  0.1848  0.1803  0.4869
    6MOL    C21 1431   5.015   3.536   1.381 -0.4952  0.1629  0.4799
    6MOL    C22 1432   4.749   3.661   1.323 -0.3951  0.3019  0.6336
    6MOL    C23 1433   4.622   3.721   1.321  0.0867  0.3695 -0.1380
    6MOL    H24 1434   4.690   4.008   1.486 -0.3767 -0.4862  1.4319
    6MOL    H25 1435   4.914   3.902   1.512  0.5110  0.3120 -1.6813
    6MOL    H26 1436   5.069   3.737   1.424 -0.1669  1.1780 -1.3249
    6MOL    H27 1437   4.931   3.469   1.367 -1.7905  1.9279 -0.4210
    6MOL    H28 1438   4.756   3.564   1.277  0.5316  0.1802  1.0373
    6MOL    H29 1439   4.537   3.673   1.274  0.5763 -1.1304  0.4672
    6MOL    C30 1440   5.143   3.469   1.394  0.1885  0.3113 -0.1037
    6MOL    C31 1441   5.259   3.541   1.438  0.1504 -0.8751  0.0032
    6MOL    C32 1442   5.378   3.478   1.453  0.5809 -0.1034  0.4098
    6MOL    C33 1443   5.392   3.343   1.420 -0.2376  0.7243 -0.5077
    6MOL    C34 1444   5.522   3.283   1.457  0.1022  0.9297  0.5563
    6MOL    C35 1445   5.561   3.159   1.493 -0.1338  0.1837 -0.0092
    6MOL    C36 1446   5.280   3.262   1.379 -0.1185  0.3689  0.1750
    6MOL    C37 1447   5.157   3.331   1.357  0.3121 -0.2539  0.1972
    6MOL    H38 1448   5.256   3.646   1.461  0.0304 -1.2149  1.5569
    6MOL    H39 1449   5.473   3.519   1.485  3.0055 -4.5808 -0.5639
    6MOL    H40 1450   5.604   3.353   1.446  1.2436 -0.3590  0.7520
    6MOL    H41 1451   5.478   3.090   1.492  1.4624 -1.8286  1.5851
    6MOL    H42 1452   5.303   3.160   1.353  2.4201  0.9454  0.0262
    6MOL    H43 1453   5.070   3.276   1.326 -0.6765  1.3850  0.0258
    6MOL    C44 1454   5.694   3.104   1.523  0.0136 -0.9360 -0.0558
    6MOL    C45 1455   5.800   3.194   1.544 -0.0232 -0.2816 -1.1952
    6MOL    C46 1456   5.928   3.149   1.569 -0.2076  0.0063  0.0098
    6MOL    C47 1457   5.954   3.010   1.582 -0.8419 -0.8061  0.1786
    6MOL    C48 1458   6.095   2.977   1.613 -0.3955  0.1091 -0.1565
    6MOL    C49 1459   6.133   2.893   1.716 -0.0073  0.0179  0.3131
    6MOL    C50 1460   5.848   2.918   1.566 -0.5437  0.0013  0.6939
    6MOL    C51 1461   5.723   2.966   1.532 -0.5280 -0.7152  0.7209
    6MOL    H52 1462   5.787   3.301   1.550 -1.4725 -0.5166  0.1949
    6MOL    H53 1463   6.011   3.217   1.581  2.1556 -2.6410 -0.7912
    6MOL    H54 1464   6.172   3.027   1.556 -0.3515 -0.5238 -0.6570
    6MOL    H55 1465   6.054   2.841   1.766 -0.1801  0.2162  0.2490
    6MOL    H56 1466   5.859   2.811   1.574 -0.0688  0.0352  0.5045
    6MOL    H57 1467   5.645   2.893   1.513 -0.6800  0.1736 -2.2893
    6MOL    C58 1468   6.265   2.865   1.763  0.7100 -0.0622  0.3373
    6MOL    C59 1469   6.283   2.742   1.837 -0.6024 -0.8546  0.9776
    6MOL    C60 1470   6.411   2.703   1.880  0.1353  0.1435  0.0933
    6MOL    C61 1471   6.522   2.788   1.856  0.2823  0.0454 -0.4143
    6MOL    C62 1472   6.647   2.731   1.904 -0.0117  0.0331 -0.0511
    6MOL    C63 1473   6.764   2.789   1.886 -0.6016 -0.3203 -0.8167
    6MOL    C64 1474   6.507   2.908   1.785  0.1022 -0.2189 -0.4298
    6MOL    C65 1475   6.379   2.942   1.743 -0.2863 -0.2834 -0.4935
    6MOL    H66 1476   6.197   2.692   1.879  0.7756 -4.0039  0.2100
    6MOL    H67 1477   6.426   2.610   1.933 -3.3166 -0.1013  0.7403
    6MOL    H68 1478   6.634   2.633   1.946  1.9345 -1.4160 -2.6542
    6MOL    H69 1479   6.765   2.890   1.849  1.2057  0.6847  1.8506
    6MOL    H70 1480   6.599   2.957   1.756  1.1119 -2.2782 -0.8038
    6MOL    H71 1481   6.366   3.028   1.680  0.0431  1.8787  2.2867
    6MOL    C72 1482   6.897   2.742   1.912 -0.3772  0.2240  0.0398
    6MOL    C73 1483   6.924   2.638   2.003 -0.4786  0.4828 -0.0856
    6MOL    C74 1484   7.054   2.598   2.034  0.5794 -0.7436 -0.5084
    6MOL    C75 1485   7.165   2.653   1.960  0.4282  0.1465  0.1156
    6MOL    C76 1486   7.310   2.628   1.977  0.3478 -0.0447 -0.2474
    6MOL    C77 1487   7.367   2.575   2.090  0.2557 -0.1028 -0.0439
    6MOL    C78 1488   7.136   2.762   1.874  0.3710  0.0524 -0.2115
    6MOL    C79 1489   7.006   2.802   1.844  0.5131 -0.0306 -0.0790
    6MOL    H80 1490   6.852   2.586   2.064  1.8374 -1.9895  0.6378
    6MOL    H81 1491   7.059   2.528   2.116 -1.8786  0.2067  0.5233
    6MOL    H82 1492   7.368   2.654   1.889  3.5442  0.0957  1.8221
    6MOL    H83 1493   7.309   2.565   2.181  3.8322  0.8278  2.4701
    6MOL    H84 1494   7.204   2.819   1.812  1.9991 -0.9818  0.6228
    6MOL    H85 1495   6.984   2.880   1.773  0.2372 -1.1751 -1.2718
    6MOL    C86 1496   7.516   2.536   2.102 -0.2038 -0.6777  0.0212
    6MOL    C87 1497   7.565   2.464   2.214  0.4749 -0.0482  0.0478
    6MOL    C88 1498   7.695   2.429   2.233  0.3565  0.7023  0.1600
    6MOL    C89 1499   7.787   2.466   2.142  0.3758  0.4070  0.7198
    6MOL    C90 1500   7.933   2.442   2.165 -0.3098 -0.5649 -0.2973
    6MOL    C91 1501   7.987   2.362   2.260 -0.5656  0.2409  0.1541
    6MOL    C92 1502   7.749   2.532   2.021 -0.3841  0.1312  0.0903
    6MOL    C93 1503   7.616   2.580   2.014  0.6379 -0.3006  0.7304
    6MOL    H94 1504   7.491   2.421   2.280 -0.5894 -0.2720 -1.2691
    6MOL    H95 1505   7.727   2.375   2.322  1.6951  2.2055  0.6034
    6MOL    H96 1506   8.000   2.484   2.091 -0.6581  2.0681  0.8101
    6MOL    H97 1507   7.914   2.300   2.310 -4.2134  3.1496 -1.3085
    6MOL    H98 1508   7.816   2.552   1.939 -2.6344  0.9181 -1.6291
    6MOL    H99 1509   7.585   2.642   1.931  1.7150  0.2965  0.7647
    6MOL   C100 1510   8.129   2.351   2.287  1.2718  0.1142 -0.0826
    6MOL   C101 1511   0.023   2.262   2.392  0.4678 -0.5891 -0.3306
    6MOL   C102 1512   0.168   2.240   2.414 -0.5465 -0.1632 -0.4871
    6MOL   C103 1513   0.263   2.316   2.345  0.5404 -0.5758  0.1129
    6MOL   C104 1514   0.410   2.286   2.370 -0.0017  0.1382  0.6005
    6MOL   C105 1515   0.460   2.211   2.466  0.1117  0.4150  0.0738
    6MOL   C106 1516   0.217   2.406   2.247  1.0627  1.0517  0.3011
    6MOL   C107 1517   0.083   2.426   2.219 -0.4144 -0.2202 -0.7613
    6MOL   H108 1518   8.091   2.209   2.449  1.7078  0.0611  2.0109
    6MOL   H109 1519   0.196   2.170   2.491  1.7899 -0.2781 -1.3710
    6MOL   H110 1520   0.471   2.339   2.298  0.5858  1.1460  1.8229
    6MOL   H111 1521   0.385   2.163   2.528 -0.1173  1.1131  0.3347
    6MOL   H112 1522   0.292   2.472   2.205  3.1478 -1.6909 -0.4890
    6MOL   H113 1523   0.066   2.507   2.150  0.6293  0.0544 -0.7106
    6MOL   C114 1524   0.605   2.180   2.500 -0.2601 -0.4190  0.7350
    6MOL   C115 1525   0.697   2.154   2.399 -0.0573 -0.0940  0.4620
    6MOL   C116 1526   0.834   2.124   2.429 -0.0940  0.5732  0.4405
    6MOL   C117 1527   0.878   2.130   2.565 -0.6207 -0.1578  1.3851
    6MOL   C118 1528   1.013   2.116   2.619  0.0426 -0.1203  0.1635
    6MOL   C119 1529   1.113   2.066   2.553  0.0764 -0.0152 -0.4508
    6MOL   C120 1530   0.784   2.151   2.667  0.2478 -0.0870 -0.6482
    6MOL   C121 1531   0.651   2.176   2.635 -0.3992  0.9022  0.4057
    6MOL   H122 1532   0.659   2.168   2.298 -1.4485  1.2023  1.1419
    6MOL   H123 1533   0.904   2.095   2.352  2.0970  1.6098  1.9976
    6MOL   H124 1534   1.024   2.141   2.723 -3.7596  0.0920  0.5716
    6MOL   H125 1535   1.095   2.037   2.450  0.5371 -0.5711 -0.3791
    6MOL   H126 1536   0.813   2.155   2.771 -0.4894  0.7978 -0.4713
    6MOL   H127 1537   0.582   2.205   2.712 -0.2832 -0.2478  0.9359
    6MOL   C128 1538   1.248   2.056   2.608  0.2299  0.7364  0.4832
    6MOL   C129 1539   1.337   1.966   2.541  0.1500 -0.0530  0.3546
    6MOL   C130 1540   1.467   1.945   2.595  0.2274 -0.5184  0.2412
    6MOL   C131 1541   1.507   2.009   2.714  0.2632 -0.6085  0.2550
    6MOL   C132 1542   1.643   2.011   2.772 -0.2855 -0.6476 -0.4085
    6MOL   C133 1543   1.746   1.944   2.722 -0.1386  0.5856 -0.5495
    6MOL   C134 1544   1.411   2.087   2.781  0.3361 -0.5528 -0.4527
    6MOL   C135 1545   1.289   2.121   2.727  0.6929  0.7500 -0.1974
    6MOL   H136 1546   1.307   1.929   2.445 -0.4510  0.0546  0.4993
    6MOL   H137 1547   1.541   1.884   2.544 -0.2274 -0.8094 -0.0716
    6MOL   H138 1548   1.657   2.072   2.859 -2.3260 -1.1629  0.3223
    6MOL   H139 1549   1.735   1.885   2.633  0.6935 -0.3723 -0.0218
    6MOL   H140 1550   1.434   2.127   2.878 -1.5478 -0.2356 -0.1198
    6MOL   H141 1551   1.227   2.187   2.787 -1.1364 -0.0865 -1.1075
    6MOL   C142 1552   1.885   1.949   2.770 -0.2176  0.9821  0.1269
    6MOL   C143 1553   1.973   1.837   2.738  0.6966 -0.3397  0.2338
    6MOL   C144 1554   2.104   1.836   2.792 -0.5356  0.4200 -0.1445
    6MOL   C145 1555   2.151   1.939   2.871  0.1228 -0.3050 -0.5672
    6MOL   C146 1556   2.286   1.920   2.932  0.1690 -0.6519  0.1453
    6MOL   C147 1557   2.369   2.007   2.984  0.1566 -0.6517 -0.4311
    6MOL   C148 1558   2.067   2.053   2.898 -0.3841 -0.1887 -0.1938
    6MOL   C149 1559   1.937   2.052   2.855  0.8206 -0.1597  0.3082
    6MOL   H150 1560   1.946   1.765   2.663 -0.3906  0.5747 -0.2521
    6MOL   H151 1561   2.166   1.753   2.764 -0.9642  0.8353 -2.4393
    6MOL   H152 1562   2.319   1.817   2.922 -0.4561 -0.9720  1.1855
    6MOL   H153 1563   2.337   2.109   2.997 -0.2818 -0.8290 -0.1219
    6MOL   H154 1564   2.107   2.138   2.951 -0.8948 -1.5108  2.3595
    6MOL   H155 1565   1.864   2.127   2.881 -0.4146 -1.0199 -0.5759
    6MOL   C156 1566   2.507   1.987   3.041  0.2851 -0.5905 -0.2753
    6MOL   C157 1567   2.582   2.093   3.095 -0.2428  0.0626 -0.1468
    6MOL   C158 1568   2.716   2.072   3.144 -0.4054  0.2738  0.6503
    6MOL   C159 1569   2.764   1.939   3.151 -0.1718 -0.0003  0.6689
    6MOL   C160 1570   2.898   1.923   3.207  0.5986 -0.0777 -0.0453
    6MOL   C161 1571   2.947   1.812   3.263  0.4071 -0.0748  0.1089
    6MOL   C162 1572   2.683   1.835   3.097 -0.6578  0.1431 -0.5856
    6MOL   C163 1573   2.555   1.857   3.044 -0.1590  0.5075  0.8092
    6MOL   H164 1574   2.551   2.196   3.097  0.3139  0.2240  1.8921
    6MOL   H165 1575   2.773   2.154   3.184 -1.1065  0.2383  1.7469
    6MOL   H166 1576   2.960   2.010   3.194  0.4339  0.0003 -0.3031
    6MOL   H167 1577   2.880   1.727   3.267 -0.1591  0.4000  0.8303
    6MOL   H168 1578   2.705   1.731   3.116 -4.5007 -0.3591  1.6944
    6MOL   H169 1579   2.490   1.774   3.019  1.2898 -0.3399 -0.2542
    6MOL   C170 1580   3.083   1.796   3.315 -0.1990 -0.2570 -0.3997
    6MOL   C171 1581   3.182   1.894   3.305 -0.0078  0.0227  0.1172
    6MOL   C172 1582   3.310   1.866   3.361  0.0134  0.4459  0.1558
    6MOL   C173 1583   3.338   1.744   3.423  0.6907 -0.1656  0.1007
    6MOL   C174 1584   3.473   1.729   3.474  0.0727  0.1358  0.6070
    6MOL   C175 1585   3.504   1.644   3.568  0.1188 -0.2043  0.4099
    6MOL   C176 1586   3.239   1.647   3.432  0.2968  0.2440  0.6363
    6MOL   C177 1587   3.114   1.669   3.369 -0.5172 -0.2511 -0.0046
    6MOL   H178 1588   3.162   1.989   3.257  0.5893  0.4197  0.6478
    6MOL   H179 1589   3.392   1.933   3.335  0.4675 -1.0318 -2.4025
    6MOL   H180 1590   3.550   1.790   3.428 -0.2451  0.6086  0.7003
    6MOL   H181 1591   3.427   1.574   3.596  1.5893 -1.6917  0.8295
    6MOL   H182 1592   3.258   1.558   3.491  0.3555  0.9637  1.7248
    6MOL   H183 1593   3.037   1.595   3.382  0.7771 -1.7155 -0.5354
    6MOL   C184 1594   3.629   1.646   3.627  0.2541 -0.1035  0.1600
    6MOL   C185 1595   3.636   1.559   3.732  0.6779  0.7532  0.4325
    6MOL   C186 1596   3.756   1.546   3.800  0.0815 -0.0768 -1.0469
    6MOL   C187 1597   3.868   1.624   3.766  0.1330 -0.5055  0.2873
    6MOL   C188 1598   3.992   1.601   3.840  0.0436  0.6839 -0.0892
    6MOL   C189 1599   4.112   1.646   3.813  0.3264 -0.4099  0.1990
    6MOL   C190 1600   3.863   1.708   3.652  0.0925 -0.1441 -0.3241
    6MOL   C191 1601   3.739   1.717   3.584 -0.1311 -0.3506  0.6522
    6MOL   H192 1602   3.559   1.498   3.777  0.1960  1.7466  0.9526
    6MOL   H193 1603   3.768   1.478   3.883 -1.4655  1.4620  0.4896
    6MOL   H194 1604   3.974   1.535   3.923  2.0768  0.8028  0.4927
    6MOL   H195 1605   4.122   1.717   3.732  0.0376 -0.4021  0.1706
    6MOL   H196 1606   3.949   1.765   3.621 -0.6241  1.0542 -0.1389
    6MOL   H197 1607   3.732   1.790   3.504 -0.2932  0.5148  1.4468
    6MOL   C198 1608   4.234   1.603   3.878  0.2249  0.1440  0.1893
    6MOL   C199 1609   4.354   1.667   3.850  1.1006  0.5923 -0.1577
    6MOL   C200 1610   4.476   1.616   3.909  0.2520 -0.0029 -0.2798
    6MOL   C201 1611   4.476   1.503   3.992 -0.5475 -0.3463 -0.3777
    6MOL   C202 1612   4.598   1.447   4.059 -0.2458 -0.0924  0.8373
    6MOL   C203 1613   4.721   1.502   4.073 -0.0309  0.3433 -0.3298
    6MOL   C204 1614   4.352   1.447   4.024 -0.6697  0.5770  0.9313
    6MOL   C205 1615   4.228   1.495   3.971  0.5292 -0.0410 -0.4393
    6MOL   H206 1616   4.352   1.751   3.782 -1.2850  0.2114 -0.5914
    6MOL   H207 1617   4.565   1.674   3.888 -0.4266  1.9000  1.9293
    6MOL   H208 1618   4.585   1.352   4.108 -2.7789 -0.1550  0.1025
    6MOL   H209 1619   4.743   1.598   4.030 -1.8752 -0.3356 -2.8861
    6MOL   H210 1620   4.356   1.360   4.087  0.0032 -0.3005 -0.3001
    6MOL   H211 1621   4.135   1.451   4.001 -0.5621  3.2527  1.3226
    6MOL   C212 1622   4.830   1.434   4.152 -0.3248  0.0964 -0.1809
    6MOL   C213 1623   4.943   1.506   4.204 -0.0471  0.0310  0.4313
    6MOL   C214 1624   5.037   1.448   4.289 -0.7037 -0.1442  0.1968
    6MOL   C215 1625   5.044   1.310   4.294  0.3272  0.1864 -0.2800
    6MOL   C216 1626   5.158   1.235   4.358  0.0066  0.0538  0.2929
    6MOL   C217 1627   5.142   1.107   4.398 -1.0160 -0.1950 -0.0462
    6MOL   C218 1628   4.935   1.234   4.242  0.4444 -0.1227 -0.1893
    6MOL   C219 1629   4.826   1.298   4.174  0.4478 -0.8746 -0.3181
    6MOL   H220 1630   4.951   1.612   4.188  1.9181 -0.3443 -1.2326
    6MOL   H221 1631   5.113   1.508   4.336  0.3224 -2.8123  2.0635
    6MOL   H222 1632   5.242   1.302   4.369 -0.8173  1.2683 -0.7641
    6MOL   H223 1633   5.053   1.046   4.396 -1.8181  0.9859 -0.7829
    6MOL   H224 1634   4.928   1.127   4.246 -3.1920  0.0537  0.1175
    6MOL   H225 1635   4.739   1.241   4.144  0.0615  0.0017 -0.8662
    6MOL   C226 1636   5.269   1.038   4.438 -0.0746 -0.9397 -0.1789
    6MOL   C227 1637   5.258   0.915   4.505 -0.0785  0.5052 -0.1797
    6MOL   C228 1638   5.376   0.838   4.538 -0.1853  0.8577  0.1415
    6MOL   C229 1639   5.506   0.876   4.498  0.3913  0.1635  0.3041
    6MOL   C230 1640   5.627   0.798   4.548  0.0390  0.3485  0.1428
    6MOL   C231 1641   5.753   0.844   4.554  0.1456  0.0505  0.4071
    6MOL   C232 1642   5.517   1.001   4.435 -0.2577 -0.3885 -0.5068
    6MOL   C233 1643   5.403   1.082   4.406 -0.5263  0.1411  0.5806
    6MOL   H234 1644   5.164   0.878   4.542 -0.0518  1.0352  0.4244
    6MOL   H235 1645   5.362   0.745   4.591  1.2451 -0.9289 -2.5193
    6MOL   H236 1646   5.599   0.698   4.579  0.4672  0.4912  0.9892
    6MOL   H237 1647   5.774   0.948   4.533 -0.4028  0.1137  0.1639
    6MOL   H238 1648   5.617   1.038   4.420  0.7997 -2.3332  1.3372
    6MOL   H239 1649   5.417   1.181   4.365  0.3500  0.0475  0.6337
    6MOL   C240 1650   5.874   0.780   4.609  0.1453  0.2973  0.0517
    6MOL   C241 1651   5.883   0.645   4.655 -0.7377 -0.5462  0.3286
    6MOL   C242 1652   5.988   0.603   4.739  0.2303 -0.8065 -0.2075
    6MOL   C243 1653   6.093   0.689   4.773  0.7507  0.1407 -0.6481
    6MOL   C244 1654   6.198   0.651   4.868 -0.1936 -0.2779  0.5706
    6MOL   C245 1655   6.233   0.533   4.915 -0.2827  0.0943  0.2073
    6MOL   C246 1656   6.096   0.815   4.712  0.2276 -0.0069  0.4152
    6MOL   C247 1657   5.988   0.856   4.628 -0.5178 -0.7170 -0.1148
    6MOL   H248 1658   5.806   0.573   4.634  0.0467 -1.0482 -0.9096
    6MOL   H249 1659   5.976   0.503   4.779  2.3552 -1.4499 -1.1320
    6MOL   H250 1660   6.250   0.740   4.900  1.7810 -0.8477 -0.9507
    6MOL   H251 1661   6.178   0.450   4.875  1.8753 -1.1040 -0.3370
    6MOL   H252 1662   6.179   0.878   4.740  0.0378  0.7460 -0.6890
    6MOL   H253 1663   5.995   0.958   4.594  0.4365 -0.5073  0.6932
    6MOL   C254 1664   6.342   0.505   5.011 -0.3169  0.2450  0.1107
    6MOL   C255 1665   6.351   0.372   5.064 -0.1372  0.4025 -0.3018
    6MOL   C256 1666   6.445   0.342   5.169 -0.2096  0.0292 -0.3544
    6MOL   C257 1667   6.520   0.447   5.221 -0.0776 -0.0784  0.1297
    6MOL   C258 1668   6.623   0.417   5.320 -0.5817 -0.2889 -0.1472
    6MOL   C259 1669   6.659   0.475   5.436  0.0033  0.5703 -0.3753
    6MOL   C260 1670   6.508   0.577   5.173 -0.0729  0.0624 -0.6386
    6MOL   C261 1671   6.420   0.608   5.068 -0.0410  0.1668  0.5984
    6MOL   H262 1672   6.283   0.306   5.014 -1.7310  0.1114  2.1461
    6MOL   H263 1673   6.450   0.239   5.201  0.9642  0.2149  0.0607
    6MOL   H264 1674   6.694   0.336   5.311  1.1355  1.0758  0.8023
    6MOL   H265 1675   6.740   0.429   5.489  1.0624  3.0889  0.2727
    6MOL   H266 1676   6.564   0.659   5.217  1.1254 -1.2998  0.4616
    6MOL   H267 1677   6.418   0.707   5.026 -0.5661 -0.4009 -0.7561
    6MOL   C268 1678   6.601   0.590   5.503  0.3177  0.1192 -0.4074
    6MOL   C269 1679   6.473   0.648   5.483 -0.1313  0.6759 -0.4494
    6MOL   C270 1680   6.433   0.764   5.557  0.2589  0.3605  0.5022
    6MOL   C271 1681   6.523   0.827   5.651 -0.2090  0.1779 -0.0813
    6MOL   C272 1682   6.471   0.934   5.734 -0.7231 -0.0836 -0.5903
    6MOL   C273 1683   6.545   1.020   5.807  0.3915  0.9842 -0.2751
    6MOL   C274 1684   6.651   0.768   5.666 -0.2745 -0.1282  0.5357
    6MOL   C275 1685   6.689   0.655   5.592 -0.3965  0.1572  0.5015
    6MOL   H276 1686   6.397   0.606   5.420 -1.3701  2.3178 -0.0890
    6MOL   H277 1687   6.329   0.793   5.555  0.3712  0.7092 -0.5644
    6MOL   H278 1688   6.364   0.952   5.734 -1.3870 -3.6419 -0.1504
    6MOL   H279 1689   6.652   1.005   5.814 -0.2549 -4.1362  0.7100
    6MOL   H280 1690   6.724   0.809   5.734  1.5025 -0.8923 -0.8706
    6MOL   H281 1691   6.792   0.622   5.603 -0.5109  0.1683  1.7132
    6MOL   H282 1692   6.494   1.090   5.872 -0.5795  0.4644 -0.4732
    7MOL     C1 1693   4.455   7.828   7.671  0.5938  0.3274  0.0184
    7MOL     C2 1694   4.494   7.732   7.572 -0.7729 -0.4017  0.0942
    7MOL     C3 1695   4.633   7.703   7.564 -0.5141 -0.4474 -0.0006
    7MOL     C4 1696   4.725   7.742   7.665  0.2785 -0.0631  0.5705
    7MOL     C5 1697   4.866   7.713   7.658  0.4956 -0.3614 -0.4221
    7MOL     C6 1698   4.930   7.660   7.548  0.6652 -0.0837 -0.5532
    7MOL     C7 1699   4.684   7.839   7.757 -0.2890 -0.4373 -0.6635
    7MOL     C8 1700   4.552   7.881   7.767  0.2910  0.9042 -0.2620
    7MOL     H9 1701   4.422   7.690   7.503 -0.1127  0.8695 -1.3994
    7MOL    H10 1702   4.667   7.631   7.492 -1.8655 -0.3875 -0.7033
    7MOL    H11 1703   4.924   7.741   7.745 -0.1195 -0.5851  0.0628
    7MOL    H12 1704   4.876   7.637   7.458 -2.8563  2.6775  0.7414
    7MOL    H13 1705   4.754   7.872   7.833 -0.7264 -0.6833 -0.1454
    7MOL    H14 1706   4.520   7.951   7.842 -0.3495  0.0227  0.2841
    7MOL    H15 1707   4.352   7.860   7.681  0.7040  0.4443  0.7807
    7MOL    C16 1708   5.073   7.621   7.553  0.5550 -0.0146 -0.0050
    7MOL    C17 1709   5.131   7.568   7.438  0.6610 -0.0586  0.1635
    7MOL    C18 1710   5.269   7.541   7.433 -0.1521 -0.9589 -0.1653
    7MOL    C19 1711   5.354   7.573   7.542  0.6152 -0.0741 -0.6695
    7MOL    C20 1712   5.503   7.555   7.528  0.4581  0.4008  0.9662
    7MOL    C21 1713   5.581   7.534   7.637 -0.4085 -0.0578  0.3721
    7MOL    C22 1714   5.295   7.614   7.657 -0.4616 -0.6827 -0.1291
    7MOL    C23 1715   5.156   7.634   7.673 -0.1714 -0.3653 -0.6267
    7MOL    H24 1716   5.061   7.553   7.357 -0.2909 -1.9779  1.3015
    7MOL    H25 1717   5.313   7.503   7.342  0.9148  2.0083 -0.9498
    7MOL    H26 1718   5.549   7.570   7.431  1.0797 -0.2321  1.1578
    7MOL    H27 1719   5.530   7.518   7.731 -1.3810 -0.9702 -0.2923
    7MOL    H28 1720   5.361   7.645   7.737 -1.4937  0.6378  0.2296
    7MOL    H29 1721   5.127   7.690   7.761 -0.1000  0.5572 -1.1806
    7MOL    C30 1722   5.722   7.521   7.645 -0.8452 -0.1681 -0.5445
    7MOL    C31 1723   5.804   7.490   7.531 -0.9714 -0.2965 -0.4158
    7MOL    C32 1724   5.940   7.457   7.551 -0.1220 -0.3827 -0.1424
    7MOL    C33 1725   5.996   7.472   7.674  0.0312 -0.0983  0.7922
    7MOL    C34 1726   6.145   7.452   7.689 -0.8990  0.4504 -0.0090
    7MOL    C35 1727   6.235   7.476   7.793 -0.3414  0.6802  0.3665
    7MOL    C36 1728   5.925   7.521   7.784  0.4247 -0.0805 -0.2578
    7MOL    C37 1729   5.784   7.531   7.769  0.2939  0.2445  0.4079
    7MOL    H38 1730   5.772   7.478   7.429  0.8770 -1.1840 -0.9094
    7MOL    H39 1731   5.997   7.421   7.466  0.6643  1.8191 -0.5805
    7MOL    H40 1732   6.185   7.417   7.595  0.6033  1.1750  0.3419
    7MOL    H41 1733   6.197   7.508   7.889 -0.0693  0.9301  0.3915
    7MOL    H42 1734   5.971   7.555   7.876 -0.4617  1.0883 -0.2337
    7MOL    H43 1735   5.728   7.565   7.855  0.8521  1.6928  0.2146
    7MOL    C44 1736   6.379   7.461   7.807  0.4531  0.2230 -0.1780
    7MOL    C45 1737   6.451   7.531   7.903 -0.4151 -0.1364 -0.1270
    7MOL    C46 1738   6.587   7.516   7.926 -0.3056  0.2075  0.2461
    7MOL    C47 1739   6.661   7.422   7.850 -0.0464  0.3966 -0.0730
    7MOL    C48 1740   6.806   7.392   7.880 -0.2928 -0.5204  0.2520
    7MOL    C49 1741   6.849   7.398   8.006 -0.3966  0.2337  0.4038
    7MOL    C50 1742   6.597   7.351   7.750 -0.4644  0.1220  0.2255
    7MOL    C51 1743   6.457   7.371   7.728 -0.1052 -0.3454  0.8002
    7MOL    H52 1744   6.404   7.607   7.962  0.9193  1.3438 -0.9395
    7MOL    H53 1745   6.637   7.572   8.004  0.7213  1.0683 -0.9985
    7MOL    H54 1746   6.873   7.362   7.802  0.9789  0.3125  1.0130
    7MOL    H55 1747   6.779   7.427   8.083 -0.6310 -0.8735  0.6227
    7MOL    H56 1748   6.652   7.284   7.687  0.8047  0.9263  0.4591
    7MOL    H57 1749   6.411   7.317   7.647 -1.3000  0.8449  0.6582
    7MOL    C58 1750   6.985   7.365   8.046  0.0549 -0.1982  0.3336
    7MOL    C59 1751   7.018   7.339   0.036 -0.0804 -0.6059  0.6440
    7MOL    C60 1752   7.144   7.311   0.081 -0.1812 -0.2628  0.1960
    7MOL    C61 1753   7.254   7.316   8.135 -0.6770  0.6519 -0.3624
    7MOL    C62 1754   7.390   7.295   0.038 -0.1537  0.6021  0.3524
    7MOL    C63 1755   7.508   7.295   8.118  0.1229 -0.8609  0.5470
    7MOL    C64 1756   7.224   7.341   7.993  0.3664  0.0295  0.5595
    7MOL    C65 1757   7.090   7.363   7.948  0.6837 -0.3329  0.1521
    7MOL    H66 1758   6.939   7.340   0.110  1.0697  2.0954  1.8860
    7MOL    H67 1759   7.164   7.265   0.177  0.8341  0.3095  0.2708
    7MOL    H68 1760   7.386   7.284   0.145 -0.6391  1.7088  0.4558
    7MOL    H69 1761   7.506   7.307   8.010  1.4912  0.3978  0.6452
    7MOL    H70 1762   7.307   7.336   7.924 -1.1201 -3.0539 -1.1133
    7MOL    H71 1763   7.075   7.383   7.843 -0.2318  1.3608  0.5941
    7MOL    C72 1764   7.640   7.274   0.029 -0.1542  0.0674 -0.7748
    7MOL    C73 1765   7.670   7.234   0.160  0.6184  0.2551 -0.0802
    7MOL    C74 1766   7.803   7.219   0.204  0.0733 -0.5359 -0.0441
    7MOL    C75 1767   7.909   7.233   0.108  0.4813  0.1685 -0.3192
    7MOL    C76 1768   8.047   7.204   0.155 -0.0833 -0.3273 -0.0175
    7MOL    C77 1769   8.092   7.158   0.271  0.0235 -0.8351 -0.4936
    7MOL    C78 1770   7.883   7.275   8.118 -0.7677 -0.1776  0.2848
    7MOL    C79 1771   7.749   7.292   8.083  0.2620 -0.1326  0.4073
    7MOL    H80 1772   7.589   7.206   0.226  0.3045  0.8033 -0.2330
    7MOL    H81 1773   7.818   7.188   0.307 -1.7743 -1.9336 -0.1643
    7MOL    H82 1774   8.110   7.234   0.073  3.0535  1.1980  2.8324
    7MOL    H83 1775   8.024   7.151   0.355  0.7788  3.4081  0.5884
    7MOL    H84 1776   7.955   7.267   8.038 -0.1182 -0.4834  0.9050
    7MOL    H85 1777   7.730   7.319   7.980  0.7974 -0.2244  0.2859
    7MOL    C86 1778   0.086   7.119   0.298 -0.6386 -0.3694 -0.1688
    7MOL    C87 1779   0.126   7.079   0.431  0.5226  0.5614  0.6383
    7MOL    C88 1780   0.251   7.022   0.459 -0.3091  0.3868  0.8845
    7MOL    C89 1781   0.343   7.013   0.353 -0.8460  0.1078  0.5827
    7MOL    C90 1782   0.475   6.956   0.364  0.2116  0.2265  0.0516
    7MOL    C91 1783   0.543   6.928   0.478 -0.2092  0.5278 -0.0552
    7MOL    C92 1784   0.309   7.062   0.228  0.1538 -0.3666  0.5000
    7MOL    C93 1785   0.182   7.111   0.198 -0.5956  0.1319 -0.1518
    7MOL    H94 1786   0.053   7.090   0.509 -0.3899  1.5573 -0.3343
    7MOL    H95 1787   0.283   6.994   0.559  0.9219  0.2689  0.4724
    7MOL    H96 1788   0.514   6.936   0.265 -0.0966 -2.2150  0.4000
    7MOL    H97 1789   0.481   6.942   0.566 -0.2455 -1.4477  0.2670
    7MOL    H98 1790   0.384   7.068   0.151 -1.0257 -0.6220 -0.6846
    7MOL    H99 1791   0.152   7.133   0.097 -0.7224 -0.0166 -0.1469
    7MOL   C100 1792   0.685   6.869   0.484  0.4962  0.4779 -0.3116
    7MOL   C101 1793   0.765   6.862   0.376 -0.2362 -0.2636  0.4917
    7MOL   C102 1794   0.893   6.801   0.378 -0.0357 -0.3842  0.0449
    7MOL   C103 1795   0.948   6.760   0.497 -0.1817  0.1841  0.0023
    7MOL   C104 1796   1.085   6.698   0.487  0.1644 -0.1471  0.8121
    7MOL   C105 1797   1.160   6.680   0.597  0.3769 -0.3236 -0.3747
    7MOL   C106 1798   0.866   6.762   0.615 -0.6195  0.4029  0.5845
    7MOL   C107 1799   0.739   6.816   0.605  0.0248 -0.0727 -0.2621
    7MOL   H108 1800   0.727   6.895   0.280  4.3985  1.7763 -0.7578
    7MOL   H109 1801   0.947   6.785   0.285 -0.7769 -1.6635 -0.1752
    7MOL   H110 1802   1.114   6.655   0.392 -0.1245 -0.9781  1.0942
    7MOL   H111 1803   1.124   6.715   0.692  0.3569 -1.0774 -0.1027
    7MOL   H112 1804   0.897   6.727   0.712 -0.9722  0.8898  0.8719
    7MOL   H113 1805   0.665   6.813   0.684 -0.8266  2.5436 -0.9142
    7MOL   C114 1806   1.288   6.608   0.604 -0.1883 -0.3709 -0.0877
    7MOL   C115 1807   1.342   6.526   0.506  0.1700  0.4557 -0.7267
    7MOL   C116 1808   1.467   6.462   0.520  0.5557 -0.6161 -0.0394
    7MOL   C117 1809   1.541   6.470   0.637 -0.0363 -0.0184  0.0875
    7MOL   C118 1810   1.677   6.409   0.640 -0.2974 -0.0385  0.0904
    7MOL   C119 1811   1.737   6.379   0.756 -0.2600  0.6555 -0.0629
    7MOL   C120 1812   1.483   6.542   0.747 -0.1536  0.1135  0.3216
    7MOL   C121 1813   1.361   6.612   0.727  0.8294  0.1434 -0.2003
    7MOL   H122 1814   1.295   6.519   0.409 -1.1108  1.9597 -0.2397
    7MOL   H123 1815   1.522   6.418   0.438  1.0091  0.1179 -0.1355
    7MOL   H124 1816   1.712   6.384   0.541 -0.7880  1.2033 -0.3967
    7MOL   H125 1817   1.680   6.400   0.845 -0.3327  0.5796 -0.0908
    7MOL   H126 1818   1.543   6.553   0.835  2.3789  0.9944 -1.4567
    7MOL   H127 1819   1.319   6.669   0.809  0.9306  1.1356 -0.8365
    7MOL   C128 1820   1.874   6.323   0.779  1.1115  0.5190 -0.4442
    7MOL   C129 1821   1.931   6.313   0.907 -0.4211 -0.2092 -0.2220
    7MOL   C130 1822   2.060   6.256   0.924 -0.1683 -0.2319  0.5496
    7MOL   C131 1823   2.127   6.202   0.813  1.0229 -0.1328  0.6617
    7MOL   C132 1824   2.252   6.134   0.818 -0.1119  0.4633  0.0390
    7MOL   C133 1825   2.347   6.135   0.918  0.2138  0.0814  0.6235
    7MOL   C134 1826   2.073   6.207   0.685  0.0554  0.1105  0.2208
    7MOL   C135 1827   1.939   6.254   0.674 -0.1667  0.3538 -0.3027
    7MOL   H136 1828   1.874   6.351   0.991  2.2428  0.5569  1.2920
    7MOL   H137 1829   2.108   6.248   1.020 -0.8081 -1.2966  0.7825
    7MOL   H138 1830   2.271   6.070   0.733  2.1039  3.1638 -1.5619
    7MOL   H139 1831   2.340   6.211   0.994 -1.1539 -0.8433  1.4444
    7MOL   H140 1832   2.123   6.165   0.599  0.5844  0.1985  0.4835
    7MOL   H141 1833   1.890   6.258   0.577  0.4875 -0.0768 -0.6489
    7MOL   C142 1834   2.466   6.043   0.924  0.4749 -0.1051  0.1342
    7MOL   C143 1835   2.505   5.963   0.817  0.2548  0.2078 -0.1465
    7MOL   C144 1836   2.629   5.899   0.807 -0.1505 -0.4347 -0.2680
    7MOL   C145 1837   2.712   5.897   0.919  0.6034  0.2874  0.1465
    7MOL   C146 1838   2.840   5.829   0.929  0.0444 -0.6615  0.4134
    7MOL   C147 1839   2.888   5.753   0.829 -0.1743 -0.0371  0.3028
    7MOL   C148 1840   2.670   5.971   1.035  0.0646 -0.3520  0.4623
    7MOL   C149 1841   2.548   6.051   1.038 -0.0275  0.4593 -0.4317
    7MOL   H150 1842   2.458   5.974   0.721 -0.7963  0.8162  0.4354
    7MOL   H151 1843   2.655   5.846   0.717 -1.2769 -0.7130 -0.4392
    7MOL   H152 1844   2.889   5.833   1.025 -0.1158 -2.6146  0.5992
    7MOL   H153 1845   2.830   5.733   0.740  0.7273 -0.3205 -0.2241
    7MOL   H154 1846   2.739   5.984   1.116  0.2090  0.4610  0.2119
    7MOL   H155 1847   2.519   6.112   1.121 -0.2380 -1.6895  1.1214
    7MOL   C156 1848   3.014   5.683   0.832  1.4726 -0.8554 -0.6444
    7MOL   C157 1849   3.096   5.675   0.945 -0.1370  0.8064  0.3118
    7MOL   C158 1850   3.206   5.589   0.939 -0.2880  0.7814 -0.2216
    7MOL   C159 1851   3.241   5.518   0.825  0.2088  0.2777 -0.5286
    7MOL   C160 1852   3.370   5.440   0.828 -0.4995 -0.4192 -0.0119
    7MOL   C161 1853   3.416   5.359   0.724  0.4982 -0.5526 -0.1876
    7MOL   C162 1854   3.160   5.525   0.712 -0.2193 -0.0186  0.3321
    7MOL   C163 1855   3.045   5.606   0.719 -0.6345 -0.3253  0.0185
    7MOL   H164 1856   3.086   5.724   1.041 -1.7546 -1.2195  1.2298
    7MOL   H165 1857   3.265   5.582   1.029 -0.8548 -2.2388 -0.0149
    7MOL   H166 1858   3.432   5.454   0.915 -2.4960  0.4542  1.3187
    7MOL   H167 1859   3.359   5.342   0.634  0.1743  1.0767 -0.3048
    7MOL   H168 1860   3.173   5.474   0.617 -0.9825  0.7131 -0.1663
    7MOL   H169 1861   2.982   5.595   0.631 -1.7724 -0.6592  0.8593
    7MOL   C170 1862   3.538   5.281   0.715 -0.4057  0.0685  0.1826
    7MOL   C171 1863   3.589   5.227   0.601 -0.2423 -0.2650 -0.1514
    7MOL   C172 1864   3.715   5.162   0.595  0.3478 -0.8273 -0.8806
    7MOL   C173 1865   3.804   5.165   0.705  0.3264  0.2494  0.5047
    7MOL   C174 1866   3.943   5.112   0.698  0.4372 -0.8480  0.6981
    7MOL   C175 1867   3.993   5.043   0.594 -0.2564 -0.7377 -0.4696
    7MOL   C176 1868   3.754   5.228   0.824  0.3378  0.5248  1.3683
    7MOL   C177 1869   3.623   5.272   0.827 -0.4312 -0.6670 -0.4351
    7MOL   H178 1870   3.530   5.227   0.510 -1.5408 -3.2390  0.6253
    7MOL   H179 1871   3.741   5.131   0.494 -1.5416 -1.8374 -1.0649
    7MOL   H180 1872   3.996   5.129   0.791 -1.9291 -1.4465  2.2070
    7MOL   H181 1873   3.931   5.036   0.506 -0.7341 -0.2618 -0.1720
    7MOL   H182 1874   3.809   5.225   0.918  0.2968 -0.1661  1.3762
    7MOL   H183 1875   3.595   5.314   0.922  2.2132 -1.0258  0.5486
    7MOL   C184 1876   4.122   4.980   0.574  0.1593  0.6410  0.3542
    7MOL   C185 1877   4.147   4.908   0.459 -0.3553  0.0617  0.8212
    7MOL   C186 1878   4.276   4.848   0.437  0.8613 -0.3252 -0.0964
    7MOL   C187 1879   4.371   4.843   0.540 -0.0019  0.2890 -0.2253
    7MOL   C188 1880   4.506   4.787   0.527 -0.5745 -0.1521  0.0918
    7MOL   C189 1881   4.559   4.741   0.410 -0.0051 -0.8260  0.4867
    7MOL   C190 1882   4.341   4.914   0.655  0.3942 -0.4719  0.0480
    7MOL   C191 1883   4.226   4.993   0.671  0.1747  0.3321 -0.6959
    7MOL   H192 1884   4.074   4.902   0.380  0.3448  0.4699  0.1388
    7MOL   H193 1885   4.291   4.793   0.345  0.4425 -0.7228  0.0739
    7MOL   H194 1886   4.564   4.774   0.618  1.1369 -0.7834 -1.0673
    7MOL   H195 1887   4.499   4.762   0.322 -0.1185 -2.3707  0.1678
    7MOL   H196 1888   4.421   4.930   0.727  2.0914  0.9208 -2.0915
    7MOL   H197 1889   4.211   5.048   0.763  1.2897 -0.9542  0.2644
    7MOL   C198 1890   4.695   4.694   0.382  0.1948 -0.0979  0.4682
    7MOL   C199 1891   4.788   4.677   0.480 -0.0579 -0.1322 -0.2756
    7MOL   C200 1892   4.921   4.632   0.446  0.0875 -0.0654 -1.1215
    7MOL   C201 1893   4.959   4.615   0.310 -0.8052  0.2566  0.8438
    7MOL   C202 1894   5.091   4.583   0.269  0.4066  0.9531  0.7734
    7MOL   C203 1895   5.189   4.539   0.343  0.1394  0.1786  0.3480
    7MOL   C204 1896   4.857   4.632   0.215 -0.0450  0.1505 -0.9669
    7MOL   C205 1897   4.728   4.678   0.248  0.3333  0.5775 -0.1571
    7MOL   H206 1898   4.768   4.696   0.584 -0.7540 -3.2657  0.2173
    7MOL   H207 1899   4.988   4.624   0.530 -0.5742 -1.2145 -0.6839
    7MOL   H208 1900   5.102   4.605   0.163  2.3743  0.5933  0.8861
    7MOL   H209 1901   5.170   4.531   0.449  0.7120 -0.2711  0.4159
    7MOL   H210 1902   4.884   4.642   0.111  0.0291  1.6529 -0.8212
    7MOL   H211 1903   4.658   4.700   0.169 -0.8038  0.1362  0.7128
    7MOL   C212 1904   5.322   4.508   0.294  0.1371 -0.5355  0.5313
    7MOL   C213 1905   5.419   4.475   0.387 -0.1504  0.0529 -0.1636
    7MOL   C214 1906   5.548   4.436   0.340  0.0986 -0.0367 -0.9318
    7MOL   C215 1907   5.587   4.440   0.209 -0.5430  0.3208 -0.4253
    7MOL   C216 1908   5.727   4.423   0.179 -0.2705  0.4313 -0.3660
    7MOL   C217 1909   5.790   4.452   0.065 -0.6623 -1.0040 -0.1921
    7MOL   C218 1910   5.490   4.484   0.117  0.0659 -0.1477 -0.0540
    7MOL   C219 1911   5.364   4.522   0.159  0.0029  0.6579  0.0802
    7MOL   H220 1912   5.389   4.483   0.491  1.8750 -0.4687  0.4743
    7MOL   H221 1913   5.627   4.415   0.411 -0.4199  2.4403  0.4067
    7MOL   H222 1914   5.787   4.377   0.256 -1.0208 -0.9080 -0.5666
    7MOL   H223 1915   5.719   4.484   8.135 -0.4364 -1.2909 -0.5290
    7MOL   H224 1916   5.518   4.483   0.013 -0.4636  0.7489 -0.2050
    7MOL   H225 1917   5.301   4.563   0.081  1.3732  1.5761 -0.5577
    7MOL   C226 1918   5.928   4.446   0.032  0.9755  0.1334 -0.1850
    7MOL   C227 1919   5.959   4.469   8.039 -0.3815 -0.7551 -0.1865
    7MOL   C228 1920   6.092   4.471   8.002 -0.0280 -0.5629  0.0626
    7MOL   C229 1921   6.195   4.432   8.089  0.0133 -0.1403  0.5253
    7MOL   C230 1922   6.328   4.421   8.046 -0.0921 -0.5504 -1.0888
    7MOL   C231 1923   6.386   4.422   7.923 -0.3001  0.0496  0.4867
    7MOL   C232 1924   6.164   4.410   0.082 -0.1369 -0.0706  0.1253
    7MOL   C233 1925   6.033   4.419   0.130  0.2020  0.2727 -0.0675
    7MOL   H234 1926   5.883   4.488   7.963  0.7860 -0.2017 -1.2331
    7MOL   H235 1927   6.122   4.499   7.902 -1.3880 -1.3314 -0.5707
    7MOL   H236 1928   6.399   4.405   8.126 -0.0585  0.2537 -0.9544
    7MOL   H237 1929   6.333   4.450   7.833 -1.7933  0.7127  1.5425
    7MOL   H238 1930   6.248   4.382   0.144  1.4395 -0.7477 -2.2855
    7MOL   H239 1931   6.012   4.397   0.234  1.8144  0.3301  0.2743
    7MOL   C240 1932   6.528   4.392   7.908  0.4889  0.1300 -0.4250
    7MOL   C241 1933   6.582   4.284   7.988 -0.2627  0.2622  0.5925
    7MOL   C242 1934   6.721   4.263   7.980 -0.5054 -0.0374  0.1987
    7MOL   C243 1935   6.799   4.328   7.887  0.1495 -0.1567 -0.2120
    7MOL   C244 1936   6.936   4.289   7.859  0.1650  0.5291 -0.7215
    7MOL   C245 1937   6.984   4.168   7.891 -0.3166  0.2660  0.0697
    7MOL   C246 1938   6.743   4.422   7.795  0.3969  0.4627 -0.9833
    7MOL   C247 1939   6.609   4.466   7.817  0.0894 -0.6675 -1.0527
    7MOL   H248 1940   6.521   4.237   8.063  0.5571 -0.7296  0.6637
    7MOL   H249 1941   6.771   4.192   8.044  0.3967  1.5879  1.3404
    7MOL   H250 1942   6.990   4.368   7.810  0.4705 -0.8350 -2.6639
    7MOL   H251 1943   6.924   4.090   7.937  0.4774 -0.3416  0.0882
    7MOL   H252 1944   6.805   4.465   7.717 -0.0430  2.4069 -0.2998
    7MOL   H253 1945   6.558   4.541   7.758 -1.2179  0.7096  1.7750
    7MOL   C254 1946   7.119   4.118   7.865  0.1274  0.0167  0.6555
    7MOL   C255 1947   7.154   3.998   7.920  0.3454  0.0278 -0.1260
    7MOL   C256 1948   7.265   3.929   7.871 -0.7898  0.5119 -0.0566
    7MOL   C257 1949   7.347   3.974   7.771 -0.0654  0.3720  0.1620
    7MOL   C258 1950   7.461   3.893   7.716 -0.1931 -0.3453  0.1272
    7MOL   C259 1951   7.472   3.756   7.719  0.9672 -0.8034  0.1835
    7MOL   C260 1952   7.320   4.102   7.723  0.4100 -0.0297 -0.6847
    7MOL   C261 1953   7.201   4.173   7.763 -0.1977 -0.1701 -0.0056
    7MOL   H262 1954   7.099   3.945   7.996  0.1547  1.1911  0.5530
    7MOL   H263 1955   7.293   3.842   7.928 -1.1972  0.5860  0.2616
    7MOL   H264 1956   7.548   3.948   7.682  0.3565 -0.6952  0.9548
    7MOL   H265 1957   7.562   3.712   7.680  1.2574  0.5759 -0.7372
    7MOL   H266 1958   7.373   4.132   7.634 -0.3858 -1.6420 -1.7403
    7MOL   H267 1959   7.175   4.271   7.726 -0.8262  0.0969  1.1093
    7MOL   C268 1960   7.381   3.655   7.769 -0.2597  0.1927  0.5189
    7MOL   C269 1961   7.257   3.635   7.700  0.7773 -0.2969 -0.2221
    7MOL   C270 1962   7.160   3.545   7.749 -0.1504 -0.1260  0.4749
    7MOL   C271 1963   7.182   3.474   7.871  0.3424 -0.4571 -0.1281
    7MOL   C272 1964   7.075   3.384   7.925  0.1619 -0.3426 -0.3249
    7MOL   C273 1965   6.947   3.377   7.890 -1.5920  0.2563 -0.3035
    7MOL   C274 1966   7.300   3.498   7.945  0.0306  0.1450  0.0170
    7MOL   C275 1967   7.400   3.582   7.889 -0.7768 -0.3659  0.1194
    7MOL   H276 1968   7.238   3.679   7.603  1.1755  0.2834 -0.0478
    7MOL   H277 1969   7.073   3.532   7.687 -0.2367 -0.0332  0.5755
    7MOL   H278 1970   7.098   3.309   7.999 -0.7644 -2.7723 -2.4360
    7MOL   H279 1971   6.896   3.447   7.825  2.3078  1.1493 -2.5656
    7MOL   H280 1972   7.314   3.450   8.041 -0.2040  0.0276 -0.0057
    7MOL   H281 1973   7.494   3.599   7.940 -1.7500 -0.7356  2.0801
    7MOL   H282 1974   6.891   3.296   7.935  0.0327 -0.6870  0.0495
    8MOL     C1 1975   8.108   3.447   7.233 -0.2364 -0.5885  0.4184
    8MOL     C2 1976   8.007   3.420   7.328 -0.5408  0.1894 -0.0042
    8MOL     C3 1977   7.887   3.367   7.290  0.2868  0.2022  0.6115
    8MOL     C4 1978   7.864   3.311   7.164  0.3022  0.3064  0.3927
    8MOL     C5 1979   7.733   3.250   7.125 -0.5937  0.2584  0.3874
    8MOL     C6 1980   7.647   3.194   7.209  0.0707  0.0371  0.2970
    8MOL     C7 1981   7.966   3.331   7.067  0.1790 -0.1198 -0.0021
    8MOL     C8 1982   8.092   3.392   7.107  0.0834  0.1539  0.1245
    8MOL     H9 1983   8.021   3.450   7.431 -0.8174  1.7248 -0.4035
    8MOL    H10 1984   7.805   3.364   7.360 -0.5365 -0.5007 -0.3734
    8MOL    H11 1985   7.711   3.249   7.020  0.1121 -0.7476  0.2448
    8MOL    H12 1986   7.674   3.189   7.313 -1.0303 -0.9922  0.5362
    8MOL    H13 1987   7.949   3.299   6.965 -2.4124 -0.3568  0.4556
    8MOL    H14 1988   0.033   3.402   7.041  0.1340 -0.2602  0.1249
    8MOL    H15 1989   0.061   3.482   7.263 -0.1401 -0.8392  0.3990
    8MOL    C16 1990   7.522   3.132   7.173 -0.9149 -0.5176  0.5545
    8MOL    C17 1991   7.468   3.052   7.272 -0.5197 -1.0757 -0.3236
    8MOL    C18 1992   7.332   3.005   7.258 -0.3912  0.9688  0.6558
    8MOL    C19 1993   7.257   3.013   7.136 -0.7353 -0.2853  0.2504
    8MOL    C20 1994   7.124   2.954   7.132  0.4217  0.9662  0.1654
    8MOL    C21 1995   7.035   2.977   7.035 -0.7864  0.2184  0.6181
    8MOL    C22 1996   7.323   3.089   7.030  0.2153  0.1683  0.1665
    8MOL    C23 1997   7.452   3.145   7.049  0.2046 -0.0236  0.2019
    8MOL    H24 1998   7.532   3.029   7.355  0.0846  2.6566  0.3202
    8MOL    H25 1999   7.283   2.946   7.334  0.6381 -1.4288 -0.4955
    8MOL    H26 2000   7.101   2.891   7.217 -0.0694 -0.3262 -0.9085
    8MOL    H27 2001   7.069   3.053   6.966 -0.3595 -0.9872 -0.5486
    8MOL    H28 2002   7.269   3.108   6.938 -0.8655  1.8559  1.1224
    8MOL    H29 2003   7.501   3.205   6.974  0.4968  1.0288  1.2179
    8MOL    C30 2004   6.904   2.907   7.008  0.4278 -0.4751 -0.2414
    8MOL    C31 2005   6.836   2.823   7.098 -0.7537  0.1552  0.3568
    8MOL    C32 2006   6.723   2.745   7.068  1.1096 -1.2002  0.3287
    8MOL    C33 2007   6.675   2.753   6.938  0.5386  0.6455  0.2838
    8MOL    C34 2008   6.544   2.686   6.907 -0.1418  0.1860 -0.3111
    8MOL    C35 2009   6.506   2.643   6.786 -0.0721  0.7297  0.3703
    8MOL    C36 2010   6.742   2.835   6.840  0.0816  0.8258  0.5450
    8MOL    C37 2011   6.855   2.913   6.872 -0.3218 -0.4837  0.4348
    8MOL    H38 2012   6.889   2.825   7.191 -0.4973  3.3145  0.1965
    8MOL    H39 2013   6.687   2.683   7.149  1.9369 -0.5655  1.1913
    8MOL    H40 2014   6.479   2.674   6.991  0.7640  0.1616  0.3961
    8MOL    H41 2015   6.575   2.659   6.703 -0.7374 -0.3349 -0.3947
    8MOL    H42 2016   6.717   2.846   6.736  1.4394  0.7009  0.1922
    8MOL    H43 2017   6.902   2.972   6.795  0.7562 -2.4723 -0.4467
    8MOL    C44 2018   6.386   2.573   6.751 -0.2528 -0.3617 -0.1275
    8MOL    C45 2019   6.299   2.518   6.843  0.2569  0.1837  0.9914
    8MOL    C46 2020   6.180   2.458   6.804 -0.0901  0.4148  0.2040
    8MOL    C47 2021   6.157   2.428   6.669  0.8036  0.0737 -0.0708
    8MOL    C48 2022   6.040   2.362   6.618  0.2766  0.4833 -0.4010
    8MOL    C49 2023   5.942   2.303   6.690 -0.0545  0.4355 -0.2770
    8MOL    C50 2024   6.236   2.488   6.578  0.1270 -0.2335 -0.2100
    8MOL    C51 2025   6.353   2.559   6.614  0.7560 -0.2258 -0.5684
    8MOL    H52 2026   6.316   2.530   6.949  0.0084 -0.1471  1.0719
    8MOL    H53 2027   6.108   2.434   6.880  1.2552 -0.4971  1.2086
    8MOL    H54 2028   6.032   2.363   6.510  0.5685  1.3561 -0.4188
    8MOL    H55 2029   5.944   2.290   6.797  0.9118  0.2445 -0.3180
    8MOL    H56 2030   6.211   2.486   6.473  0.2365  3.0188 -0.3446
    8MOL    H57 2031   6.408   2.610   6.536 -2.5169  2.6868 -1.1108
    8MOL    C58 2032   5.825   2.241   6.642 -0.1449  0.0433 -0.1894
    8MOL    C59 2033   5.780   2.244   6.509 -0.3292 -0.2289  0.0292
    8MOL    C60 2034   5.657   2.191   6.473  0.5961 -0.3272 -0.3731
    8MOL    C61 2035   5.575   2.122   6.566  0.0133  0.0362  0.5120
    8MOL    C62 2036   5.449   2.054   6.525  0.1083 -0.2820  0.2359
    8MOL    C63 2037   5.356   1.998   6.606  0.0441  0.1320  0.5859
    8MOL    C64 2038   5.621   2.114   6.697  0.1436 -0.9588 -0.0505
    8MOL    C65 2039   5.743   2.174   6.739  0.1422  0.6616  0.0023
    8MOL    H66 2040   5.838   2.296   6.433  0.0646 -1.8554 -0.8099
    8MOL    H67 2041   5.629   2.203   6.370 -4.7546 -0.6616  0.8814
    8MOL    H68 2042   5.429   2.052   6.419 -0.6044  2.2949  0.2664
    8MOL    H69 2043   5.368   1.994   6.713 -0.9191  0.5599  0.7224
    8MOL    H70 2044   5.564   2.062   6.772  0.5935 -0.2440  0.7952
    8MOL    H71 2045   5.771   2.165   6.843  1.6459  2.1211 -0.2454
    8MOL    C72 2046   5.239   1.932   6.562  0.1047 -0.3769 -0.1302
    8MOL    C73 2047   5.188   1.926   6.429 -0.6756 -1.1420 -1.0674
    8MOL    C74 2048   5.067   1.861   6.401  0.1787 -0.1666 -0.2062
    8MOL    C75 2049   5.000   1.794   6.507  0.3237  0.8326  0.3393
    8MOL    C76 2050   4.868   1.727   6.486  0.3926  0.0851  0.0966
    8MOL    C77 2051   4.797   1.715   6.372  0.6838 -0.9773  0.2238
    8MOL    C78 2052   5.054   1.785   6.633  0.5877 -0.6181  0.2020
    8MOL    C79 2053   5.170   1.854   6.661  0.1622 -0.4196 -0.2457
    8MOL    H80 2054   5.239   1.981   6.351 -0.8967 -1.8098 -1.6920
    8MOL    H81 2055   5.020   1.872   6.304 -0.2805  0.1010  0.0404
    8MOL    H82 2056   4.830   1.685   6.577  2.5125 -1.1566  0.4392
    8MOL    H83 2057   4.843   1.749   6.280  1.2137 -2.0553  0.0828
    8MOL    H84 2058   5.004   1.742   6.719  0.0179  3.1245  1.8612
    8MOL    H85 2059   5.205   1.862   6.763 -1.0316 -0.3592  0.1605
    8MOL    C86 2060   4.666   1.652   6.355  0.0894 -0.4014  0.1301
    8MOL    C87 2061   4.588   1.589   6.453  0.2553 -0.2107 -0.6531
    8MOL    C88 2062   4.477   1.505   6.421 -0.0382  0.1423 -0.8435
    8MOL    C89 2063   4.427   1.502   6.290  0.6845 -0.2537 -0.6144
    8MOL    C90 2064   4.307   1.423   6.262  0.4753 -0.3496 -0.6965
    8MOL    C91 2065   4.246   1.406   6.141  0.1566  0.1388 -0.0194
    8MOL    C92 2066   4.491   1.579   6.193 -0.3723 -0.8193  0.1484
    8MOL    C93 2067   4.608   1.648   6.227 -0.4945 -0.3652 -0.3801
    8MOL    H94 2068   4.636   1.579   6.549  1.0908 -0.2309 -1.0721
    8MOL    H95 2069   4.447   1.433   6.496  0.8626  0.2199 -0.3911
    8MOL    H96 2070   4.277   1.368   6.350  0.1713  0.2735 -0.4055
    8MOL    H97 2071   4.288   1.458   6.056  1.2239 -1.1494 -0.3020
    8MOL    H98 2072   4.459   1.568   6.090 -2.1466 -3.0847  0.8948
    8MOL    H99 2073   4.663   1.706   6.154  2.1947 -0.1935  1.7198
    8MOL   C100 2074   4.134   1.307   6.124  0.4748 -0.6469 -0.2576
    8MOL   C101 2075   4.073   1.302   5.995 -0.4534 -0.1598 -0.3050
    8MOL   C102 2076   3.966   1.214   5.959  0.0479 -0.3895  0.7457
    8MOL   C103 2077   3.923   1.117   6.059 -0.4031 -0.0188 -0.8797
    8MOL   C104 2078   3.830   1.003   6.036  0.4088 -0.6638 -0.0562
    8MOL   C105 2079   3.746   0.970   5.929 -0.0613  0.3161  0.5085
    8MOL   C106 2080   3.982   1.127   6.189  0.1880 -0.5981 -0.3665
    8MOL   C107 2081   4.085   1.223   6.222  0.0676  0.0273  0.1468
    8MOL   H108 2082   4.103   1.365   5.913  3.7386 -0.4524  0.8634
    8MOL   H109 2083   3.931   1.212   5.856  0.6176  1.1425  0.5143
    8MOL   H110 2084   3.830   0.929   6.115  0.8248 -0.0355  0.5345
    8MOL   H111 2085   3.740   1.042   5.849 -0.6182 -0.8429 -0.5111
    8MOL   H112 2086   3.955   1.053   6.262 -2.1965  0.4879 -0.1129
    8MOL   H113 2087   4.132   1.230   6.319  1.4812  1.0400 -0.5901
    8MOL   C114 2088   3.663   0.843   5.915 -0.1872 -0.0375 -0.2974
    8MOL   C115 2089   3.638   0.761   6.029  0.1267  0.1132 -0.2347
    8MOL   C116 2090   3.573   0.641   6.014  0.4520  0.4184 -0.1261
    8MOL   C117 2091   3.529   0.595   5.887 -0.4103 -0.2844  0.3270
    8MOL   C118 2092   3.486   0.456   5.860  1.1060 -0.0995 -0.7918
    8MOL   C119 2093   3.465   0.394   5.743 -0.0069  0.3526  0.6732
    8MOL   C120 2094   3.557   0.677   5.775  0.3355  0.7956 -0.8607
    8MOL   C121 2095   3.616   0.802   5.791  0.2600  0.2958  0.6812
    8MOL   H122 2096   3.686   0.782   6.124  0.1376 -1.3140  0.0864
    8MOL   H123 2097   3.556   0.576   6.099 -1.1141  1.0835  0.0747
    8MOL   H124 2098   3.453   0.406   5.950 -1.3832 -0.4524 -1.8611
    8MOL   H125 2099   3.483   0.445   5.650 -1.8920 -0.6541 -0.2708
    8MOL   H126 2100   3.536   0.640   5.676  2.4819 -1.3264 -0.5675
    8MOL   H127 2101   3.637   0.859   5.701 -1.4302  3.1594  2.0274
    8MOL   C128 2102   3.417   0.262   5.739 -0.3174 -0.1553  0.4918
    8MOL   C129 2103   3.328   0.208   5.839 -0.4202 -0.0774  0.0458
    8MOL   C130 2104   3.297   0.075   5.834  0.3490 -0.7193 -0.1595
    8MOL   C131 2105   3.356   8.139   5.740 -1.0810  0.0331  0.1386
    8MOL   C132 2106   3.329   7.995   5.762  0.0413 -0.0308  0.7269
    8MOL   C133 2107   3.357   7.892   5.680 -0.0538  0.3771  0.1410
    8MOL   C134 2108   3.435   0.042   5.636  0.2375  0.1017  0.6118
    8MOL   C135 2109   3.473   0.176   5.639  0.0739 -0.1556  0.0163
    8MOL   H136 2110   3.295   0.272   5.919  1.8712  1.6245 -0.3230
    8MOL   H137 2111   3.221   0.035   5.900 -1.1294 -1.4758 -2.2608
    8MOL   H138 2112   3.286   7.963   5.856  1.0924  1.5258  1.7789
    8MOL   H139 2113   3.384   7.906   5.577 -1.8464 -1.6736 -0.6302
    8MOL   H140 2114   3.472   8.108   5.572 -3.1185  0.5039 -1.9450
    8MOL   H141 2115   3.548   0.209   5.568  0.0505  2.1344  1.0001
    8MOL   C142 2116   3.363   7.750   5.710  0.0764  0.1230 -0.3555
    8MOL   C143 2117   3.343   7.690   5.837  0.0147 -0.9472  0.0217
    8MOL   C144 2118   3.356   7.552   5.859 -0.4414  0.0219 -1.0381
    8MOL   C145 2119   3.389   7.464   5.752  0.2514  0.8085  1.1820
    8MOL   C146 2120   3.429   7.323   5.772 -0.0171  0.5682  0.0725
    8MOL   C147 2121   3.514   7.285   5.872  0.3664  0.0909 -0.3403
    8MOL   C148 2122   3.397   7.515   5.623 -0.5291 -0.2427 -0.2318
    8MOL   C149 2123   3.392   7.659   5.603 -0.2883 -0.5297 -0.6361
    8MOL   H150 2124   3.334   7.762   5.917  0.5438  1.2381 -1.8555
    8MOL   H151 2125   3.348   7.514   5.960  0.6152  0.6684 -0.7099
    8MOL   H152 2126   3.393   7.253   5.698 -2.5266  1.9986 -0.1416
    8MOL   H153 2127   3.557   7.366   5.930  1.3054 -0.2298 -0.5955
    8MOL   H154 2128   3.434   7.447   5.549  1.0806 -0.5229  0.8094
    8MOL   H155 2129   3.417   7.698   5.506 -1.0374  0.6116 -0.3779
    8MOL   C156 2130   3.564   7.152   5.898 -0.2032  0.7823  0.3851
    8MOL   C157 2131   3.667   7.131   5.987 -0.2604 -0.8780 -0.2847
    8MOL   C158 2132   3.709   6.998   6.013 -0.2220 -1.0838 -1.1989
    8MOL   C159 2133   3.656   6.884   5.953  0.2403  0.2125  0.3214
    8MOL   C160 2134   3.695   6.740   5.993 -0.1343  0.1599  0.7436
    8MOL   C161 2135   3.625   6.630   5.949 -1.1610 -0.0611 -0.0020
    8MOL   C162 2136   3.567   6.904   5.844 -0.2030  0.3056 -0.4385
    8MOL   C163 2137   3.517   7.038   5.821  0.0140 -0.6973  0.3159
    8MOL   H164 2138   3.717   7.213   6.037  0.5096 -0.4064 -1.8168
    8MOL   H165 2139   3.779   6.986   6.094  1.3111  0.5231 -2.2466
    8MOL   H166 2140   3.780   6.729   6.059  1.1333 -2.3852 -1.2387
    8MOL   H167 2141   3.541   6.651   5.884  0.0352  1.2744 -1.1507
    8MOL   H168 2142   3.533   6.818   5.790  0.0805 -0.5428  0.7232
    8MOL   H169 2143   3.437   7.051   5.749 -0.3411  0.4507  0.8998
    8MOL   C170 2144   3.625   6.491   5.986 -0.2658  0.1211 -0.8788
    8MOL   C171 2145   3.521   6.406   5.942  0.0524  0.0506 -0.8687
    8MOL   C172 2146   3.523   6.272   5.972 -0.0585  0.0309  0.5442
    8MOL   C173 2147   3.616   6.220   6.061  0.2203 -0.7547  0.6164
    8MOL   C174 2148   3.602   6.078   6.099  0.4198  0.5808 -0.5760
    8MOL   C175 2149   3.694   5.991   6.156 -0.0125  0.5049  0.4269
    8MOL   C176 2150   3.725   6.295   6.105 -0.3900 -0.2933  0.3720
    8MOL   C177 2151   3.728   6.430   6.067  0.2750  0.4066 -0.4113
    8MOL   H178 2152   3.445   6.439   5.873 -0.9596  0.7964  0.5748
    8MOL   H179 2153   3.438   6.210   5.945 -0.4917  0.5392  0.7395
    8MOL   H180 2154   3.507   6.026   6.093  1.9975 -2.4083 -0.3533
    8MOL   H181 2155   3.793   6.033   6.167  0.8681 -0.9506 -1.6405
    8MOL   H182 2156   3.806   6.255   6.166 -2.4871 -3.3131  1.3064
    8MOL   H183 2157   3.811   6.488   6.103  1.2062 -0.5155 -1.0562
    8MOL   C184 2158   3.674   5.858   6.211  0.7789  0.3003  0.0301
    8MOL   C185 2159   3.786   5.780   6.240  0.0265  0.2774  0.1159
    8MOL   C186 2160   3.766   5.647   6.290 -0.4489 -0.7797  0.1209
    8MOL   C187 2161   3.633   5.602   6.313 -0.1042 -0.3687  0.0379
    8MOL   C188 2162   3.608   5.469   6.375  0.0089  0.1759 -0.0821
    8MOL   C189 2163   3.692   5.372   6.411  0.3603 -0.2886 -0.3246
    8MOL   C190 2164   3.522   5.684   6.289 -0.0297 -0.8913  0.6086
    8MOL   C191 2165   3.542   5.813   6.234 -0.3592  0.1347 -0.5770
    8MOL   H192 2166   3.888   5.809   6.217 -0.4665  0.9609 -1.2258
    8MOL   H193 2167   3.847   5.578   6.309  0.4382  0.1363 -0.3247
    8MOL   H194 2168   3.502   5.452   6.385  0.1288  0.7718  2.7027
    8MOL   H195 2169   3.797   5.391   6.397 -0.1614  1.4828 -2.1390
    8MOL   H196 2170   3.424   5.644   6.309  0.0235 -1.0360  0.5843
    8MOL   H197 2171   3.454   5.873   6.215  0.1278  0.3162 -2.3552
    8MOL   C198 2172   3.661   5.239   6.462  0.0208 -0.0283 -0.2054
    8MOL   C199 2173   3.530   5.192   6.464 -0.2279 -0.4386 -0.0869
    8MOL   C200 2174   3.503   5.064   6.506 -0.5401  0.1203  0.1711
    8MOL   C201 2175   3.605   4.969   6.534  0.0996  0.3517 -0.1432
    8MOL   C202 2176   3.570   4.830   6.573 -0.4206  0.6196 -0.1169
    8MOL   C203 2177   3.659   4.745   6.618 -0.1553 -0.2934 -0.3514
    8MOL   C204 2178   3.738   5.016   6.526 -0.1366  0.0607 -0.6090
    8MOL   C205 2179   3.764   5.155   6.499  0.1266  0.2286 -0.3013
    8MOL   H206 2180   3.448   5.247   6.422  0.4157 -0.0149 -0.7936
    8MOL   H207 2181   3.408   5.012   6.502  0.3218 -1.3959 -1.0140
    8MOL   H208 2182   3.471   4.788   6.572 -0.2587  0.2449 -2.6042
    8MOL   H209 2183   3.763   4.773   6.622 -0.5610  1.0745  1.1778
    8MOL   H210 2184   3.812   4.942   6.548 -0.1687  0.2510  0.1476
    8MOL   H211 2185   3.864   5.193   6.485 -1.4457  4.1225 -1.6750
    8MOL   C212 2186   3.605   4.612   6.667 -0.1157  0.1935 -0.4700
    8MOL   C213 2187   3.669   4.551   6.770  0.3772 -0.7220 -0.6948
    8MOL   C214 2188   3.616   4.434   6.828 -0.2864  1.0543 -0.1002
    8MOL   C215 2189   3.503   4.365   6.778  0.0515 -0.3661 -0.1567
    8MOL   C216 2190   3.457   4.238   6.834  1.1157  0.8633  0.1274
    8MOL   C217 2191   3.352   4.161   6.790 -0.0561 -0.2009 -0.2388
    8MOL   C218 2192   3.438   4.430   6.673 -0.4716 -0.2009  0.0507
    8MOL   C219 2193   3.488   4.548   6.609  0.8554 -0.2543  0.2465
    8MOL   H220 2194   3.748   4.603   6.822  1.7445 -1.5429 -1.8997
    8MOL   H221 2195   3.662   4.381   6.910  0.5311 -1.3442 -2.0371
    8MOL   H222 2196   3.516   4.198   6.916 -1.3371 -1.4806  0.8191
    8MOL   H223 2197   3.294   4.202   6.709 -0.5068  0.6041  0.4930
    8MOL   H224 2198   3.362   4.377   6.618  0.0986 -0.4830 -0.4837
    8MOL   H225 2199   3.437   4.583   6.521  1.7065  1.0523  0.2549
    8MOL   C226 2200   3.309   4.027   6.841  0.1266 -0.0102 -0.4439
    8MOL   C227 2201   3.390   3.932   6.910 -0.3199 -0.6116  0.4082
    8MOL   C228 2202   3.327   3.825   6.970 -0.2415 -0.1625  0.0706
    8MOL   C229 2203   3.194   3.788   6.943  0.4970  0.2604 -0.1665
    8MOL   C230 2204   3.125   3.667   7.003 -0.2290  0.8906 -0.0375
    8MOL   C231 2205   3.190   3.572   7.076  0.1834  0.1465  0.1445
    8MOL   C232 2206   3.121   3.886   6.872  0.3263  0.5984 -0.2926
    8MOL   C233 2207   3.174   3.999   6.820  0.2873 -0.2652  0.4918
    8MOL   H234 2208   3.496   3.946   6.918 -0.5185 -0.4046  3.2730
    8MOL   H235 2209   3.389   3.764   7.034  0.2660  0.8948  0.6061
    8MOL   H236 2210   3.025   3.644   6.970  0.5835 -2.0476 -0.6304
    8MOL   H237 2211   3.296   3.584   7.090  0.4209  0.0170 -1.4417
    8MOL   H238 2212   3.015   3.868   6.871  0.3075  0.6496  0.6388
    8MOL   H239 2213   3.114   4.078   6.778  0.6318  0.0026  0.4959
    8MOL   C240 2214   3.125   3.455   7.134 -0.0007  0.5992 -0.8022
    8MOL   C241 2215   2.998   3.400   7.101  0.3245  0.5386  0.3594
    8MOL   C242 2216   2.939   3.286   7.161  0.2085 -1.0027 -0.8506
    8MOL   C243 2217   3.002   3.223   7.267 -0.2111  0.1097  0.5060
    8MOL   C244 2218   2.950   3.109   7.340 -0.2167 -0.2752 -0.4354
    8MOL   C245 2219   2.839   3.038   7.317  0.1351  0.2439  0.3838
    8MOL   C246 2220   3.119   3.282   7.313 -0.3111  0.0048 -0.7563
    8MOL   C247 2221   3.184   3.396   7.249 -0.0169 -0.1220  0.3060
    8MOL   H248 2222   2.949   3.439   7.013  0.5633  2.1795  0.9273
    8MOL   H249 2223   2.844   3.256   7.118 -0.4817  0.1174 -0.1438
    8MOL   H250 2224   3.022   3.082   7.417  1.2803 -1.0295 -2.0768
    8MOL   H251 2225   2.774   3.056   7.233 -0.6056 -2.4048  0.3463
    8MOL   H252 2226   3.172   3.233   7.394 -1.1479  0.8707  0.3226
    8MOL   H253 2227   3.286   3.421   7.275  0.5286  0.0008 -1.8294
    8MOL   C254 2228   2.791   2.928   7.403 -0.3056  0.4521  0.3054
    8MOL   C255 2229   2.862   2.874   7.512  0.6253  0.1645  0.1031
    8MOL   C256 2230   2.820   2.768   7.590  0.1667 -0.6336  1.0045
    8MOL   C257 2231   2.692   2.710   7.565  0.2820  0.3855 -0.1112
    8MOL   C258 2232   2.638   2.616   7.665  0.0414 -0.2980  0.2567
    8MOL   C259 2233   2.607   2.485   7.645 -0.2234 -0.1458  0.1585
    8MOL   C260 2234   2.619   2.758   7.454  0.3079  0.0636 -0.8245
    8MOL   C261 2235   2.670   2.864   7.376  0.2377  0.0886 -0.0261
    8MOL   H262 2236   2.955   2.911   7.552 -1.0907  2.7665  1.8240
    8MOL   H263 2237   2.874   2.746   7.681 -1.6183  1.9045  2.7489
    8MOL   H264 2238   2.623   2.661   7.762  2.5934 -0.3382  0.7075
    8MOL   H265 2239   2.549   2.435   7.721 -0.1020  0.1140  0.4252
    8MOL   H266 2240   2.515   2.728   7.442  0.3591 -0.5480  0.1743
    8MOL   H267 2241   2.608   2.906   7.298 -0.7263 -2.3401 -0.6087
    8MOL   C268 2242   2.628   2.407   7.524 -0.4134 -0.1402 -0.7100
    8MOL   C269 2243   2.545   2.298   7.500  0.0289  0.2976  0.2792
    8MOL   C270 2244   2.568   2.217   7.384  0.9795  0.1899  0.4195
    8MOL   C271 2245   2.666   2.238   7.285  0.0838  0.0066 -0.2388
    8MOL   C272 2246   2.685   2.151   7.171 -0.1406 -1.0122  0.2989
    8MOL   C273 2247   2.740   2.191   7.056 -0.5525 -0.1462  0.0845
    8MOL   C274 2248   2.757   2.342   7.318 -0.0906  0.1106 -0.2725
    8MOL   C275 2249   2.733   2.434   7.430 -0.5673 -0.4873 -0.0094
    8MOL   H276 2250   2.467   2.265   7.567  3.0324 -1.5905  3.0497
    8MOL   H277 2251   2.504   2.132   7.367 -1.3016  2.0159 -0.3437
    8MOL   H278 2252   2.661   2.047   7.187 -0.8289 -0.5971  2.1500
    8MOL   H279 2253   2.768   2.294   7.036  1.7885 -0.8725 -0.4693
    8MOL   H280 2254   2.842   2.352   7.252  0.2511 -1.0236 -0.0168
    8MOL   H281 2255   2.804   2.515   7.438  0.5888 -1.4996  0.2421
    8MOL   H282 2256   2.741   2.118   6.977 -2.4996  2.1966 -2.1953
    9MOL     C1 2257   6.019   4.157   5.047 -0.4262 -0.0841  0.5705
    9MOL     C2 2258   5.973   4.160   4.915  0.2560 -0.6339  0.3685
    9MOL     C3 2259   5.844   4.125   4.883  0.3606 -0.1959  0.5206
    9MOL     C4 2260   5.758   4.069   4.982 -0.2586  0.3267  0.0934
    9MOL     C5 2261   5.633   4.003   4.944 -0.7643 -0.1396 -0.0286
    9MOL     C6 2262   5.541   3.956   5.028 -0.5050 -0.1800  0.4298
    9MOL     C7 2263   5.800   4.075   5.119 -0.3861  0.2844 -0.3455
    9MOL     C8 2264   5.932   4.114   5.152  0.4485 -0.3998 -0.4552
    9MOL     H9 2265   6.017   4.208   4.829  0.3993 -0.2212  0.6757
    9MOL    H10 2266   5.813   4.126   4.780  0.8661  0.3231  0.3766
    9MOL    H11 2267   5.629   3.992   4.837  1.1402  1.4218 -0.2831
    9MOL    H12 2268   5.555   3.975   5.133  0.4826  0.0866  0.2549
    9MOL    H13 2269   5.738   4.037   5.199  1.6226 -0.1600  1.0378
    9MOL    H14 2270   5.970   4.123   5.252 -1.6073  0.7351  0.2378
    9MOL    H15 2271   6.118   4.183   5.081 -0.9009  1.2515  0.9555
    9MOL    C16 2272   5.424   3.886   4.989  0.4450  0.6623  0.7883
    9MOL    C17 2273   5.397   3.853   4.853 -0.1055  0.1828 -0.0714
    9MOL    C18 2274   5.280   3.784   4.819  0.2589  0.4124  0.4694
    9MOL    C19 2275   5.186   3.750   4.912 -0.0619 -0.3213 -0.5257
    9MOL    C20 2276   5.066   3.689   4.864 -0.5451  0.2648 -0.0508
    9MOL    C21 2277   4.948   3.698   4.927 -0.5425 -0.6535 -0.2667
    9MOL    C22 2278   5.215   3.786   5.047  0.0821  0.1053  0.0218
    9MOL    C23 2279   5.327   3.853   5.089  0.7494  0.3285 -0.4118
    9MOL    H24 2280   5.458   3.881   4.768  0.9225 -0.7649  0.3408
    9MOL    H25 2281   5.254   3.777   4.714  0.3760 -0.0954  0.4721
    9MOL    H26 2282   5.064   3.637   4.769 -3.3280 -1.6334  0.9616
    9MOL    H27 2283   4.952   3.749   5.022 -0.5403 -2.3004  0.6299
    9MOL    H28 2284   5.139   3.749   5.115 -0.6778  0.2403 -0.7425
    9MOL    H29 2285   5.340   3.859   5.196 -0.0649 -1.5792 -0.1822
    9MOL    C30 2286   4.815   3.650   4.886 -0.2018  0.0675  0.8012
    9MOL    C31 2287   4.702   3.689   4.956  0.2183 -0.1203 -1.0191
    9MOL    C32 2288   4.569   3.655   4.915 -0.0072 -0.9282 -0.1630
    9MOL    C33 2289   4.553   3.585   4.792 -0.4684 -0.3041  1.4035
    9MOL    C34 2290   4.419   3.539   4.755  0.6781 -0.3944 -0.1186
    9MOL    C35 2291   4.375   3.459   4.654 -0.3579  0.2361  0.1351
    9MOL    C36 2292   4.671   3.541   4.721  0.1271 -0.2889  0.3591
    9MOL    C37 2293   4.803   3.574   4.764  0.4149 -0.2037  0.1052
    9MOL    H38 2294   4.713   3.751   5.044 -1.1114  1.0823 -1.6684
    9MOL    H39 2295   4.484   3.694   4.971 -0.2552 -2.1325  0.3093
    9MOL    H40 2296   4.341   3.571   4.822  1.1261 -2.7551  1.6069
    9MOL    H41 2297   4.441   3.429   4.575  0.1990 -0.5199  0.8726
    9MOL    H42 2298   4.661   3.485   4.629 -0.2046  1.5219 -0.7373
    9MOL    H43 2299   4.886   3.533   4.708 -0.5738 -2.1448  0.0040
    9MOL    C44 2300   4.236   3.412   4.629  0.1673  0.8749  0.1390
    9MOL    C45 2301   4.131   3.457   4.711 -0.3636  0.6089 -0.0769
    9MOL    C46 2302   4.002   3.420   4.684 -0.4988 -0.1315  0.4010
    9MOL    C47 2303   3.973   3.319   4.590 -0.4510 -0.3558 -1.1493
    9MOL    C48 2304   3.832   3.281   4.572  0.3714  0.5826 -0.6977
    9MOL    C49 2305   3.788   3.191   4.481  0.7125 -0.1541 -0.1466
    9MOL    C50 2306   4.081   3.257   4.520 -0.0129 -0.2141  1.0255
    9MOL    C51 2307   4.216   3.304   4.539  0.5796  0.2386  0.0580
    9MOL    H52 2308   4.144   3.532   4.788  1.3885 -0.3999  0.6260
    9MOL    H53 2309   3.917   3.457   4.740 -1.1128 -0.4228 -0.3231
    9MOL    H54 2310   3.758   3.326   4.637 -0.2573 -0.9202 -0.3506
    9MOL    H55 2311   3.852   3.128   4.423 -0.0294 -1.0952  0.0493
    9MOL    H56 2312   4.065   3.169   4.460 -0.4846  0.0548  0.7569
    9MOL    H57 2313   4.300   3.266   4.483 -1.5986 -3.2699 -0.9670
    9MOL    C58 2314   3.641   3.158   4.454  0.3700 -0.0079  0.0617
    9MOL    C59 2315   3.610   3.052   4.372 -0.4144 -0.7847 -0.0650
    9MOL    C60 2316   3.475   3.020   4.348 -0.9145 -0.7150  0.4073
    9MOL    C61 2317   3.371   3.105   4.393 -0.0148  0.5598 -0.0343
    9MOL    C62 2318   3.228   3.067   4.365 -0.3839  0.1541 -0.3469
    9MOL    C63 2319   3.186   2.958   4.301 -0.0293 -0.2186  0.1242
    9MOL    C64 2320   3.409   3.210   4.476  0.4707  0.1248  0.5076
    9MOL    C65 2321   3.540   3.238   4.512  0.4811  0.8271  0.1416
    9MOL    H66 2322   3.684   2.981   4.338 -1.0988 -1.0170 -1.0954
    9MOL    H67 2323   3.446   2.929   4.297  1.0402  0.4599 -2.9509
    9MOL    H68 2324   3.154   3.142   4.386 -1.2179 -0.6487 -0.3907
    9MOL    H69 2325   3.250   2.875   4.274 -1.6563 -1.6352  0.5604
    9MOL    H70 2326   3.327   3.267   4.517  1.0462  0.1619  1.6338
    9MOL    H71 2327   3.556   3.319   4.580  0.6744  2.9190 -2.3050
    9MOL    C72 2328   3.050   2.927   4.265 -0.4945 -0.4557  0.6918
    9MOL    C73 2329   3.007   2.805   4.205 -0.1655  0.5383  0.3552
    9MOL    C74 2330   2.874   2.784   4.157 -0.1854  0.5439  0.7078
    9MOL    C75 2331   2.777   2.883   4.173  0.6601  0.1830 -0.1794
    9MOL    C76 2332   2.642   2.867   4.127  0.9147  0.0961  0.5429
    9MOL    C77 2333   2.587   2.749   4.078 -1.3950  0.0843 -0.5175
    9MOL    C78 2334   2.811   3.001   4.241  0.3912 -0.0357 -0.4911
    9MOL    C79 2335   2.948   3.025   4.288  0.2847  0.5614  0.1201
    9MOL    H80 2336   3.082   2.733   4.179 -0.2479  0.5713  0.0226
    9MOL    H81 2337   2.842   2.688   4.119  0.9088  0.6190 -0.4338
    9MOL    H82 2338   2.583   2.957   4.130 -1.1358 -1.1844  0.1390
    9MOL    H83 2339   2.642   2.656   4.079 -0.7317  0.4871  0.5469
    9MOL    H84 2340   2.742   3.083   4.252 -2.0932 -2.0382 -0.6995
    9MOL    H85 2341   2.970   3.118   4.338  1.4694  0.5931 -0.4419
    9MOL    C86 2342   2.443   2.743   4.038  0.4215  0.1902  0.0444
    9MOL    C87 2343   2.402   2.635   3.955  0.1372 -0.0441  0.1445
    9MOL    C88 2344   2.265   2.623   3.919 -0.1000 -0.3575  0.0966
    9MOL    C89 2345   2.168   2.708   3.979  0.3113  0.1312  0.4293
    9MOL    C90 2346   2.026   2.688   3.960  0.0729 -0.2353  0.6202
    9MOL    C91 2347   1.972   2.579   3.898  0.1780 -0.4279 -0.3553
    9MOL    C92 2348   2.210   2.807   4.067  0.1551  0.1708 -0.2868
    9MOL    C93 2349   2.348   2.829   4.094  0.2479 -0.2205  0.5514
    9MOL    H94 2350   2.470   2.559   3.918 -0.5148  0.3002 -1.8132
    9MOL    H95 2351   2.241   2.543   3.850  3.5136 -1.7025  0.3177
    9MOL    H96 2352   1.967   2.768   4.002  1.1948  0.6029  0.6188
    9MOL    H97 2353   2.043   2.513   3.851 -1.4229 -0.4706 -2.7647
    9MOL    H98 2354   2.132   2.868   4.109  0.0927 -1.2217  1.7168
    9MOL    H99 2355   2.376   2.915   4.154  3.2033 -0.1310 -0.8344
    9MOL   C100 2356   1.831   2.545   3.883  0.5280 -0.5229 -0.2465
    9MOL   C101 2357   1.802   2.461   3.778 -0.0086  1.0469 -0.0671
    9MOL   C102 2358   1.673   2.424   3.744  0.4890  0.4826  0.0000
    9MOL   C103 2359   1.568   2.489   3.816  0.0526  0.5816  0.2561
    9MOL   C104 2360   1.425   2.451   3.786 -0.2212  0.2150 -0.5820
    9MOL   C105 2361   1.385   2.355   3.700  0.0899 -0.2443  0.6465
    9MOL   C106 2362   1.601   2.580   3.921  0.0226  0.0222 -0.0943
    9MOL   C107 2363   1.730   2.607   3.958  0.2686  0.5307  0.3853
    9MOL   H108 2364   1.891   2.426   3.728  0.7782  1.7380  0.8060
    9MOL   H109 2365   1.656   2.363   3.657 -0.2912  1.0555 -0.2583
    9MOL   H110 2366   1.353   2.508   3.842 -1.7165 -0.8593 -1.3962
    9MOL   H111 2367   1.457   2.286   3.657 -0.5879  0.2406 -1.3406
    9MOL   H112 2368   1.516   2.621   3.973 -0.1292  1.0213 -1.1197
    9MOL   H113 2369   1.748   2.672   4.042  0.9631  2.4935 -1.2291
    9MOL   C114 2370   1.256   2.322   3.660  0.2222  0.6785 -0.5674
    9MOL   C115 2371   1.233   2.226   3.563  0.0432  0.1849 -0.6935
    9MOL   C116 2372   1.099   2.211   3.508 -0.2139  0.5202  0.4113
    9MOL   C117 2373   0.990   2.282   3.557  0.4890  0.1542  0.0983
    9MOL   C118 2374   0.853   2.272   3.509  0.0452 -0.4768 -0.2522
    9MOL   C119 2375   0.815   2.216   3.393 -0.4142 -1.0487 -0.0871
    9MOL   C120 2376   1.012   2.358   3.670 -0.1659 -0.0646 -0.1610
    9MOL   C121 2377   1.144   2.388   3.714  0.7024  0.4109  0.8901
    9MOL   H122 2378   1.323   2.186   3.519  0.0046 -0.3592 -0.2871
    9MOL   H123 2379   1.084   2.153   3.418 -2.0661 -0.1915  1.1659
    9MOL   H124 2380   0.778   2.303   3.580 -0.7280 -1.0937 -0.7919
    9MOL   H125 2381   0.888   2.172   3.327 -1.0049 -1.1485 -0.6761
    9MOL   H126 2382   0.935   2.415   3.721  1.7697  1.4399  1.1200
    9MOL   H127 2383   1.149   2.461   3.794  0.8746  0.2839  0.9950
    9MOL   C128 2384   0.675   2.191   3.351 -0.4864 -0.2802  0.5015
    9MOL   C129 2385   0.658   2.168   3.215  0.6596  0.6930 -0.2844
    9MOL   C130 2386   0.529   2.167   3.163  0.7671  0.0346  0.3824
    9MOL   C131 2387   0.420   2.191   3.240  0.2839  0.3243 -0.7975
    9MOL   C132 2388   0.282   2.190   3.189  0.1625 -0.4389 -0.1466
    9MOL   C133 2389   0.238   2.155   3.063 -0.1040  0.0213  0.6991
    9MOL   C134 2390   0.434   2.208   3.381 -0.4035 -0.7412 -0.1907
    9MOL   C135 2391   0.567   2.213   3.437  0.0730 -0.1125 -0.4808
    9MOL   H136 2392   0.746   2.153   3.155  0.6193  0.2237 -0.2307
    9MOL   H137 2393   0.518   2.138   3.059  1.7715  1.0272 -0.0223
    9MOL   H138 2394   0.219   2.220   3.271  2.3584  1.8789  0.7654
    9MOL   H139 2395   0.304   2.119   2.986 -0.5367  0.7473 -0.0105
    9MOL   H140 2396   0.350   2.227   3.445 -1.3587  0.0519 -1.6557
    9MOL   H141 2397   0.585   2.240   3.540 -0.1713 -2.4778  0.2056
    9MOL   C142 2398   0.104   2.165   3.021 -0.1526 -0.1365  0.0157
    9MOL   C143 2399   0.083   2.109   2.894 -0.1170 -0.4197  0.6199
    9MOL   C144 2400   8.106   2.108   2.828 -0.1806 -0.3969 -0.0630
    9MOL   C145 2401   7.995   2.162   2.892  0.8446  0.5896 -0.0390
    9MOL   C146 2402   7.857   2.182   2.830 -0.5077 -0.0834 -0.1603
    9MOL   C147 2403   7.823   2.140   2.706  0.3411  0.4886 -0.0961
    9MOL   C148 2404   8.012   2.214   3.026  0.4361 -0.0352  0.0385
    9MOL   C149 2405   8.140   2.216   3.089 -0.5048  0.1649  0.1881
    9MOL   H150 2406   0.167   2.076   2.835 -1.4362 -0.1364 -1.4476
    9MOL   H151 2407   8.101   2.073   2.726 -2.2246  0.8792 -0.4392
    9MOL   H152 2408   7.782   2.224   2.896  1.9089 -0.7625  3.1364
    9MOL   H153 2409   7.896   2.087   2.646 -0.5425  1.6750 -2.3081
    9MOL   H154 2410   7.925   2.247   3.082  2.2007  0.3962  2.6074
    9MOL   H155 2411   0.001   2.261   3.188  0.5405 -0.3940  0.3841
    9MOL   C156 2412   7.687   2.158   2.641 -1.3889  0.1310  0.5161
    9MOL   C157 2413   7.677   2.156   2.496  0.7686  0.1313  0.4335
    9MOL   C158 2414   7.550   2.184   2.441 -0.2340  0.5425 -0.4120
    9MOL   C159 2415   7.432   2.195   2.516  0.3078  0.4343  0.2327
    9MOL   C160 2416   7.298   2.211   2.456  0.5011  0.1012 -0.0242
    9MOL   C161 2417   7.260   2.225   2.324 -0.2540  0.0478  0.3975
    9MOL   C162 2418   7.446   2.190   2.656  0.2310  0.4202  0.5069
    9MOL   C163 2419   7.573   2.180   2.718  0.3002  0.6273  0.0029
    9MOL   H164 2420   7.761   2.139   2.430 -0.8274  2.9588 -2.4384
    9MOL   H165 2421   7.540   2.182   2.333 -0.1764  2.0347 -0.4548
    9MOL   H166 2422   7.222   2.210   2.533  1.5785  1.7459  1.1014
    9MOL   H167 2423   7.334   2.225   2.245 -2.6133  0.5113 -1.8769
    9MOL   H168 2424   7.361   2.194   2.723  0.1332 -0.7009  0.4614
    9MOL   H169 2425   7.569   2.187   2.825 -1.2202  0.4395 -0.0297
    9MOL   C170 2426   7.126   2.240   2.273  0.0409  0.8992 -0.2898
    9MOL   C171 2427   7.108   2.239   2.135  0.4340 -0.2741  0.2048
    9MOL   C172 2428   6.982   2.244   2.079  0.3309 -0.2383  0.1269
    9MOL   C173 2429   6.870   2.246   2.159 -0.0870 -0.0561 -0.1072
    9MOL   C174 2430   6.739   2.260   2.098 -0.1602  0.6672  0.2839
    9MOL   C175 2431   6.708   2.257   1.968 -0.1443 -0.7489  0.3420
    9MOL   C176 2432   6.882   2.248   2.297  0.4595  0.3303 -1.0856
    9MOL   C177 2433   7.011   2.249   2.355  0.3152  0.0120  0.1602
    9MOL   H178 2434   7.199   2.240   2.077  0.5001  1.5793  0.3107
    9MOL   H179 2435   6.977   2.245   1.972  0.9197  0.3500  0.1018
    9MOL   H180 2436   6.664   2.279   2.173  1.7774  1.6684  2.0493
    9MOL   H181 2437   6.784   2.224   1.899  1.2913  0.8581  1.1372
    9MOL   H182 2438   6.794   2.257   2.359  0.6006  0.7374 -0.9384
    9MOL   H183 2439   7.013   2.251   2.463  0.1892 -1.7381  0.2162
    9MOL   C184 2440   6.578   2.291   1.915 -0.0877 -0.0849  0.2919
    9MOL   C185 2441   6.568   2.313   1.775 -0.0832  0.1197  0.4964
    9MOL   C186 2442   6.439   2.332   1.722 -0.2343 -0.1478 -0.9065
    9MOL   C187 2443   6.324   2.324   1.806  0.3078  0.0922  0.7286
    9MOL   C188 2444   6.186   2.329   1.753  0.2500 -0.1705 -0.6452
    9MOL   C189 2445   6.146   2.328   1.626 -0.0998 -0.3824 -0.6260
    9MOL   C190 2446   6.337   2.310   1.945 -0.7550  0.1067  0.9563
    9MOL   C191 2447   6.466   2.295   2.002 -0.0646 -0.2851  0.3597
    9MOL   H192 2448   6.645   2.314   1.700 -0.1228 -1.0550  0.4360
    9MOL   H193 2449   6.428   2.329   1.614 -0.4700 -1.1994 -0.8603
    9MOL   H194 2450   6.112   2.333   1.832  0.5253 -3.8224 -0.0760
    9MOL   H195 2451   6.226   2.336   1.554  0.7854  3.8427  0.7065
    9MOL   H196 2452   6.257   2.302   2.017  0.2789  1.6963  2.3011
    9MOL   H197 2453   6.478   2.267   2.106  2.9623  0.9438  0.3770
    9MOL   C198 2454   6.001   2.321   1.572 -0.2921 -0.5672  0.0843
    9MOL   C199 2455   5.986   2.363   1.439 -0.0775 -0.1491  0.3453
    9MOL   C200 2456   5.862   2.369   1.379 -0.2445 -0.5526  0.1096
    9MOL   C201 2457   5.752   2.325   1.452 -0.0951 -0.2202 -0.1049
    9MOL   C202 2458   5.610   2.312   1.397  0.2559 -0.2460 -1.2159
    9MOL   C203 2459   5.572   2.361   1.273  0.4348 -0.3304  0.6084
    9MOL   C204 2460   5.774   2.264   1.578  0.4571 -0.8162 -0.1144
    9MOL   C205 2461   5.896   2.273   1.644  0.9387  0.1674  0.7362
    9MOL   H206 2462   6.065   2.396   1.372  1.0125 -2.1528  0.6168
    9MOL   H207 2463   5.851   2.414   1.281  0.6647 -3.0802 -1.2144
    9MOL   H208 2464   5.529   2.274   1.457  0.0382  0.3702 -1.1123
    9MOL   H209 2465   5.645   2.397   1.202 -0.8698  2.0442  0.4309
    9MOL   H210 2466   5.685   2.234   1.632  0.5347 -0.9025 -0.0371
    9MOL   H211 2467   5.888   2.233   1.744 -3.0356 -1.7920 -0.2660
    9MOL   C212 2468   5.436   2.358   1.215  0.4584  0.0471  0.1031
    9MOL   C213 2469   5.422   2.376   1.080  0.2226 -0.1820  0.2159
    9MOL   C214 2470   5.300   2.369   1.011  0.2840 -0.2579  0.7761
    9MOL   C215 2471   5.184   2.338   1.077 -0.6671  0.1455 -0.3735
    9MOL   C216 2472   5.059   2.338   1.000 -0.1846  0.3567 -0.6708
    9MOL   C217 2473   4.956   2.254   1.021 -0.1353  0.0165 -0.4668
    9MOL   C218 2474   5.196   2.315   1.213 -0.3575  0.8707 -0.8859
    9MOL   C219 2475   5.317   2.327   1.284  0.0217  0.2469  0.2453
    9MOL   H220 2476   5.510   2.400   1.023  0.0931  2.1852  0.9475
    9MOL   H221 2477   5.296   2.401   0.908 -2.1431 -1.4096  0.4597
    9MOL   H222 2478   5.057   2.417   0.927 -3.0500 -0.1370 -1.1761
    9MOL   H223 2479   4.973   2.190   1.107 -0.7527  0.1065 -0.2737
    9MOL   H224 2480   5.108   2.295   1.272  0.5483 -0.9225 -0.0992
    9MOL   H225 2481   5.326   2.305   1.389  1.1482  0.0749  0.1160
    9MOL   C226 2482   4.832   2.250   0.947  0.6517 -0.3222  0.0801
    9MOL   C227 2483   4.798   2.326   0.833 -0.1577 -0.0900  0.4331
    9MOL   C228 2484   4.686   2.284   0.750 -0.1302  0.0927  1.1240
    9MOL   C229 2485   4.592   2.192   0.805  0.1862  0.4227 -0.7024
    9MOL   C230 2486   4.472   2.150   0.734 -0.3934 -0.4945  0.4190
    9MOL   C231 2487   4.437   2.184   0.609 -0.0579 -0.2373 -0.8646
    9MOL   C232 2488   4.621   2.130   0.925  0.1133  0.6751  0.4233
    9MOL   C233 2489   4.740   2.157   0.992 -0.2011  0.0919  0.4560
    9MOL   H234 2490   4.873   2.389   0.787 -0.1321  0.0500  0.6652
    9MOL   H235 2491   4.685   2.326   0.651 -2.3419  0.6308  1.3444
    9MOL   H236 2492   4.406   2.080   0.784 -0.8170  0.7165  1.5893
    9MOL   H237 2493   4.503   2.251   0.556  3.0554 -0.2046  2.8492
    9MOL   H238 2494   4.551   2.054   0.957 -0.6241  0.8304 -0.8206
    9MOL   H239 2495   4.762   2.098   1.080  3.1460 -1.2593 -1.1914
    9MOL   C240 2496   4.311   2.155   0.542 -0.2234  0.1601  0.1710
    9MOL   C241 2497   4.230   2.046   0.572 -0.0244 -0.0502  0.2628
    9MOL   C242 2498   4.111   2.028   0.511 -0.0175  0.3248  0.2628
    9MOL   C243 2499   4.070   2.112   0.406 -0.0093 -0.5833 -0.5299
    9MOL   C244 2500   3.945   2.082   0.347  0.1437 -0.1599  1.0204
    9MOL   C245 2501   3.887   2.149   0.250 -0.6417 -0.8090  0.5420
    9MOL   C246 2502   4.154   2.214   0.357  0.4008  0.0599  0.0068
    9MOL   C247 2503   4.266   2.241   0.440 -0.2017  0.1709 -0.8388
    9MOL   H248 2504   4.256   1.974   0.648  2.1542  0.4632  0.0486
    9MOL   H249 2505   4.056   1.936   0.526 -1.1688  1.0270  0.4063
    9MOL   H250 2506   3.892   1.996   0.385  0.3429 -0.5120  0.5150
    9MOL   H251 2507   3.947   2.227   0.207  1.6968 -3.4235 -1.0960
    9MOL   H252 2508   4.128   2.282   0.278  0.5003 -2.2022 -2.0520
    9MOL   H253 2509   4.318   2.332   0.413 -1.2218  1.6159  1.9675
    9MOL   C254 2510   3.756   2.114   0.190  0.1652 -0.6707 -0.0810
    9MOL   C255 2511   3.679   2.004   0.241 -0.1021 -0.3878 -0.2418
    9MOL   C256 2512   3.557   1.971   0.183  0.5157  0.6666 -0.1716
    9MOL   C257 2513   3.512   2.044   0.072 -0.1667  0.0375  0.4808
    9MOL   C258 2514   3.380   2.007   0.013  0.6968 -0.3549  0.5063
    9MOL   C259 2515   3.349   1.940   8.046 -0.4753 -0.3275 -0.6787
    9MOL   C260 2516   3.586   2.144   0.014 -0.0737 -0.4372 -0.0217
    9MOL   C261 2517   3.708   2.184   0.073 -0.3642 -0.1122 -0.1437
    9MOL   H262 2518   3.706   1.954   0.332 -3.3742 -1.7820  0.0404
    9MOL   H263 2519   3.501   1.885   0.218  0.2541  1.3341  1.0842
    9MOL   H264 2520   3.293   2.033   0.071  2.6618  1.2643  2.8252
    9MOL   H265 2521   3.242   1.926   8.039 -0.5811  0.2811 -0.2607
    9MOL   H266 2522   3.552   2.195   8.069 -2.4869 -1.1567  0.4527
    9MOL   H267 2523   3.763   2.261   0.020 -1.9109  0.0761 -1.5311
    9MOL   C268 2524   3.431   1.885   7.935 -0.2661  0.6068 -0.0697
    9MOL   C269 2525   3.366   1.846   7.816 -0.2478  0.7418  0.2794
    9MOL   C270 2526   3.433   1.786   7.710 -0.0035 -0.3274 -0.5663
    9MOL   C271 2527   3.575   1.761   7.724 -0.4253  0.3682  0.3242
    9MOL   C272 2528   3.651   1.709   7.610  0.2305 -0.2405 -0.6111
    9MOL   C273 2529   3.605   1.706   7.485 -0.1994  0.7595 -1.0592
    9MOL   C274 2530   3.644   1.800   7.845 -0.3479 -0.1478 -0.7834
    9MOL   C275 2531   3.570   1.861   7.953 -0.0385  0.7417  0.5031
    9MOL   H276 2532   3.261   1.870   7.811 -0.5660 -0.2510  2.0031
    9MOL   H277 2533   3.385   1.758   7.618  0.8002 -0.9410 -0.8096
    9MOL   H278 2534   3.750   1.673   7.636 -0.5480 -2.5840 -0.7487
    9MOL   H279 2535   3.511   1.752   7.459  0.0359 -0.2562 -3.9060
    9MOL   H280 2536   3.747   1.771   7.863 -0.9881 -1.9643  0.1298
    9MOL   H281 2537   3.614   1.894   8.046 -0.2687 -0.4937  1.0623
    9MOL   H282 2538   3.671   1.669   7.408 -0.5198 -0.0519 -0.9470
   10MOL     C1 2539   2.742   3.948   4.103  0.6871 -0.2736 -1.0088
   10MOL     C2 2540   2.641   3.969   4.196 -0.3598  0.4454 -0.2465
   10MOL     C3 2541   2.538   3.872   4.211 -0.0938 -0.6787 -0.5428
   10MOL     C4 2542   2.531   3.764   4.121 -0.1388 -0.0475  0.4895
   10MOL     C5 2543   2.411   3.688   4.105 -0.1937 -0.2047  0.2436
   10MOL     C6 2544   2.317   3.673   4.200 -0.2988 -0.2077 -0.0634
   10MOL     C7 2545   2.635   3.749   4.025  0.1754  0.5605 -0.2652
   10MOL     C8 2546   2.738   3.842   4.017  0.6093  0.3236  0.3152
   10MOL     H9 2547   2.660   4.052   4.262  0.4342 -1.8755  2.5539
   10MOL    H10 2548   2.463   3.888   4.287  0.0302 -0.7677 -0.4008
   10MOL    H11 2549   2.406   3.639   4.009  0.6858 -0.1639  0.1709
   10MOL    H12 2550   2.338   3.707   4.301 -0.3120  1.0206 -0.4694
   10MOL    H13 2551   2.642   3.662   3.962  0.5593 -2.0490  3.1886
   10MOL    H14 2552   2.816   3.834   3.943 -1.4757  2.6181 -2.2255
   10MOL    H15 2553   2.823   4.018   4.088  1.5614 -0.3004  2.8640
   10MOL    C16 2554   2.189   3.602   4.191  0.0609 -0.0610 -0.7034
   10MOL    C17 2555   2.139   3.539   4.072  0.5595 -0.0820 -0.4220
   10MOL    C18 2556   2.023   3.458   4.070 -0.5883  0.7147 -0.0748
   10MOL    C19 2557   1.938   3.461   4.187  0.3721 -0.1342  0.0027
   10MOL    C20 2558   1.808   3.396   4.181 -0.1561  0.4052  0.7083
   10MOL    C21 2559   1.708   3.396   4.273  0.8437 -0.1336  0.1704
   10MOL    C22 2560   1.977   3.539   4.300 -0.3793  0.9570  0.4631
   10MOL    C23 2561   2.103   3.602   4.304 -0.0217  0.8283 -0.1011
   10MOL    H24 2562   2.204   3.537   3.985 -0.0826  0.0743 -0.9116
   10MOL    H25 2563   1.988   3.400   3.985  1.7247 -2.2478  0.9275
   10MOL    H26 2564   1.790   3.330   4.097  0.9970  1.3279 -0.2767
   10MOL    H27 2565   1.720   3.456   4.362  0.1276  0.4875 -0.1424
   10MOL    H28 2566   1.909   3.540   4.384  0.0490  0.7560  0.8106
   10MOL    H29 2567   2.132   3.649   4.396  0.7107  0.1385  0.0314
   10MOL    C30 2568   1.575   3.334   4.266  0.2485  0.7398 -0.0570
   10MOL    C31 2569   1.504   3.324   4.386  0.0407 -0.2318 -0.0334
   10MOL    C32 2570   1.378   3.265   4.390 -0.5668 -0.9990 -0.5915
   10MOL    C33 2571   1.320   3.205   4.277  0.2719 -0.3843 -0.2221
   10MOL    C34 2572   1.192   3.130   4.292 -0.5922  0.1473  0.4645
   10MOL    C35 2573   1.158   3.040   4.197  0.8081  0.0131 -0.6749
   10MOL    C36 2574   1.397   3.213   4.156 -0.1146 -0.8132  0.8628
   10MOL    C37 2575   1.527   3.276   4.147  0.8112  0.0184 -0.4032
   10MOL    H38 2576   1.551   3.363   4.475 -2.0292  3.2964 -0.4094
   10MOL    H39 2577   1.327   3.247   4.484 -0.5866 -0.3411 -0.4739
   10MOL    H40 2578   1.126   3.159   4.372 -0.0527 -1.0599  1.3487
   10MOL    H41 2579   1.220   3.006   4.116  1.8270  0.8444 -0.2552
   10MOL    H42 2580   1.372   3.151   4.071 -0.1877  1.4031 -0.7578
   10MOL    H43 2581   1.585   3.271   4.056 -1.7146  1.4451 -2.1239
   10MOL    C44 2582   1.022   2.983   4.195 -0.7390 -0.4618  0.0779
   10MOL    C45 2583   0.942   2.984   4.312  0.4362 -0.0288  0.3166
   10MOL    C46 2584   0.808   2.939   4.305  0.4696  0.5706  0.4066
   10MOL    C47 2585   0.759   2.878   4.187  0.8956 -0.8181 -0.0656
   10MOL    C48 2586   0.615   2.832   4.179 -1.0281 -0.0497  0.4172
   10MOL    C49 2587   0.537   2.843   4.071 -0.7134  0.6366 -0.4263
   10MOL    C50 2588   0.839   2.883   4.068  0.2995  0.0023 -0.2128
   10MOL    C51 2589   0.962   2.937   4.077 -0.6506 -0.5966 -0.1898
   10MOL    H52 2590   0.961   3.031   4.407  1.3383  2.6807 -1.1521
   10MOL    H53 2591   0.746   2.948   4.393  0.3262 -0.7398  0.4579
   10MOL    H54 2592   0.575   2.782   4.266  0.8705 -1.3015  0.6023
   10MOL    H55 2593   0.575   2.886   3.979 -2.1353 -0.9145 -1.7858
   10MOL    H56 2594   0.801   2.840   3.976 -2.4804 -0.9083  1.3135
   10MOL    H57 2595   1.036   2.933   3.998 -0.8510  0.9662 -0.4872
   10MOL    C58 2596   0.402   2.798   4.064  0.5535  0.1819 -0.0029
   10MOL    C59 2597   0.331   2.838   3.950 -0.5415  0.2884  0.2282
   10MOL    C60 2598   0.190   2.822   3.948 -0.8059  0.2969  0.1974
   10MOL    C61 2599   0.127   2.752   4.046 -0.2581  0.7082  0.8244
   10MOL    C62 2600   8.126   2.720   4.034 -0.0597  0.0161 -0.1680
   10MOL    C63 2601   8.029   2.784   3.957  0.0427  0.5384  0.7412
   10MOL    C64 2602   0.195   2.707   4.158 -0.2868  0.0346  0.3763
   10MOL    C65 2603   0.336   2.736   4.171  0.3475 -0.5388  0.8879
   10MOL    H66 2604   0.392   2.896   3.882  2.1457 -0.4780  1.9249
   10MOL    H67 2605   0.128   2.859   3.867 -0.5971  2.5744  1.0383
   10MOL    H68 2606   8.102   2.634   4.094  0.1809  1.1904  1.6379
   10MOL    H69 2607   8.060   2.866   3.894  1.5084 -1.1006 -0.7302
   10MOL    H70 2608   0.136   2.666   4.239 -1.4749 -2.0018 -1.4456
   10MOL    H71 2609   0.384   2.715   4.266 -0.9803  0.4357  1.7926
   10MOL    C72 2610   7.890   2.744   3.949 -0.0928  0.3015  0.4920
   10MOL    C73 2611   7.799   2.821   3.877  0.2153 -0.6145  0.2342
   10MOL    C74 2612   7.660   2.787   3.865 -0.9319 -0.2289 -0.4365
   10MOL    C75 2613   7.615   2.665   3.920  0.8822  0.3988  0.2433
   10MOL    C76 2614   7.475   2.629   3.925 -0.6292 -0.5036 -0.1183
   10MOL    C77 2615   7.367   2.695   3.884 -0.4845 -0.5733 -0.5918
   10MOL    C78 2616   7.705   2.584   3.995 -0.1880 -0.7904  0.0387
   10MOL    C79 2617   7.842   2.620   4.010  0.3178  0.1151  0.3577
   10MOL    H80 2618   7.828   2.916   3.835 -1.8439  0.4373  1.1170
   10MOL    H81 2619   7.599   2.845   3.798 -3.6767 -0.6137  1.6838
   10MOL    H82 2620   7.455   2.532   3.968  1.1777 -0.9181 -0.1680
   10MOL    H83 2621   7.378   2.792   3.839 -0.2047 -0.7522 -0.9220
   10MOL    H84 2622   7.657   2.504   4.049 -0.1313 -1.7196 -1.2460
   10MOL    H85 2623   7.900   2.558   4.076  0.4173 -1.0335 -0.7740
   10MOL    C86 2624   7.225   2.656   3.890 -0.1910 -0.1189 -0.2604
   10MOL    C87 2625   7.126   2.754   3.883 -0.2443 -0.1607 -0.2828
   10MOL    C88 2626   6.989   2.723   3.902 -0.0448  0.1495 -0.0131
   10MOL    C89 2627   6.946   2.591   3.929 -0.1259  0.0365  0.4626
   10MOL    C90 2628   6.805   2.553   3.941  0.9183 -0.3754 -0.3934
   10MOL    C91 2629   6.695   2.631   3.932  0.5620  0.2394 -0.2232
   10MOL    C92 2630   7.048   2.492   3.932 -0.3166 -0.0097 -0.7742
   10MOL    C93 2631   7.190   2.523   3.920  0.0453 -0.0864  0.2442
   10MOL    H94 2632   7.150   2.858   3.866 -1.7562 -0.0812 -2.1452
   10MOL    H95 2633   6.915   2.801   3.891 -0.0688  0.5415  2.8067
   10MOL    H96 2634   6.794   2.449   3.969  0.7653 -0.3818 -0.4789
   10MOL    H97 2635   6.718   2.733   3.907 -0.6433  0.1870 -1.5856
   10MOL    H98 2636   7.020   2.389   3.949  2.7914 -1.2431 -2.7843
   10MOL    H99 2637   7.264   2.445   3.913 -0.3390 -0.6385  2.0947
   10MOL   C100 2638   6.554   2.596   3.954  0.3319 -0.2067  0.0341
   10MOL   C101 2639   6.504   2.469   3.950 -0.1501 -0.4273  0.3689
   10MOL   C102 2640   6.367   2.447   3.970  0.1586 -0.2992 -0.1733
   10MOL   C103 2641   6.272   2.548   3.994 -0.1180 -0.1826  0.2370
   10MOL   C104 2642   6.129   2.524   4.007  0.0553 -0.6892  0.3818
   10MOL   C105 2643   6.034   2.616   4.036 -0.0506  0.1728 -0.4690
   10MOL   C106 2644   6.329   2.678   4.005 -0.5008 -0.3943 -0.7891
   10MOL   C107 2645   6.469   2.706   3.988  0.3891  0.6294 -0.8423
   10MOL   H108 2646   6.565   2.384   3.921  2.1545  2.4377 -3.7927
   10MOL   H109 2647   6.323   2.350   3.951 -0.1268 -0.0833 -0.6281
   10MOL   H110 2648   6.101   2.421   3.990  0.0234 -0.9742  2.1040
   10MOL   H111 2649   6.070   2.718   4.045 -1.5521  0.7412 -0.8739
   10MOL   H112 2650   6.271   2.762   4.040  1.3788 -0.2587  2.1442
   10MOL   H113 2651   6.518   2.802   3.995  4.5002 -1.5355  2.8408
   10MOL   C114 2652   5.887   2.599   4.041 -0.2835  0.4688  0.5371
   10MOL   C115 2653   5.806   2.703   4.081  0.4945 -0.5609  0.6637
   10MOL   C116 2654   5.664   2.696   4.081  0.0728  0.5293  0.3005
   10MOL   C117 2655   5.603   2.570   4.053 -0.4653 -0.6193 -0.2710
   10MOL   C118 2656   5.459   2.558   4.050  0.0164  0.0895  0.6976
   10MOL   C119 2657   5.364   2.656   4.066  0.0586  0.5272 -0.4248
   10MOL   C120 2658   5.684   2.454   4.021 -0.6155  0.1201 -0.3326
   10MOL   C121 2659   5.825   2.467   4.015 -0.1777 -0.2044 -0.2015
   10MOL   H122 2660   5.857   2.795   4.107 -2.1644  1.3002 -0.4835
   10MOL   H123 2661   5.604   2.784   4.099 -2.1767 -0.8056 -0.4054
   10MOL   H124 2662   5.422   2.457   4.035 -1.0227  0.8673 -2.3510
   10MOL   H125 2663   5.392   2.758   4.089  0.3432  0.3087  0.2137
   10MOL   H126 2664   5.630   2.362   4.006 -1.0548  0.5087 -1.1786
   10MOL   H127 2665   5.888   2.380   4.000  1.8970  1.2210 -0.0404
   10MOL   C128 2666   5.215   2.646   4.047  0.8584 -0.0974 -0.2236
   10MOL   C129 2667   5.127   2.722   4.125  0.1237 -0.2762 -0.0004
   10MOL   C130 2668   4.983   2.692   4.129  0.2248  0.2006 -0.4942
   10MOL   C131 2669   4.933   2.591   4.047  0.6655  0.1815  0.0034
   10MOL   C132 2670   4.791   2.562   4.028  0.9042 -0.0609  0.0355
   10MOL   C133 2671   4.689   2.649   4.040 -0.3822  0.2879 -0.8778
   10MOL   C134 2672   5.022   2.512   3.968 -0.1995  0.6038  0.5313
   10MOL   C135 2673   5.164   2.540   3.969 -0.0943 -0.3887  0.0627
   10MOL   H136 2674   5.173   2.801   4.183  0.8585 -1.1111  0.5746
   10MOL   H137 2675   4.913   2.760   4.175 -0.1277 -1.0846  0.8997
   10MOL   H138 2676   4.767   2.459   4.005 -2.7418  0.0189  2.9743
   10MOL   H139 2677   4.715   2.752   4.059  0.2855  0.0299 -0.4046
   10MOL   H140 2678   4.979   2.432   3.910  0.3413 -0.3894  1.4825
   10MOL   H141 2679   5.234   2.484   3.910 -0.3422  0.6006 -1.1972
   10MOL   C142 2680   4.548   2.622   4.012 -0.3367  0.7787 -0.0451
   10MOL   C143 2681   4.517   2.512   3.934  0.2483  0.4624 -0.4132
   10MOL   C144 2682   4.378   2.478   3.911 -0.6641  0.8240  0.0332
   10MOL   C145 2683   4.275   2.558   3.958 -0.1373  0.6022 -0.7159
   10MOL   C146 2684   4.131   2.545   3.928 -0.4190  0.2350  1.2202
   10MOL   C147 2685   4.079   2.434   3.862 -0.1621 -0.2952  0.1673
   10MOL   C148 2686   4.307   2.661   4.043 -0.1883 -0.0868 -1.1873
   10MOL   C149 2687   4.440   2.695   4.073 -0.5507  0.1550 -0.3883
   10MOL   H150 2688   4.587   2.436   3.902 -0.7305 -1.1034  1.0714
   10MOL   H151 2689   4.365   2.392   3.847  2.0854 -0.4320  1.0953
   10MOL   H152 2690   4.066   2.627   3.955 -2.1767 -0.8987  0.4733
   10MOL   H153 2691   4.140   2.353   3.825  0.9672  0.6357 -0.0328
   10MOL   H154 2692   4.225   2.723   4.076 -1.0253 -0.9119 -1.6951
   10MOL   H155 2693   4.465   2.777   4.140 -0.2447  0.7921 -1.2771
   10MOL   C156 2694   3.930   2.412   3.844 -0.9489 -0.2390  0.1613
   10MOL   C157 2695   3.880   2.320   3.753 -0.4859 -0.0787 -0.1179
   10MOL   C158 2696   3.747   2.302   3.731  0.1845 -0.2912 -0.4843
   10MOL   C159 2697   3.649   2.362   3.812  0.6332 -0.2103  0.1735
   10MOL   C160 2698   3.510   2.336   3.794 -0.1084 -0.0224 -0.1518
   10MOL   C161 2699   3.449   2.287   3.683 -0.4219 -0.3572  0.0144
   10MOL   C162 2700   3.697   2.450   3.908 -0.4491  0.0449  0.0087
   10MOL   C163 2701   3.833   2.476   3.923  0.5759  0.4547  0.0900
   10MOL   H164 2702   3.949   2.266   3.689 -1.0525  1.8503 -2.3947
   10MOL   H165 2703   3.721   2.219   3.667  0.5957  0.1965 -1.3034
   10MOL   H166 2704   3.451   2.358   3.882 -2.3426  0.3194 -1.6840
   10MOL   H167 2705   3.515   2.260   3.602  0.0099  0.9002 -0.0544
   10MOL   H168 2706   3.638   2.502   3.982 -1.0671 -0.7491  0.0755
   10MOL   H169 2707   3.862   2.540   4.005  3.3827  0.6544 -0.9994
   10MOL   C170 2708   3.309   2.270   3.666 -0.1877  0.5531 -0.8892
   10MOL   C171 2709   3.211   2.274   3.770  0.7463  0.6621  0.1837
   10MOL   C172 2710   3.074   2.240   3.736 -0.2901 -0.2385  0.3307
   10MOL   C173 2711   3.038   2.196   3.601 -0.4924  0.3712 -0.3918
   10MOL   C174 2712   2.909   2.145   3.561 -0.2525  0.3960  0.7951
   10MOL   C175 2713   2.805   2.128   3.645 -0.4271  0.7011  0.0703
   10MOL   C176 2714   3.143   2.181   3.508  0.1403  0.1782  0.0142
   10MOL   C177 2715   3.275   2.228   3.539 -0.3589  0.0463 -0.1268
   10MOL   H178 2716   3.229   2.301   3.873 -0.8053  0.2555  0.5782
   10MOL   H179 2717   3.007   2.246   3.820 -0.5718 -1.1971  0.1800
   10MOL   H180 2718   2.897   2.118   3.457  3.8776 -0.0693  0.3792
   10MOL   H181 2719   2.815   2.152   3.750  0.8112 -0.8230  0.3121
   10MOL   H182 2720   3.125   2.129   3.416  0.2512  1.6378 -0.8460
   10MOL   H183 2721   3.356   2.211   3.470  1.3930  1.0313  1.6268
   10MOL   C184 2722   2.674   2.085   3.608 -0.1378 -0.3941  0.0621
   10MOL   C185 2723   2.643   2.045   3.475  0.1452  0.8009  0.1592
   10MOL   C186 2724   2.514   2.003   3.445  1.2276 -0.6351  0.4397
   10MOL   C187 2725   2.411   2.016   3.539  0.4229 -0.4752 -0.3543
   10MOL   C188 2726   2.270   1.980   3.514  0.2237 -0.5775 -0.4920
   10MOL   C189 2727   2.218   1.957   3.387  0.0098  0.0464 -0.0573
   10MOL   C190 2728   2.438   2.063   3.667  0.6387 -0.1107  0.4376
   10MOL   C191 2729   2.572   2.094   3.705 -0.0932  0.2027 -0.1665
   10MOL   H192 2730   2.712   2.042   3.392  2.0340 -3.2921  1.7278
   10MOL   H193 2731   2.494   1.955   3.351 -1.4435 -0.1643  0.7249
   10MOL   H194 2732   2.207   1.970   3.601  0.8675 -1.0682 -0.0752
   10MOL   H195 2733   2.287   1.980   3.307 -1.2280  3.7323 -0.1621
   10MOL   H196 2734   2.365   2.061   3.747 -0.0564  2.0064 -0.1006
   10MOL   H197 2735   2.596   2.130   3.804  0.0989  0.7836 -0.4223
   10MOL   C198 2736   2.080   1.907   3.344 -0.2059 -0.0003 -0.1042
   10MOL   C199 2737   2.046   1.906   3.207 -0.2516  0.3559  0.2145
   10MOL   C200 2738   1.922   1.848   3.163  0.7279 -0.2741  0.9007
   10MOL   C201 2739   1.834   1.797   3.261  0.7092 -0.2254 -0.2113
   10MOL   C202 2740   1.711   1.732   3.212  0.3002  0.1132 -0.4792
   10MOL   C203 2741   1.605   1.689   3.283 -0.3923  0.3379 -0.8449
   10MOL   C204 2742   1.865   1.803   3.402  0.5308  0.6514  0.0406
   10MOL   C205 2743   1.986   1.862   3.440  0.3844 -0.2715 -0.4349
   10MOL   H206 2744   2.115   1.935   3.129  1.0641 -0.2245  1.1209
   10MOL   H207 2745   1.901   1.841   3.058  1.3199  0.0686  0.7593
   10MOL   H208 2746   1.705   1.713   3.106  1.9723  1.7713 -0.9017
   10MOL   H209 2747   1.603   1.707   3.390  2.2387 -2.0397 -0.3573
   10MOL   H210 2748   1.796   1.757   3.470  0.9854 -1.9822 -1.2313
   10MOL   H211 2749   2.012   1.876   3.543 -0.1929 -0.8105 -0.2158
   10MOL   C212 2750   1.476   1.645   3.230 -0.2384  0.4486  0.1444
   10MOL   C213 2751   1.380   1.591   3.325  0.5619 -0.0472  0.1409
   10MOL   C214 2752   1.253   1.548   3.285 -0.2610 -0.1974 -0.5461
   10MOL   C215 2753   1.212   1.560   3.152 -0.1462 -0.3065 -0.0825
   10MOL   C216 2754   1.079   1.519   3.122 -0.3045  0.5393 -0.5429
   10MOL   C217 2755   1.017   1.519   3.001 -0.2956 -0.7906  0.2675
   10MOL   C218 2756   1.304   1.613   3.054 -0.0518  0.1379  0.6226
   10MOL   C219 2757   1.437   1.657   3.092  0.0346  0.2404 -0.4007
   10MOL   H220 2758   1.404   1.584   3.430 -1.5039 -1.0497  0.5874
   10MOL   H221 2759   1.187   1.514   3.364  1.1194  0.5298  0.9574
   10MOL   H222 2760   1.019   1.490   3.207  0.8793 -0.0268  0.1162
   10MOL   H223 2761   1.075   1.537   2.912  0.7676  0.1368  1.1364
   10MOL   H224 2762   1.274   1.632   2.952  0.2767  2.5112  0.9222
   10MOL   H225 2763   1.497   1.706   3.017  1.0797 -0.7631 -0.2256
   10MOL   C226 2764   0.877   1.496   2.968  0.1588 -0.4798 -0.3233
   10MOL   C227 2765   0.787   1.446   3.066  0.0255  0.4701 -0.4878
   10MOL   C228 2766   0.655   1.430   3.031  0.3047 -0.6943 -0.3851
   10MOL   C229 2767   0.597   1.487   2.917  1.1151 -0.2958  0.5326
   10MOL   C230 2768   0.459   1.478   2.877 -1.0434 -0.4229 -1.1084
   10MOL   C231 2769   0.379   1.390   2.930 -0.0458 -0.2939  0.1271
   10MOL   C232 2770   0.683   1.548   2.821 -0.8737 -0.2896  0.3547
   10MOL   C233 2771   0.824   1.549   2.845  0.7337 -0.7719  0.4452
   10MOL   H234 2772   0.833   1.399   3.152 -0.0307 -0.0200 -0.7281
   10MOL   H235 2773   0.595   1.389   3.111  0.6928  2.0174  1.3615
   10MOL   H236 2774   0.417   1.542   2.801 -2.3106 -0.6530 -0.6114
   10MOL   H237 2775   0.424   1.330   3.007  1.6174  2.6764  1.5343
   10MOL   H238 2776   0.650   1.571   2.721 -0.9895  0.8292  0.6421
   10MOL   H239 2777   0.899   1.592   2.781 -0.9231  0.6724 -0.5573
   10MOL   C240 2778   0.244   1.356   2.882 -0.3227  0.1209 -0.8466
   10MOL   C241 2779   0.183   1.402   2.759  0.3680 -0.1530 -0.3407
   10MOL   C242 2780   0.053   1.370   2.712  0.7282 -0.1168  0.4726
   10MOL   C243 2781   8.125   1.280   2.796 -0.4755 -0.8886 -0.5525
   10MOL   C244 2782   7.998   1.224   2.757 -0.6230  0.1542 -0.2320
   10MOL   C245 2783   7.928   1.252   2.646 -0.4057 -0.0850  0.7050
   10MOL   C246 2784   0.036   1.233   2.915 -0.3510  0.4744 -1.1099
   10MOL   C247 2785   0.162   1.272   2.962 -0.3257 -0.0743 -0.1221
   10MOL   H248 2786   0.236   1.482   2.710  0.1495  0.7278  0.8338
   10MOL   H249 2787   0.024   1.408   2.615 -0.7515 -1.4815  0.3581
   10MOL   H250 2788   7.949   1.156   2.824  0.1381 -0.3932 -0.2318
   10MOL   H251 2789   7.970   1.319   2.572  0.4649  0.8466  2.0195
   10MOL   H252 2790   8.117   1.167   2.974 -0.7019  0.5366 -1.4169
   10MOL   H253 2791   0.193   1.254   3.063 -1.3449 -0.2831  0.1609
   10MOL   C254 2792   7.797   1.195   2.616  0.4323  0.4390 -0.2168
   10MOL   C255 2793   7.737   1.253   2.504  0.0046  0.3827  0.0262
   10MOL   C256 2794   7.610   1.211   2.473  0.1941 -0.2234 -0.1341
   10MOL   C257 2795   7.539   1.109   2.542  0.2863  0.1157  0.1939
   10MOL   C258 2796   7.403   1.079   2.511  0.4508 -0.0512 -0.8424
   10MOL   C259 2797   7.345   1.053   2.391 -0.4910 -0.4895  0.0500
   10MOL   C260 2798   7.606   1.053   2.652  0.0436 -0.2305  0.5658
   10MOL   C261 2799   7.730   1.093   2.688 -0.2473 -0.7224  0.3177
   10MOL   H262 2800   7.785   1.330   2.445  0.7502  0.4411  0.7053
   10MOL   H263 2801   7.564   1.251   2.384  0.6647 -0.0202 -0.2913
   10MOL   H264 2802   7.351   1.086   2.605 -0.0021  1.2707 -1.1744
   10MOL   H265 2803   7.238   1.053   2.396 -0.7505  3.0204 -3.1410
   10MOL   H266 2804   7.558   0.972   2.707 -0.2364  0.2360  1.0163
   10MOL   H267 2805   7.774   1.058   2.780  1.2489  0.0491 -0.0813
   10MOL   C268 2806   7.394   1.039   2.249 -0.1338  0.3941 -0.1358
   10MOL   C269 2807   7.520   0.990   2.220  0.4094  0.5875  0.3219
   10MOL   C270 2808   7.554   0.973   2.085  0.0707 -0.3684 -0.5504
   10MOL   C271 2809   7.461   1.006   1.980 -0.0291  0.3574  0.2200
   10MOL   C272 2810   7.499   0.991   1.842  0.5945  0.1756  0.3339
   10MOL   C273 2811   7.608   0.936   1.785  0.1913  0.6161 -0.6230
   10MOL   C274 2812   7.336   1.054   2.018 -0.8877 -0.2491 -0.2683
   10MOL   C275 2813   7.300   1.076   2.150 -0.0428 -0.3017 -0.1469
   10MOL   H276 2814   7.590   0.958   2.295  0.4236  1.9161  0.8976
   10MOL   H277 2815   7.645   0.931   2.045  0.0880  1.7836 -2.8971
   10MOL   H278 2816   7.432   1.032   1.767  0.9289 -0.5651 -0.3844
   10MOL   H279 2817   7.689   0.896   1.844  1.2220 -0.4150 -2.7135
   10MOL   H280 2818   7.266   1.079   1.940  0.2490 -0.0649 -1.2436
   10MOL   H281 2819   7.200   1.108   2.179 -0.8334 -1.9351 -1.0007
   10MOL   H282 2820   7.630   0.937   1.680 -1.0547 -1.8917 -0.9370
   11MOL     C1 2821   3.572   1.370   7.055  0.3710 -0.3408 -0.3220
   11MOL     C2 2822   3.620   1.393   6.922 -0.5072 -0.2918 -0.2354
   11MOL     C3 2823   3.729   1.485   6.907  0.0394 -0.0832 -0.0507
   11MOL     C4 2824   3.784   1.552   7.020 -0.3593  0.1169  0.2066
   11MOL     C5 2825   3.902   1.645   7.003 -0.3679 -0.0841 -0.1424
   11MOL     C6 2826   3.980   1.692   7.102 -0.4601  0.5606 -0.0495
   11MOL     C7 2827   3.742   1.515   7.147 -0.1786 -0.3685  0.4459
   11MOL     C8 2828   3.633   1.424   7.165 -0.2483  0.8334 -0.1507
   11MOL     H9 2829   3.582   1.341   6.836 -0.3231  0.5892 -0.8632
   11MOL    H10 2830   3.775   1.501   6.811  0.8729  0.4982  0.4439
   11MOL    H11 2831   3.925   1.681   6.904 -0.7142  1.4665  0.3340
   11MOL    H12 2832   3.971   1.652   7.202 -0.7839  1.6156  0.3400
   11MOL    H13 2833   3.792   1.557   7.233  0.8952 -0.1937 -0.2414
   11MOL    H14 2834   3.596   1.394   7.262 -0.3127  0.4294 -0.3023
   11MOL    H15 2835   3.490   1.300   7.065 -1.0085  1.4720  1.7976
   11MOL    C16 2836   4.091   1.787   7.089 -0.6683 -0.0215  0.5012
   11MOL    C17 2837   4.132   1.843   7.209 -0.0741  0.0031  0.2801
   11MOL    C18 2838   4.245   1.933   7.208  0.5222 -0.3168 -0.6957
   11MOL    C19 2839   4.313   1.958   7.083  0.3452  0.8329 -0.1770
   11MOL    C20 2840   4.428   2.042   7.069 -0.5639 -0.3710 -0.4487
   11MOL    C21 2841   4.468   2.135   7.161 -0.0302  0.2400  0.1614
   11MOL    C22 2842   4.267   1.896   6.966 -0.0711  0.9951 -0.6534
   11MOL    C23 2843   4.157   1.816   6.965  0.3784  0.0970  0.0363
   11MOL    H24 2844   4.081   1.819   7.301 -0.7555  0.7782  0.1066
   11MOL    H25 2845   4.282   1.968   7.303 -0.3056  1.1245 -0.9034
   11MOL    H26 2846   4.495   2.023   6.986  0.7474  0.4603  0.4063
   11MOL    H27 2847   4.401   2.155   7.244 -0.0826  2.2980 -0.3549
   11MOL    H28 2848   4.328   1.897   6.877  1.1367 -1.1180  0.1433
   11MOL    H29 2849   4.113   1.776   6.875  0.1983 -0.8757  0.5452
   11MOL    C30 2850   4.594   2.210   7.157 -0.0331  0.5130  0.2141
   11MOL    C31 2851   4.709   2.163   7.088 -0.3041 -0.1667 -0.6927
   11MOL    C32 2852   4.836   2.228   7.100  0.1032  0.4068 -0.0582
   11MOL    C33 2853   4.846   2.343   7.181 -0.3688  0.0992 -0.3775
   11MOL    C34 2854   4.982   2.400   7.203  0.7818 -0.2239  0.1188
   11MOL    C35 2855   5.030   2.475   7.305  0.5885  0.0313  0.2978
   11MOL    C36 2856   4.733   2.388   7.257 -0.5283  0.0559 -0.0999
   11MOL    C37 2857   4.605   2.326   7.247 -0.1154 -0.3022 -0.9585
   11MOL    H38 2858   4.703   2.066   7.040 -1.4045  0.1757 -1.2479
   11MOL    H39 2859   4.922   2.190   7.046 -0.1148 -0.2574  0.0642
   11MOL    H40 2860   5.050   2.387   7.119 -0.9340  1.1178 -1.5334
   11MOL    H41 2861   4.964   2.496   7.389  1.6393 -1.9304  1.6485
   11MOL    H42 2862   4.748   2.471   7.325 -1.0921  0.7833 -0.8400
   11MOL    H43 2863   4.515   2.362   7.293  0.5365  0.0389  0.0678
   11MOL    C44 2864   5.165   2.530   7.312 -0.9310 -0.2331  0.2975
   11MOL    C45 2865   5.260   2.520   7.205  0.1005  0.0927  0.1475
   11MOL    C46 2866   5.389   2.573   7.221 -0.0282  0.8995 -0.0583
   11MOL    C47 2867   5.417   2.660   7.326  0.7623  0.7449 -0.8101
   11MOL    C48 2868   5.551   2.711   7.338 -0.4137  0.0666  0.5846
   11MOL    C49 2869   5.607   2.769   7.450  0.1033 -0.7691  0.2927
   11MOL    C50 2870   5.318   2.685   7.418 -0.2540  0.3048 -0.0246
   11MOL    C51 2871   5.196   2.613   7.419 -0.4366 -0.4261  0.4455
   11MOL    H52 2872   5.240   2.471   7.111 -0.8859 -0.2807  0.5407
   11MOL    H53 2873   5.469   2.543   7.155 -0.3266 -0.6113  0.2368
   11MOL    H54 2874   5.617   2.705   7.253 -1.6632 -0.1713 -0.3926
   11MOL    H55 2875   5.546   2.772   7.539  1.7163  0.7519  1.3934
   11MOL    H56 2876   5.335   2.757   7.497 -0.6916  0.5848 -0.1854
   11MOL    H57 2877   5.120   2.648   7.487  0.0314  0.9424  0.2887
   11MOL    C58 2878   5.745   2.824   7.461 -0.0946 -0.2603  0.3771
   11MOL    C59 2879   5.836   2.825   7.349  0.1810  0.5939  0.1605
   11MOL    C60 2880   5.955   2.896   7.361 -0.2627  0.6371 -0.3102
   11MOL    C61 2881   5.980   2.964   7.480 -0.1108  0.3621  0.2231
   11MOL    C62 2882   6.095   3.057   7.467 -0.1659 -0.0609 -0.9445
   11MOL    C63 2883   6.122   3.147   7.564  0.6676  0.1611  0.0840
   11MOL    C64 2884   5.897   2.955   7.592 -0.2123  0.4077 -0.0797
   11MOL    C65 2885   5.776   2.886   7.584 -0.1997  0.0152 -0.2091
   11MOL    H66 2886   5.820   2.762   7.262  0.3903  1.4366 -0.4864
   11MOL    H67 2887   6.027   2.893   7.281 -0.3336 -0.7553 -0.3266
   11MOL    H68 2888   6.159   3.043   7.382  1.3927  2.9468 -0.3315
   11MOL    H69 2889   6.065   3.157   7.655 -1.0808  1.6773 -1.1329
   11MOL    H70 2890   5.914   3.011   7.683 -0.8696 -0.8606  0.8468
   11MOL    H71 2891   5.707   2.903   7.666 -0.8557 -1.0787 -0.5246
   11MOL    C72 2892   6.233   3.248   7.561  0.1431  0.1302 -0.2165
   11MOL    C73 2893   6.237   3.349   7.664  0.2912  0.0612 -0.6161
   11MOL    C74 2894   6.331   3.452   7.662  0.3282  0.1427 -0.0583
   11MOL    C75 2895   6.413   3.470   7.552 -0.4756 -0.9325 -0.8756
   11MOL    C76 2896   6.490   3.589   7.529  0.2776  0.2982 -0.1952
   11MOL    C77 2897   6.472   3.705   7.590 -0.4035  0.0689  0.6205
   11MOL    C78 2898   6.407   3.378   7.446  0.6076 -0.1859  0.3770
   11MOL    C79 2899   6.323   3.261   7.454  0.2547  0.0509 -0.1026
   11MOL    H80 2900   6.162   3.346   7.742  0.5380 -1.7684 -0.4429
   11MOL    H81 2901   6.323   3.539   7.726  0.6485  0.0081  0.1634
   11MOL    H82 2902   6.569   3.569   7.458  1.4970  2.1687  0.5952
   11MOL    H83 2903   6.409   3.708   7.677 -2.5424  4.2050 -0.9539
   11MOL    H84 2904   6.469   3.404   7.362  0.8363  1.5409  1.0561
   11MOL    H85 2905   6.332   3.198   7.367  2.0243 -0.5036  0.4787
   11MOL    C86 2906   6.528   3.833   7.540 -0.5013  0.3226  0.4895
   11MOL    C87 2907   6.439   3.945   7.550 -0.1668  0.0500 -0.7249
   11MOL    C88 2908   6.481   4.073   7.506  0.4080  0.0849 -0.4929
   11MOL    C89 2909   6.600   4.091   7.440  0.0628 -0.8913  0.0185
   11MOL    C90 2910   6.626   4.224   7.368 -0.2345 -0.4259  0.5402
   11MOL    C91 2911   6.542   4.332   7.371 -0.7100  0.5856 -0.3013
   11MOL    C92 2912   6.685   3.978   7.416  0.1120 -1.0410 -0.3583
   11MOL    C93 2913   6.647   3.846   7.462 -0.3493  0.4705  0.0280
   11MOL    H94 2914   6.339   3.931   7.589 -0.4751  2.8565 -0.4061
   11MOL    H95 2915   6.409   4.147   7.536 -0.1198 -1.5371  2.4436
   11MOL    H96 2916   6.721   4.233   7.317 -0.2352  0.9193  0.7703
   11MOL    H97 2917   6.459   4.337   7.440 -0.4893  0.8367 -0.0567
   11MOL    H98 2918   6.773   3.987   7.353 -0.0390 -0.7177 -0.5263
   11MOL    H99 2919   6.711   3.759   7.457  0.8059  1.3446 -0.4641
   11MOL   C100 2920   6.549   4.442   7.276 -0.5394 -0.0250  0.2419
   11MOL   C101 2921   6.447   4.536   7.282 -0.3118  0.5857 -0.9526
   11MOL   C102 2922   6.433   4.639   7.187 -0.2533 -0.2643 -0.7149
   11MOL   C103 2923   6.524   4.644   7.083  0.1239  0.2209 -0.0851
   11MOL   C104 2924   6.510   4.741   6.977  0.1198 -0.4998 -0.1611
   11MOL   C105 2925   6.562   4.743   6.847 -0.0405  0.3047 -0.6517
   11MOL   C106 2926   6.629   4.553   7.085  0.2384 -0.3362  0.0386
   11MOL   C107 2927   6.645   4.451   7.180  0.1531  0.1060  0.1147
   11MOL   H108 2928   6.375   4.534   7.362 -0.2717  2.7460 -0.8508
   11MOL   H109 2929   6.341   4.697   7.188  0.6255  1.2000 -1.5883
   11MOL   H110 2930   6.449   4.824   7.009 -1.1203 -1.1086 -0.9033
   11MOL   H111 2931   6.632   4.667   6.818 -0.2551 -0.6824  1.2858
   11MOL   H112 2932   6.715   4.562   7.020  0.6180  1.8163  0.8033
   11MOL   H113 2933   6.723   4.377   7.177 -2.0647 -2.2353 -1.3681
   11MOL   C114 2934   6.516   4.827   6.740 -0.4365 -0.7529 -0.2398
   11MOL   C115 2935   6.392   4.897   6.746  0.3597  0.5595  0.2285
   11MOL   C116 2936   6.355   4.976   6.639  0.4342  0.3184 -0.4230
   11MOL   C117 2937   6.430   4.988   6.516 -0.2951  0.4082 -0.6467
   11MOL   C118 2938   6.396   5.081   6.408  0.2211  0.9914 -0.2582
   11MOL   C119 2939   6.275   5.144   6.396 -0.5549 -1.0076  0.2106
   11MOL   C120 2940   6.545   4.902   6.507  0.0539  0.7512  0.1227
   11MOL   C121 2941   6.592   4.829   6.619 -0.1812  0.6400  0.3666
   11MOL   H122 2942   6.328   4.895   6.833 -0.5367  1.2099 -0.4062
   11MOL   H123 2943   6.268   5.040   6.647  1.2551  1.3900  0.0505
   11MOL   H124 2944   6.468   5.100   6.330  0.2075 -1.1258 -0.8337
   11MOL   H125 2945   6.199   5.144   6.473 -0.6025  0.3016  0.1594
   11MOL   H126 2946   6.610   4.915   6.421 -0.5713 -0.7633 -0.5890
   11MOL   H127 2947   6.690   4.784   6.617  0.1749  1.4427 -0.8046
   11MOL   C128 2948   6.234   5.232   6.286 -0.5154  0.1516  0.5285
   11MOL   C129 2949   6.292   5.222   6.151 -0.6697  0.1430 -0.0298
   11MOL   C130 2950   6.249   5.309   6.049  0.0058 -0.3599  0.4516
   11MOL   C131 2951   6.163   5.418   6.078 -0.0218  0.0353  0.2557
   11MOL   C132 2952   6.126   5.509   5.969 -0.0060 -0.4868 -1.0256
   11MOL   C133 2953   6.037   5.615   5.980 -0.5691  0.2213 -0.0149
   11MOL   C134 2954   6.112   5.432   6.209  0.4401 -0.1239  0.1910
   11MOL   C135 2955   6.136   5.336   6.311 -0.6326  0.2780 -0.2000
   11MOL   H136 2956   6.365   5.146   6.130 -1.7447 -1.2621  1.1952
   11MOL   H137 2957   6.297   5.297   5.952 -0.3529 -0.5323  0.2939
   11MOL   H138 2958   6.175   5.496   5.874  3.5408  0.6891  0.5367
   11MOL   H139 2959   5.995   5.630   6.078  0.0692  1.7991  0.0227
   11MOL   H140 2960   6.054   5.519   6.235 -0.0303 -0.3993  0.0759
   11MOL   H141 2961   6.095   5.353   6.409 -1.4764 -1.1609 -0.2793
   11MOL   C142 2962   5.997   5.715   5.888  0.4378  0.1927  0.9803
   11MOL   C143 2963   6.030   5.711   5.751  0.5628 -0.1205 -0.5155
   11MOL   C144 2964   5.980   5.809   5.665  0.5732  0.1826 -0.5205
   11MOL   C145 2965   5.909   5.917   5.716  0.2115 -0.8110  0.0832
   11MOL   C146 2966   5.848   6.017   5.623  0.3136  0.5848  0.5642
   11MOL   C147 2967   5.841   6.008   5.486 -0.2093  0.4801  0.7106
   11MOL   C148 2968   5.870   5.917   5.853  0.2213  0.1389 -0.3882
   11MOL   C149 2969   5.918   5.821   5.942  0.9675 -0.3876  0.1801
   11MOL   H150 2970   6.079   5.629   5.702 -0.1210 -0.9260  0.1455
   11MOL   H151 2971   5.999   5.780   5.563 -1.3239 -1.1825 -0.5016
   11MOL   H152 2972   5.810   6.108   5.666 -1.6753  0.7804 -1.4893
   11MOL   H153 2973   5.879   5.926   5.427 -1.0840  2.4589 -2.8040
   11MOL   H154 2974   5.820   6.007   5.889 -1.5265 -1.2035  0.6302
   11MOL   H155 2975   5.882   5.835   6.043 -1.3114  0.6391 -0.7666
   11MOL   C156 2976   5.774   6.114   5.399  0.3731  0.3766  0.5077
   11MOL   C157 2977   5.768   6.096   5.259  0.8461 -0.4921 -0.3010
   11MOL   C158 2978   5.709   6.190   5.175 -0.8948  0.4923 -0.3358
   11MOL   C159 2979   5.650   6.307   5.228 -0.1921  0.2350 -0.3130
   11MOL   C160 2980   5.593   6.418   5.145  0.4512  0.0135 -0.1255
   11MOL   C161 2981   5.559   6.411   5.016  0.5022  0.7695  0.6569
   11MOL   C162 2982   5.638   6.314   5.365  0.1006 -0.6460 -0.3767
   11MOL   C163 2983   5.708   6.226   5.455  0.6374  0.5357  0.7389
   11MOL   H164 2984   5.815   6.010   5.214  1.9840 -1.2108  2.1862
   11MOL   H165 2985   5.731   6.176   5.070 -1.1534  1.3751 -0.5134
   11MOL   H166 2986   5.591   6.514   5.194 -2.5271  0.5656 -1.1957
   11MOL   H167 2987   5.561   6.311   4.975  1.5231  0.5283  1.2990
   11MOL   H168 2988   5.585   6.395   5.414  1.2945 -0.0816  0.0123
   11MOL   H169 2989   5.699   6.250   5.560  0.2525  0.6964  0.6707
   11MOL   C170 2990   5.506   6.511   4.925 -0.5128 -0.1416  0.0323
   11MOL   C171 2991   5.481   6.642   4.971 -0.0253 -0.4996  0.2288
   11MOL   C172 2992   5.413   6.733   4.887  1.0208  0.1496 -0.0008
   11MOL   C173 2993   5.367   6.694   4.754 -0.2003 -0.2286 -0.1478
   11MOL   C174 2994   5.271   6.774   4.686 -0.1814 -0.5217 -0.3094
   11MOL   C175 2995   5.204   6.728   4.581  0.0323 -0.6520  0.5680
   11MOL   C176 2996   5.410   6.564   4.707 -0.6495  0.5186 -0.1043
   11MOL   C177 2997   5.479   6.477   4.794 -0.3521 -0.4622  0.0168
   11MOL   H178 2998   5.523   6.678   5.063  0.1104 -1.2397  0.4578
   11MOL   H179 2999   5.396   6.833   4.923  4.5167 -0.0013  2.3146
   11MOL   H180 3000   5.248   6.867   4.735  0.4124  0.3677 -1.6865
   11MOL   H181 3001   5.235   6.631   4.544  0.5518  0.0012 -0.7547
   11MOL   H182 3002   5.381   6.513   4.616 -1.3664 -0.0167  0.4144
   11MOL   H183 3003   5.511   6.379   4.761 -0.1937 -0.9963  1.7238
   11MOL   C184 3004   5.084   6.788   4.507 -0.6659  0.3107 -0.6331
   11MOL   C185 3005   5.030   6.921   4.547 -0.1357 -0.6251 -0.0347
   11MOL   C186 3006   4.914   6.969   4.493 -0.1038 -0.4732 -0.4150
   11MOL   C187 3007   4.845   6.902   4.392 -0.2863 -0.9506  0.1841
   11MOL   C188 3008   4.722   6.963   4.329  0.4290  0.4144 -0.2028
   11MOL   C189 3009   4.652   7.063   4.381 -0.3149  0.2525  0.7488
   11MOL   C190 3010   4.898   6.776   4.351 -0.7326 -0.2916  0.0878
   11MOL   C191 3011   5.016   6.720   4.408 -0.3491 -0.1342  0.1446
   11MOL   H192 3012   5.078   6.986   4.619  1.6628 -1.3909 -0.4949
   11MOL   H193 3013   4.877   7.068   4.518 -0.6299 -0.8347  0.2618
   11MOL   H194 3014   4.686   6.915   4.239 -2.3931 -0.9980  1.5845
   11MOL   H195 3015   4.692   7.109   4.470 -0.2001  0.0738  0.7886
   11MOL   H196 3016   4.838   6.725   4.277 -1.1318 -0.7181  0.7006
   11MOL   H197 3017   5.053   6.629   4.364 -0.8697 -0.6011  0.6640
   11MOL   C198 3018   4.525   7.121   4.328  0.1504  0.9712  0.2462
   11MOL   C199 3019   4.457   7.214   4.406 -0.1167  0.2227  0.4658
   11MOL   C200 3020   4.340   7.274   4.362  0.0590  0.0219  0.3913
   11MOL   C201 3021   4.282   7.243   4.238 -0.5622 -0.3232  0.2020
   11MOL   C202 3022   4.164   7.311   4.180  0.6322 -0.1725  0.5481
   11MOL   C203 3023   4.087   7.406   4.244 -0.3826 -0.1540 -0.3116
   11MOL   C204 3024   4.353   7.153   4.157 -0.1513 -0.1527 -0.1493
   11MOL   C205 3025   4.472   7.093   4.205 -0.3559  0.3564  1.0229
   11MOL   H206 3026   4.507   7.247   4.496 -1.7301  0.2497  1.3585
   11MOL   H207 3027   4.304   7.349   4.431  0.6087 -0.9192  1.7282
   11MOL   H208 3028   4.134   7.286   4.080 -1.0425 -0.2063  1.0526
   11MOL   H209 3029   4.117   7.437   4.343  0.9662 -2.8327  0.1666
   11MOL   H210 3030   4.303   7.124   4.065 -0.6568  0.3026 -0.0198
   11MOL   H211 3031   4.536   7.032   4.142 -1.4336  0.7750 -0.5224
   11MOL   C212 3032   3.962   7.459   4.189  0.2893  0.4976 -0.5664
   11MOL   C213 3033   3.876   7.537   4.272 -0.2470  0.5807  0.3516
   11MOL   C214 3034   3.762   7.601   4.225 -0.4588  0.0372 -0.2669
   11MOL   C215 3035   3.720   7.576   4.095 -0.4745  0.6978 -0.0891
   11MOL   C216 3036   3.602   7.647   4.046  0.6070  0.5953 -0.6360
   11MOL   C217 3037   3.544   7.751   4.098  0.0588  0.0884 -0.3212
   11MOL   C218 3038   3.801   7.491   4.013 -0.8549 -0.5108  0.2946
   11MOL   C219 3039   3.921   7.433   4.057 -0.5504  0.3917  0.1949
   11MOL   H220 3040   3.903   7.562   4.374 -2.1676  1.6894  0.6248
   11MOL   H221 3041   3.710   7.674   4.284 -1.0987 -1.3390  0.9001
   11MOL   H222 3042   3.564   7.601   3.956 -1.6496  0.7512  0.1939
   11MOL   H223 3043   3.572   7.800   4.190 -2.5787  2.3789 -0.6727
   11MOL   H224 3044   3.775   7.471   3.910  0.1910 -1.2411  0.1671
   11MOL   H225 3045   3.976   7.369   3.990 -0.6124 -0.0809  0.5908
   11MOL   C226 3046   3.432   7.827   4.040 -0.9497 -0.6128  0.1096
   11MOL   C227 3047   3.420   7.844   3.897  0.4467  0.0091  0.3764
   11MOL   C228 3048   3.329   7.940   3.850 -0.1369 -0.5155  0.4069
   11MOL   C229 3049   3.246   8.010   3.933  0.1688  0.0229 -0.4981
   11MOL   C230 3050   3.135   8.094   3.888 -0.8460  0.2075  0.5359
   11MOL   C231 3051   3.125   8.136   3.761  0.6808  0.7662 -0.4358
   11MOL   C232 3052   3.248   7.989   4.069  0.4423 -0.5227 -0.4594
   11MOL   C233 3053   3.345   7.901   4.127 -0.3656 -0.2962 -0.3455
   11MOL   H234 3054   3.489   7.798   3.828 -1.0539 -0.7652 -0.6439
   11MOL   H235 3055   3.322   7.949   3.743 -0.5732  0.8292  0.5443
   11MOL   H236 3056   3.070   8.139   3.962  1.6410  2.1406  1.6039
   11MOL   H237 3057   3.192   8.092   3.688  1.1426  0.0854  0.3854
   11MOL   H238 3058   3.177   8.042   4.130  0.3950 -1.2684  0.1486
   11MOL   H239 3059   3.366   7.912   4.232  2.0027 -1.3285 -0.6775
   11MOL   C240 3060   3.025   0.089   3.708  0.1543 -0.0139  0.3335
   11MOL   C241 3061   3.017   0.110   3.573  0.0680 -0.4183  0.9591
   11MOL   C242 3062   2.929   0.205   3.516  0.8176 -0.2797 -0.9580
   11MOL   C243 3063   2.840   0.280   3.595  0.4811  0.7106 -1.2540
   11MOL   C244 3064   2.750   0.372   3.531  0.3087 -0.0597 -0.1004
   11MOL   C245 3065   2.653   0.445   3.592 -0.1169 -0.5142 -0.3887
   11MOL   C246 3066   2.843   0.258   3.737  0.0963 -0.5023  0.1895
   11MOL   C247 3067   2.935   0.160   3.791  0.2048  0.1556  0.6713
   11MOL   H248 3068   3.076   0.053   3.503  0.5348 -0.8827  1.7211
   11MOL   H249 3069   2.940   0.222   3.409 -0.1217  0.2892 -0.9685
   11MOL   H250 3070   2.759   0.388   3.425  1.0274  1.2438  0.1454
   11MOL   H251 3071   2.633   0.432   3.697 -4.2576 -0.1018 -1.0447
   11MOL   H252 3072   2.772   0.305   3.804 -0.7353 -0.4719 -0.7010
   11MOL   H253 3073   2.931   0.147   3.898 -0.0003 -0.7805  0.5570
   11MOL   C254 3074   2.569   0.539   3.518 -0.0645  0.4892  0.4562
   11MOL   C255 3075   2.485   0.629   3.586 -0.3797  0.2283  0.0652
   11MOL   C256 3076   2.399   0.723   3.523  0.4476 -0.6969  0.4389
   11MOL   C257 3077   2.380   0.709   3.380  0.5393 -0.1435 -0.5131
   11MOL   C258 3078   2.286   0.793   3.310  0.4780 -0.4965 -0.3594
   11MOL   C259 3079   2.235   0.920   3.330  0.3411  0.4163 -0.4760
   11MOL   C260 3080   2.457   0.611   3.311 -0.5099 -0.1948  0.1503
   11MOL   C261 3081   2.550   0.530   3.383 -0.4717  0.6043  0.5692
   11MOL   H262 3082   2.496   0.625   3.693  3.0589 -0.8185 -0.2666
   11MOL   H263 3083   2.328   0.773   3.587  0.0633 -1.6186  0.7461
   11MOL   H264 3084   2.235   0.742   3.229 -2.0508 -2.3957  2.3627
   11MOL   H265 3085   2.156   0.955   3.266 -0.9014  1.7481  1.7428
   11MOL   H266 3086   2.439   0.600   3.205 -0.8201 -0.9598  0.2764
   11MOL   H267 3087   2.613   0.469   3.319 -0.1276  0.4101  1.0875
   11MOL   C268 3088   2.279   1.017   3.433  0.2963 -0.7959  0.6470
   11MOL   C269 3089   2.181   1.099   3.506 -1.0399  0.4636  0.2530
   11MOL   C270 3090   2.219   1.195   3.592  0.6660  0.3572 -0.5825
   11MOL   C271 3091   2.358   1.212   3.621  0.0952 -0.4075  0.6672
   11MOL   C272 3092   2.397   1.315   3.720 -0.0410  0.3265 -0.4735
   11MOL   C273 3093   2.516   1.334   3.776 -0.3044 -0.8277  0.0027
   11MOL   C274 3094   2.457   1.129   3.557  0.1209  0.4646 -0.2804
   11MOL   C275 3095   2.417   1.038   3.457  0.0282 -0.3981  0.6051
   11MOL   H276 3096   2.076   1.082   3.489 -1.5838  1.8413  2.0578
   11MOL   H277 3097   2.149   1.258   3.644  0.0474  0.1710 -1.1843
   11MOL   H278 3098   2.311   1.373   3.748 -1.0107 -2.1788  1.9513
   11MOL   H279 3099   2.601   1.272   3.751 -0.3192 -1.7086  2.0177
   11MOL   H280 3100   2.561   1.132   3.582  0.0590  0.7287 -0.0554
   11MOL   H281 3101   2.490   0.976   3.407 -1.1438 -0.9777 -0.4243
   11MOL   H282 3102   2.542   1.410   3.849  0.2531 -1.2715  0.2741
   12MOL     C1 3103   2.947   0.560   0.324  0.2086  0.6348  0.4056
   12MOL     C2 3104   3.027   0.649   0.393 -0.8037  0.0719  0.8160
   12MOL     C3 3105   3.129   0.597   0.480 -0.2764  0.2369 -0.6005
   12MOL     C4 3106   3.154   0.457   0.494 -0.9195 -0.4955  0.5997
   12MOL     C5 3107   3.262   0.404   0.580 -0.4235 -0.7118  0.3317
   12MOL     C6 3108   3.329   0.470   0.680 -0.8196 -0.5282  0.4522
   12MOL     C7 3109   3.072   0.369   0.419 -0.2093  0.2703 -0.1394
   12MOL     C8 3110   2.968   0.420   0.337  0.6022  0.2404  0.1757
   12MOL     H9 3111   3.026   0.757   0.381 -0.5672  0.1564  1.5331
   12MOL    H10 3112   3.185   0.660   0.547 -1.2634 -1.0331  1.4707
   12MOL    H11 3113   3.299   0.307   0.551  0.9851 -0.1792  0.3409
   12MOL    H12 3114   3.299   0.572   0.701  0.5168 -0.0044 -0.1485
   12MOL    H13 3115   3.080   0.265   0.444 -0.2575 -0.1328 -1.7438
   12MOL    H14 3116   2.899   0.360   0.280  1.0268  1.5074 -1.7177
   12MOL    H15 3117   2.869   0.591   0.257 -0.5215 -0.0318  0.9413
   12MOL    C16 3118   3.437   0.413   0.751 -0.4603 -0.1471 -0.5864
   12MOL    C17 3119   3.443   0.280   0.791  0.1695  0.7629 -0.5274
   12MOL    C18 3120   3.564   0.233   0.855  1.0050 -0.2523  0.0571
   12MOL    C19 3121   3.672   0.318   0.878 -0.7881  0.2116  1.0740
   12MOL    C20 3122   3.779   0.273   0.969  0.0867 -0.9260  0.1347
   12MOL    C21 3123   3.863   0.350   1.044 -0.3503 -0.2298  0.7136
   12MOL    C22 3124   3.666   0.455   0.834 -0.6120 -0.6238  0.5823
   12MOL    C23 3125   3.544   0.501   0.777 -0.3362  0.3441 -0.5851
   12MOL    H24 3126   3.363   0.212   0.766 -0.7222  0.8500  1.9689
   12MOL    H25 3127   3.568   0.132   0.892 -1.0336 -0.5860 -0.5748
   12MOL    H26 3128   3.785   0.166   0.962 -0.6520 -0.8279 -2.4829
   12MOL    H27 3129   3.854   0.457   1.035 -0.5616 -0.1552  1.6755
   12MOL    H28 3130   3.752   0.518   0.853  0.8754 -2.0602 -1.2562
   12MOL    H29 3131   3.539   0.601   0.736 -1.6445  1.1559  1.4990
   12MOL    C30 3132   3.973   0.299   1.129  0.0948  0.5151 -0.4421
   12MOL    C31 3133   3.998   0.162   1.158 -0.1923 -0.9275 -0.5782
   12MOL    C32 3134   4.106   0.125   1.234  0.0078  0.5050  0.2068
   12MOL    C33 3135   4.182   0.222   1.296  0.0939  0.1752 -1.0745
   12MOL    C34 3136   4.285   0.183   1.391  0.2537  0.0778  0.2578
   12MOL    C35 3137   4.317   0.050   1.422  0.5020 -0.5376 -0.0240
   12MOL    C36 3138   4.153   0.358   1.277  0.1019 -1.1545 -0.3623
   12MOL    C37 3139   4.048   0.398   1.196  0.8216  0.1604 -0.2082
   12MOL    H38 3140   3.940   0.087   1.104 -2.5554  2.0843 -2.4034
   12MOL    H39 3141   4.127   0.020   1.238  1.9226  0.9231  1.9853
   12MOL    H40 3142   4.348   0.263   1.425 -0.9811  0.5143  1.5543
   12MOL    H41 3143   4.254   8.113   1.390  0.0815 -0.2260  0.0227
   12MOL    H42 3144   4.208   0.444   1.314 -0.3761 -0.9865 -0.0447
   12MOL    H43 3145   4.028   0.504   1.189  0.6337  0.0623 -1.2466
   12MOL    C44 3146   4.430   0.012   1.506 -0.6380 -0.2940  0.3115
   12MOL    C45 3147   4.441   8.025   1.551  0.2675 -0.2742 -0.0479
   12MOL    C46 3148   4.551   7.991   1.635  0.3418 -0.8994  0.8571
   12MOL    C47 3149   4.655   8.084   1.659 -0.2189 -0.2868 -0.2611
   12MOL    C48 3150   4.780   8.053   1.729 -0.2033  0.3711  0.3787
   12MOL    C49 3151   4.810   7.937   1.789  0.1231  0.5119  0.5112
   12MOL    C50 3152   4.646   0.072   1.611  0.4142 -0.7329  0.0003
   12MOL    C51 3153   4.528   0.105   1.542  0.1623 -0.2715 -0.1434
   12MOL    H52 3154   4.362   7.960   1.516 -3.2278  3.5578  0.3162
   12MOL    H53 3155   4.544   7.884   1.653  0.4890 -1.5777 -2.6592
   12MOL    H54 3156   4.858   8.128   1.726 -1.6592  1.9038  0.0440
   12MOL    H55 3157   4.729   7.865   1.799 -0.1065  1.0505  2.8342
   12MOL    H56 3158   4.718   0.149   1.634  0.9140 -1.3780  0.6057
   12MOL    H57 3159   4.527   0.205   1.500 -3.3655  0.0301  0.4653
   12MOL    C58 3160   4.944   7.913   1.850  0.3660  0.2997 -0.2319
   12MOL    C59 3161   4.953   7.794   1.918  1.0043  0.2602  0.3456
   12MOL    C60 3162   5.071   7.746   1.969 -0.2339  0.4632  0.0990
   12MOL    C61 3163   5.188   7.822   1.957  0.1595 -0.7176  0.6261
   12MOL    C62 3164   5.316   7.789   2.015 -0.4218  0.2218 -0.8588
   12MOL    C63 3165   5.349   7.686   2.096  0.1375  0.2762  0.4479
   12MOL    C64 3166   5.189   7.940   1.880 -0.6318  1.0124 -0.2511
   12MOL    C65 3167   5.062   7.990   1.838  0.4101 -0.6242  0.1305
   12MOL    H66 3168   4.864   7.733   1.927  0.5354  0.0981 -4.1018
   12MOL    H67 3169   5.076   7.657   2.030  0.2342  0.6450  0.3264
   12MOL    H68 3170   5.400   7.851   1.987  0.7274 -0.9849 -0.1655
   12MOL    H69 3171   5.274   7.617   2.131 -0.4251  1.7488  2.2184
   12MOL    H70 3172   5.280   7.998   1.872  1.0576 -1.2112  1.7942
   12MOL    H71 3173   5.059   8.088   1.793 -0.5428 -0.5657  0.3101
   12MOL    C72 3174   5.483   7.651   2.150 -0.0249 -0.3565  0.0516
   12MOL    C73 3175   5.496   7.580   2.269 -0.5267  0.3108  0.4752
   12MOL    C74 3176   5.622   7.540   2.317 -0.3335  0.3566  0.2785
   12MOL    C75 3177   5.739   7.567   2.246  0.1350  0.0429 -1.2178
   12MOL    C76 3178   5.867   7.520   2.307 -0.4594  0.0672  0.1583
   12MOL    C77 3179   5.888   7.411   2.385 -0.1253 -0.0054 -0.2986
   12MOL    C78 3180   5.731   7.637   2.123 -0.2463  0.1752  0.3947
   12MOL    C79 3181   5.604   7.679   2.074  0.0454  0.8752  0.5563
   12MOL    H80 3182   5.408   7.554   2.325 -1.7739  0.8471 -1.2081
   12MOL    H81 3183   5.635   7.482   2.407  0.8196 -2.9133 -1.8737
   12MOL    H82 3184   5.954   7.577   2.280 -0.9526  1.0071  0.5279
   12MOL    H83 3185   5.812   7.338   2.411 -2.1572  0.7769 -3.7024
   12MOL    H84 3186   5.816   7.652   2.057  1.1665 -2.8336  1.4491
   12MOL    H85 3187   5.597   7.728   1.978  0.2444 -0.2744 -0.0454
   12MOL    C86 3188   6.027   7.380   2.441  0.1167  0.2660 -0.1690
   12MOL    C87 3189   6.138   7.383   2.363  0.1255 -0.7215  0.1959
   12MOL    C88 3190   6.265   7.356   2.410  0.0300  0.0868  0.3217
   12MOL    C89 3191   6.281   7.317   2.542  0.5810 -0.3014  0.2418
   12MOL    C90 3192   6.414   7.303   2.601  0.1431 -0.0776 -0.3923
   12MOL    C91 3193   6.530   7.338   2.553 -0.3050 -0.6402  0.0349
   12MOL    C92 3194   6.170   7.326   2.628 -0.0436  0.2258 -0.7136
   12MOL    C93 3195   6.038   7.350   2.580 -0.6254 -0.3302 -0.5406
   12MOL    H94 3196   6.115   7.411   2.262  0.4598 -0.9377  0.0604
   12MOL    H95 3197   6.348   7.367   2.341  1.9287  0.6945  2.6526
   12MOL    H96 3198   6.423   7.256   2.698 -0.2386  1.5285  0.4310
   12MOL    H97 3199   6.532   7.387   2.456 -0.8478 -0.3688  0.1555
   12MOL    H98 3200   6.183   7.303   2.733  0.3017 -0.1823 -0.8424
   12MOL    H99 3201   5.944   7.355   2.633 -0.5934 -0.0080 -0.5132
   12MOL   C100 3202   6.664   7.325   2.622  0.5876 -0.8102  0.0645
   12MOL   C101 3203   6.673   7.290   2.758  0.5620 -0.4830  0.2461
   12MOL   C102 3204   6.798   7.254   2.811 -0.5546 -0.6971 -0.4325
   12MOL   C103 3205   6.918   7.269   2.742 -0.1463 -0.4070  0.5349
   12MOL   C104 3206   7.048   7.217   2.797 -0.1055  0.7710 -0.6227
   12MOL   C105 3207   7.173   7.232   2.738 -0.2986 -0.2695  0.7540
   12MOL   C106 3208   6.911   7.308   2.606  0.0934  0.2137 -0.0181
   12MOL   C107 3209   6.787   7.337   2.548  0.1174  0.0190  0.3053
   12MOL   H108 3210   6.584   7.292   2.820 -0.4463  2.1044 -1.2004
   12MOL   H109 3211   6.806   7.227   2.915  1.4055 -0.1056 -0.4064
   12MOL   H110 3212   7.044   7.172   2.895 -1.7756 -0.1032 -1.0777
   12MOL   H111 3213   7.177   7.286   2.644 -0.3325  2.1232  2.0755
   12MOL   H112 3214   6.997   7.299   2.541 -0.2439  0.5366 -0.5138
   12MOL   H113 3215   6.780   7.353   2.442  1.1370 -2.6332 -0.2061
   12MOL   C114 3216   7.297   7.189   2.801 -0.1588 -0.3496  0.0573
   12MOL   C115 3217   7.312   7.155   2.935  0.4537 -0.2690 -0.0566
   12MOL   C116 3218   7.436   7.113   2.986 -1.3285  0.1381  0.1420
   12MOL   C117 3219   7.555   7.120   2.903  0.4346  0.2351 -0.0408
   12MOL   C118 3220   7.684   7.086   2.966 -0.5171  0.0480 -0.2872
   12MOL   C119 3221   7.799   7.077   2.900  0.5209  0.3462 -0.3934
   12MOL   C120 3222   7.539   7.151   2.765  0.3342 -0.1196 -0.6121
   12MOL   C121 3223   7.409   7.180   2.713  0.0656  0.6997 -0.3033
   12MOL   H122 3224   7.226   7.154   3.000  0.0397  2.0933 -0.5285
   12MOL   H123 3225   7.434   7.099   3.093 -2.2897 -0.0244  0.1101
   12MOL   H124 3226   7.688   7.059   3.070  0.5841 -1.2232 -0.6565
   12MOL   H125 3227   7.807   7.110   2.797  1.3298  2.0204  0.1746
   12MOL   H126 3228   7.624   7.153   2.697  0.1228 -2.0325 -0.9781
   12MOL   H127 3229   7.400   7.201   2.607  0.2848  0.1925 -0.4224
   12MOL   C128 3230   7.923   7.036   2.972  0.8497  0.4807  0.0549
   12MOL   C129 3231   8.039   7.043   2.891  0.2552  0.6739 -0.8031
   12MOL   C130 3232   0.012   6.985   2.939  0.0930  0.0186 -0.5340
   12MOL   C131 3233   0.017   6.930   3.073 -0.4017  0.0549 -0.5291
   12MOL   C132 3234   0.139   6.860   3.124  0.6981 -0.0252 -0.1718
   12MOL   C133 3235   0.254   6.863   3.057  0.0994 -0.4526 -0.0049
   12MOL   C134 3236   8.043   6.930   3.153 -0.3037  0.2040 -0.1877
   12MOL   C135 3237   7.923   6.983   3.104 -0.2478 -0.0254  0.0443
   12MOL   H136 3238   8.041   7.092   2.795 -2.1313  3.6810  0.5925
   12MOL   H137 3239   0.103   7.002   2.882  2.4774 -1.2223  2.7473
   12MOL   H138 3240   0.142   6.811   3.220 -2.4233 -2.1784 -1.0893
   12MOL   H139 3241   0.257   6.921   2.966  0.5185 -0.1967  0.1724
   12MOL   H140 3242   8.056   6.889   3.252 -1.1119 -0.3230 -0.2933
   12MOL   H141 3243   7.844   6.972   3.177 -0.3589 -0.5877 -0.1571
   12MOL   C142 3244   0.379   6.813   3.107 -0.3882  0.6442 -0.0046
   12MOL   C143 3245   0.486   6.803   3.012  0.5749  0.0853  0.1629
   12MOL   C144 3246   0.615   6.757   3.048  0.1628  0.0275 -0.5488
   12MOL   C145 3247   0.638   6.703   3.177  0.3064  0.3630 -0.3783
   12MOL   C146 3248   0.775   6.653   3.204  0.6146 -0.2886  0.1545
   12MOL   C147 3249   0.831   6.610   3.319 -0.0489  0.6482  0.5455
   12MOL   C148 3250   0.529   6.705   3.269 -0.1162  0.2359 -0.1027
   12MOL   C149 3251   0.403   6.762   3.240 -0.6732 -0.2562 -0.0267
   12MOL   H150 3252   0.473   6.828   2.908  3.3187 -0.7795 -0.4416
   12MOL   H151 3253   0.691   6.759   2.971  1.9442 -0.5637  1.1421
   12MOL   H152 3254   0.833   6.656   3.113  1.3881  0.0012  0.6576
   12MOL   H153 3255   0.765   6.603   3.404  0.6706 -0.7526  1.0108
   12MOL   H154 3256   0.545   6.660   3.366  1.9488  0.9571 -0.0871
   12MOL   H155 3257   0.323   6.767   3.313 -0.4335  0.2242  0.2032
   12MOL   C156 3258   0.975   6.569   3.327  0.0027  0.4087  0.4452
   12MOL   C157 3259   1.009   6.506   3.445 -1.0176 -0.1536  0.0001
   12MOL   C158 3260   1.140   6.459   3.459  0.4188  0.2335 -0.1099
   12MOL   C159 3261   1.245   6.490   3.367  0.2295  0.2993  0.0094
   12MOL   C160 3262   1.386   6.460   3.389  0.3408  0.7705 -0.1323
   12MOL   C161 3263   1.441   6.379   3.481  0.0772 -0.4782 -0.2133
   12MOL   C162 3264   1.205   6.552   3.245  0.7891 -0.7920 -0.1912
   12MOL   C163 3265   1.072   6.589   3.222 -0.0139 -0.3823 -0.1277
   12MOL   H164 3266   0.939   6.491   3.525 -0.7102 -0.9378  0.1365
   12MOL   H165 3267   1.163   6.413   3.554  0.2869 -0.1787 -0.2781
   12MOL   H166 3268   1.455   6.506   3.319  0.5498 -0.2438 -0.6036
   12MOL   H167 3269   1.382   6.324   3.552 -0.0061  0.7600  0.7102
   12MOL   H168 3270   1.268   6.564   3.158  0.2561  0.1103 -0.4548
   12MOL   H169 3271   1.046   6.631   3.126  1.2366 -2.8210 -1.5809
   12MOL   C170 3272   1.583   6.337   3.488 -0.8934  0.0437  0.1387
   12MOL   C171 3273   1.681   6.377   3.395 -0.0332 -0.1054 -0.7735
   12MOL   C172 3274   1.814   6.324   3.398 -1.4499  0.6058  0.2288
   12MOL   C173 3275   1.830   6.208   3.480  0.9004  0.0414  0.1034
   12MOL   C174 3276   1.953   6.136   3.468  0.5047 -0.2666  0.3107
   12MOL   C175 3277   1.990   6.035   3.549  0.0686 -0.1772  0.2066
   12MOL   C176 3278   1.732   6.168   3.576 -0.2567 -0.8224 -0.0614
   12MOL   C177 3279   1.607   6.226   3.576  0.9198  0.3229 -0.4936
   12MOL   H178 3280   1.658   6.444   3.313 -0.1094 -1.0882 -1.5663
   12MOL   H179 3281   1.878   6.364   3.321 -0.0583 -0.9215  0.5654
   12MOL   H180 3282   2.020   6.181   3.396 -1.8117  3.4492  0.3338
   12MOL   H181 3283   1.930   5.996   3.629  2.3486 -0.0017  2.0669
   12MOL   H182 3284   1.750   6.089   3.647 -0.1470 -0.8804 -0.1541
   12MOL   H183 3285   1.535   6.177   3.641  2.4351 -0.1846  0.8615
   12MOL   C184 3286   2.115   5.960   3.548 -0.2825  0.1848  0.5268
   12MOL   C185 3287   2.115   5.825   3.586 -0.0268 -0.0961  0.5050
   12MOL   C186 3288   2.237   5.755   3.591 -0.4745 -0.0679 -0.5787
   12MOL   C187 3289   2.363   5.816   3.566  0.4202  0.4942 -0.3127
   12MOL   C188 3290   2.492   5.745   3.576  0.6467 -0.4324 -0.5364
   12MOL   C189 3291   2.511   5.616   3.604 -0.2975  0.1967 -0.3378
   12MOL   C190 3292   2.362   5.949   3.516  0.0779  0.1364 -0.4232
   12MOL   C191 3293   2.238   6.016   3.507  0.4292 -0.2296  0.2077
   12MOL   H192 3294   2.026   5.771   3.615  0.7070 -1.7540 -0.2598
   12MOL   H193 3295   2.230   5.652   3.624  1.1809  0.3003  1.0165
   12MOL   H194 3296   2.576   5.807   3.549  1.1331 -1.9365 -2.6141
   12MOL   H195 3297   2.432   5.547   3.630 -0.8166  0.0202 -2.3609
   12MOL   H196 3298   2.455   5.997   3.486 -0.8995  1.1750 -1.8533
   12MOL   H197 3299   2.244   6.117   3.470  0.4061 -0.8903 -1.6571
   12MOL   C198 3300   2.647   5.558   3.608  0.1965 -0.0340  0.1954
   12MOL   C199 3301   2.656   5.420   3.588 -0.7390 -0.7423  0.0111
   12MOL   C200 3302   2.779   5.355   3.584 -0.6208  0.0771 -0.1643
   12MOL   C201 3303   2.899   5.431   3.577  0.5498 -1.9814  0.0751
   12MOL   C202 3304   3.026   5.360   3.541  0.3519  0.0152  0.1730
   12MOL   C203 3305   3.141   5.420   3.504 -0.1974  0.2799 -0.1979
   12MOL   C204 3306   2.896   5.574   3.593 -0.2189 -0.2150 -0.3957
   12MOL   C205 3307   2.767   5.628   3.608  0.0935  0.6043  1.1460
   12MOL   H206 3308   2.563   5.364   3.593 -0.1818 -1.6384  0.4307
   12MOL   H207 3309   2.771   5.247   3.576 -0.5297  0.2114 -2.3861
   12MOL   H208 3310   3.024   5.252   3.541  0.1136  0.0007  3.0828
   12MOL   H209 3311   3.149   5.528   3.500  0.2566  0.2177 -1.2434
   12MOL   H210 3312   2.983   5.637   3.596  0.5327 -1.1734 -1.8374
   12MOL   H211 3313   2.771   5.735   3.622 -0.7729  0.5039  2.2596
   12MOL   C212 3314   3.266   5.348   3.467  0.3185  0.1196 -0.8701
   12MOL   C213 3315   3.384   5.400   3.507 -0.4786  0.3723 -0.6380
   12MOL   C214 3316   3.508   5.332   3.487  0.0413  0.2159  0.0459
   12MOL   C215 3317   3.507   5.208   3.423  0.2507  0.8769  0.8571
   12MOL   C216 3318   3.633   5.138   3.390  0.1993  0.3825 -0.5186
   12MOL   C217 3319   3.655   5.054   3.290 -0.0796 -0.7201 -0.0030
   12MOL   C218 3320   3.388   5.152   3.379 -0.0869  0.1214 -0.8319
   12MOL   C219 3321   3.268   5.218   3.407 -0.3412 -0.3177 -0.1738
   12MOL   H220 3322   3.396   5.498   3.552  0.4664  1.0489 -2.2766
   12MOL   H221 3323   3.597   5.385   3.519 -0.1326  1.0828 -0.8689
   12MOL   H222 3324   3.710   5.163   3.462  1.0106 -0.2790 -1.1387
   12MOL   H223 3325   3.572   5.034   3.224  1.3338 -1.3520 -1.6489
   12MOL   H224 3326   3.395   5.065   3.316 -0.6715 -0.4428 -0.1144
   12MOL   H225 3327   3.174   5.173   3.378 -0.2692  1.0521 -2.7068
   12MOL   C226 3328   3.783   4.992   3.256 -0.2623 -0.2010  0.0466
   12MOL   C227 3329   3.873   4.946   3.351 -0.5889 -0.3159 -0.2006
   12MOL   C228 3330   3.986   4.874   3.314 -0.7324 -0.5802  0.0192
   12MOL   C229 3331   4.018   4.849   3.179 -0.0158 -0.5703  0.8152
   12MOL   C230 3332   4.137   4.780   3.143 -0.3019  0.0420  0.7777
   12MOL   C231 3333   4.196   4.782   3.017 -0.1052 -0.3450 -0.2834
   12MOL   C232 3334   3.923   4.900   3.081  0.1286 -0.2335  0.1148
   12MOL   C233 3335   3.806   4.965   3.117 -0.0474 -0.5900  0.4871
   12MOL   H234 3336   3.854   4.960   3.457 -2.0153 -0.0651 -0.4713
   12MOL   H235 3337   4.049   4.843   3.396 -2.1884 -0.1294  1.3405
   12MOL   H236 3338   4.187   4.733   3.226  0.9310  1.2996  0.7582
   12MOL   H237 3339   4.153   4.837   2.934 -2.3330 -0.4352  0.7967
   12MOL   H238 3340   3.944   4.883   2.977 -1.0986  0.8885 -0.3284
   12MOL   H239 3341   3.759   5.017   3.034  0.4274 -0.7834  0.0960
   12MOL   C240 3342   4.324   4.716   2.991 -0.0692 -0.4450  1.1140
   12MOL   C241 3343   4.372   4.708   2.859  0.3903  0.2661  0.0738
   12MOL   C242 3344   4.501   4.650   2.831 -0.2978 -0.5244  0.0811
   12MOL   C243 3345   4.586   4.613   2.938 -0.0135  0.3988  0.4385
   12MOL   C244 3346   4.727   4.576   2.915 -0.5108  0.0310 -0.1893
   12MOL   C245 3347   4.799   4.595   2.802 -0.6508  0.1099 -0.6991
   12MOL   C246 3348   4.540   4.615   3.067 -0.0473  0.2122 -0.3450
   12MOL   C247 3349   4.408   4.662   3.091 -0.3525  0.0837 -0.5769
   12MOL   H248 3350   4.301   4.728   2.780  1.2067  0.7268 -0.5515
   12MOL   H249 3351   4.518   4.638   2.725 -1.5345 -0.8840 -0.0866
   12MOL   H250 3352   4.772   4.531   3.002 -1.1423  0.1669  0.2176
   12MOL   H251 3353   4.747   4.647   2.722 -0.9776  1.9503  0.6815
   12MOL   H252 3354   4.610   4.600   3.148  1.0456 -2.2452 -1.6833
   12MOL   H253 3355   4.370   4.660   3.192 -2.4285 -1.1194 -1.3492
   12MOL   C254 3356   4.937   4.557   2.781 -0.5789 -0.5790 -0.0428
   12MOL   C255 3357   4.993   4.530   2.653  0.5273  0.3793  0.9844
   12MOL   C256 3358   5.121   4.471   2.638 -0.0062  0.6833  1.1172
   12MOL   C257 3359   5.184   4.416   2.751 -0.2526  0.9098  0.8566
   12MOL   C258 3360   5.306   4.329   2.729 -0.4149 -0.7964  0.6937
   12MOL   C259 3361   5.342   4.227   2.810  0.0764 -0.2921 -0.7226
   12MOL   C260 3362   5.137   4.447   2.878  0.5059  0.1870  0.2092
   12MOL   C261 3363   5.014   4.524   2.893 -0.1970 -0.3869 -0.1158
   12MOL   H262 3364   4.932   4.533   2.565  1.7471 -0.0878  0.1110
   12MOL   H263 3365   5.165   4.444   2.543  0.6656 -1.3848  1.9906
   12MOL   H264 3366   5.369   4.355   2.645 -2.4216  2.5095  0.1540
   12MOL   H265 3367   5.429   4.169   2.783  0.0803  0.2940 -1.9810
   12MOL   H266 3368   5.178   4.418   2.974  0.2293  0.9429  0.5609
   12MOL   H267 3369   4.993   4.546   2.996  3.0994  2.1652  0.0960
   12MOL   C268 3370   5.278   4.176   2.927 -0.1573 -0.0477 -0.6532
   12MOL   C269 3371   5.153   4.122   2.919 -0.1912 -0.0556  0.5531
   12MOL   C270 3372   5.090   4.071   3.038 -0.0273 -0.1919 -0.5769
   12MOL   C271 3373   5.152   4.077   3.168 -0.1539 -0.3339 -0.0309
   12MOL   C272 3374   5.095   4.019   3.280  0.2988  1.2550  0.6521
   12MOL   C273 3375   4.982   3.946   3.275 -0.2930  0.2541 -0.0817
   12MOL   C274 3376   5.278   4.148   3.173 -0.4770  0.1652 -0.8177
   12MOL   C275 3377   5.340   4.184   3.052 -0.5193  0.0185 -0.0407
   12MOL   H276 3378   5.105   4.131   2.823  0.8144 -0.3047  0.0157
   12MOL   H277 3379   4.990   4.030   3.040 -0.2488  0.3671 -0.1203
   12MOL   H278 3380   5.138   4.028   3.379  2.3078 -0.4718 -0.0170
   12MOL   H279 3381   4.919   3.929   3.189 -1.0591 -0.0045  0.5290
   12MOL   H280 3382   5.322   4.160   3.271 -1.1224  0.6155 -0.5755
   12MOL   H281 3383   5.427   4.247   3.066  0.0565 -0.9736  0.9117
   12MOL   H282 3384   4.937   3.897   3.359  1.8835 -1.7457 -0.0265
   13MOL     C1 3385   6.892   4.124   6.307 -0.0763  0.0808  0.0916
   13MOL     C2 3386   6.790   4.198   6.367  0.6346 -0.6883 -0.3218
   13MOL     C3 3387   6.663   4.141   6.379  0.6301  0.4147 -0.9994
   13MOL     C4 3388   6.631   4.012   6.324 -0.8095 -0.0305  0.1533
   13MOL     C5 3389   6.486   3.968   6.331 -0.5670 -0.1102 -0.4000
   13MOL     C6 3390   6.447   3.844   6.305 -0.0488  0.4164 -0.2998
   13MOL     C7 3391   6.742   3.933   6.277 -0.4318 -0.1865  0.2744
   13MOL     C8 3392   6.869   3.989   6.267  0.8146  0.1220 -0.1026
   13MOL     H9 3393   6.809   4.297   6.405 -2.1729 -1.3691  3.0872
   13MOL    H10 3394   6.580   4.200   6.414 -0.7484 -1.6929 -0.6038
   13MOL    H11 3395   6.407   4.038   6.358  1.3626  1.5616  1.0613
   13MOL    H12 3396   6.521   3.767   6.287 -0.0160  0.9469 -2.5802
   13MOL    H13 3397   6.733   3.830   6.244  2.1892  0.2029 -1.8766
   13MOL    H14 3398   6.949   3.925   6.232  1.8684  0.7778  1.0739
   13MOL    H15 3399   6.981   4.182   6.291  0.0350 -0.2390 -0.4827
   13MOL    C16 3400   6.308   3.796   6.307 -0.0139  0.3290 -0.0481
   13MOL    C17 3401   6.214   3.848   6.402 -0.2795  0.7270  0.7541
   13MOL    C18 3402   6.076   3.824   6.385 -0.2169  0.0008 -0.5115
   13MOL    C19 3403   6.026   3.738   6.282  0.1499  0.1706  0.0048
   13MOL    C20 3404   5.886   3.704   6.264 -0.7676  0.3190 -0.5296
   13MOL    C21 3405   5.784   3.721   6.353  0.2251  0.2946  0.9281
   13MOL    C22 3406   6.128   3.689   6.194  0.4351 -0.5053  0.4505
   13MOL    C23 3407   6.262   3.718   6.201  0.7114  0.4555 -0.5111
   13MOL    H24 3408   6.261   3.893   6.488  2.8275 -1.6582  0.3900
   13MOL    H25 3409   6.010   3.855   6.464  0.1380  0.1212 -0.2577
   13MOL    H26 3410   5.860   3.661   6.168  0.0902 -3.7598  0.9603
   13MOL    H27 3411   5.793   3.761   6.453 -0.9771 -1.1137  1.6015
   13MOL    H28 3412   6.083   3.631   6.115 -0.9293 -0.0492  0.8832
   13MOL    H29 3413   6.331   3.682   6.125 -0.8953 -0.2544 -1.6678
   13MOL    C30 3414   5.642   3.679   6.323 -0.0173 -0.6032  0.2791
   13MOL    C31 3415   5.612   3.576   6.232  0.0088 -0.1781 -0.4868
   13MOL    C32 3416   5.479   3.548   6.197 -0.6478 -0.5704 -0.9566
   13MOL    C33 3417   5.376   3.629   6.252 -0.1699 -0.3870 -0.3691
   13MOL    C34 3418   5.243   3.602   6.218 -0.1648  0.5192 -0.1058
   13MOL    C35 3419   5.140   3.688   6.216  0.3630 -0.0239  0.2758
   13MOL    C36 3420   5.409   3.732   6.344  0.0483  0.0324  0.3010
   13MOL    C37 3421   5.539   3.754   6.383 -0.2206  0.0637  0.4807
   13MOL    H38 3422   5.687   3.522   6.176  1.4485 -0.4911  1.6695
   13MOL    H39 3423   5.450   3.476   6.121 -1.5031  0.2173 -1.3753
   13MOL    H40 3424   5.213   3.501   6.196 -0.4338  0.3185  1.1977
   13MOL    H41 3425   5.157   3.790   6.246 -0.6171 -0.1953  1.4671
   13MOL    H42 3426   5.331   3.787   6.395 -0.7091 -1.9154  1.2675
   13MOL    H43 3427   5.568   3.827   6.457  0.0546 -0.1897  0.6243
   13MOL    C44 3428   5.002   3.650   6.192  0.0440 -1.0097 -0.5273
   13MOL    C45 3429   4.907   3.750   6.156 -0.3338 -0.3649 -0.2446
   13MOL    C46 3430   4.771   3.721   6.125 -0.0787 -0.6477  0.0193
   13MOL    C47 3431   4.717   3.595   6.148  0.0465  0.0851  0.7117
   13MOL    C48 3432   4.573   3.575   6.117 -0.2548  0.2968  0.7255
   13MOL    C49 3433   4.517   3.459   6.076 -0.4084  0.3171  0.2690
   13MOL    C50 3434   4.815   3.492   6.180  0.2326  0.1208  0.1091
   13MOL    C51 3435   4.950   3.519   6.200  0.2934 -0.0036  0.8916
   13MOL    H52 3436   4.948   3.849   6.142  0.3406 -0.6882 -0.6264
   13MOL    H53 3437   4.699   3.798   6.098  2.3784  1.1743 -1.5260
   13MOL    H54 3438   4.515   3.666   6.118  0.5063  0.7805  1.9669
   13MOL    H55 3439   4.587   3.376   6.073  0.3214  0.8844  1.1951
   13MOL    H56 3440   4.784   3.388   6.183  0.9735 -0.1169 -0.3637
   13MOL    H57 3441   5.017   3.440   6.231  1.2029  1.2645  2.2564
   13MOL    C58 3442   4.380   3.434   6.037 -0.3555 -0.2922  0.0418
   13MOL    C59 3443   4.337   3.299   6.040  0.0218 -0.7395 -0.5733
   13MOL    C60 3444   4.201   3.272   6.012  0.3744 -0.1750  1.0186
   13MOL    C61 3445   4.108   3.380   5.988 -0.6252 -0.2584  0.4853
   13MOL    C62 3446   3.966   3.361   5.950  0.0580 -0.1843  0.8319
   13MOL    C63 3447   3.913   3.242   5.907 -0.6320  0.4087  0.4495
   13MOL    C64 3448   4.156   3.513   5.983 -0.8530 -0.0500  0.6324
   13MOL    C65 3449   4.293   3.540   6.010 -0.3022 -0.4400  0.2691
   13MOL    H66 3450   4.401   3.213   6.053 -0.0931 -0.6786  0.4386
   13MOL    H67 3451   4.169   3.169   6.017 -0.8476  0.0273 -1.7560
   13MOL    H68 3452   3.906   3.450   5.963  0.5960  0.3757 -0.4184
   13MOL    H69 3453   3.975   3.155   5.894  0.8059  1.5079 -0.3392
   13MOL    H70 3454   4.089   3.592   5.955  0.1404  1.5080  2.4692
   13MOL    H71 3455   4.327   3.642   6.003 -0.8701 -0.2865 -0.2701
   13MOL    C72 3456   3.771   3.219   5.871 -0.7175 -0.4438 -0.0268
   13MOL    C73 3457   3.734   3.082   5.849 -0.0271 -0.0865 -0.5464
   13MOL    C74 3458   3.611   3.045   5.805 -0.1749 -0.1494 -0.0633
   13MOL    C75 3459   3.517   3.145   5.790 -0.1887  0.0064 -0.2030
   13MOL    C76 3460   3.372   3.111   5.764  0.0801  0.0774 -0.5013
   13MOL    C77 3461   3.330   2.988   5.743 -0.0901  0.3364 -0.2687
   13MOL    C78 3462   3.543   3.282   5.823  0.2370  0.7221 -0.3401
   13MOL    C79 3463   3.676   3.318   5.868 -0.3135 -0.2960  0.3926
   13MOL    H80 3464   3.818   3.014   5.860  0.8814  0.9487 -0.9582
   13MOL    H81 3465   3.599   2.942   5.773 -0.4810 -0.7593  1.9178
   13MOL    H82 3466   3.299   3.190   5.758 -1.6706 -1.5794 -1.7704
   13MOL    H83 3467   3.404   2.909   5.741  0.5066  0.9363 -3.4930
   13MOL    H84 3468   3.461   3.347   5.798 -0.1025 -0.3245 -2.0321
   13MOL    H85 3469   3.685   3.418   5.908  0.4281 -0.0195 -0.4523
   13MOL    C86 3470   3.191   2.944   5.712  0.0001  0.1644 -0.0197
   13MOL    C87 3471   3.077   3.025   5.711  0.1621  0.1126 -0.1474
   13MOL    C88 3472   2.952   2.968   5.678  0.5907 -0.0957 -0.4854
   13MOL    C89 3473   2.939   2.826   5.655 -0.4250  0.3431 -0.1056
   13MOL    C90 3474   2.814   2.752   5.647  0.1104  0.1394  0.0832
   13MOL    C91 3475   2.694   2.800   5.688 -0.8116 -0.4797 -0.2533
   13MOL    C92 3476   3.053   2.748   5.652 -0.6643 -0.2669 -0.0712
   13MOL    C93 3477   3.181   2.809   5.686  1.3808  0.2638 -0.4055
   13MOL    H94 3478   3.087   3.125   5.750  0.6942 -0.4297  1.1338
   13MOL    H95 3479   2.864   3.031   5.684  0.2789 -0.6886  1.2503
   13MOL    H96 3480   2.825   2.652   5.608  1.8837  0.1214  0.6155
   13MOL    H97 3481   2.688   2.901   5.727 -0.3121 -1.2501  1.9081
   13MOL    H98 3482   3.046   2.644   5.626  0.8587 -0.9117  1.8972
   13MOL    H99 3483   3.265   2.743   5.704  3.9228  2.7960 -2.6297
   13MOL   C100 3484   2.565   2.730   5.699 -0.4184 -0.2793 -0.0082
   13MOL   C101 3485   2.558   2.590   5.681  1.0922  0.2450 -0.0666
   13MOL   C102 3486   2.434   2.535   5.696 -0.2929  0.5171 -0.4556
   13MOL   C103 3487   2.315   2.606   5.725 -0.5913 -0.3458 -0.5400
   13MOL   C104 3488   2.194   2.532   5.767 -0.7776  0.4092 -0.2851
   13MOL   C105 3489   2.069   2.587   5.786  0.4249 -0.2953  0.2795
   13MOL   C106 3490   2.323   2.743   5.732 -0.2447  0.0018  0.1551
   13MOL   C107 3491   2.448   2.808   5.717  0.2112 -0.6259 -0.6531
   13MOL   H108 3492   2.645   2.526   5.674  1.2769  0.6195 -1.1307
   13MOL   H109 3493   2.440   2.427   5.690 -0.3862  0.5126 -0.4667
   13MOL   H110 3494   2.213   2.426   5.767  2.2677  0.9059 -1.4355
   13MOL   H111 3495   2.052   2.693   5.777  0.8460 -0.2298  0.2406
   13MOL   H112 3496   2.233   2.801   5.752 -0.0804  0.9535 -1.7502
   13MOL   H113 3497   2.452   2.914   5.739 -2.2675 -0.7662  0.5396
   13MOL   C114 3498   1.953   2.507   5.828  0.9947 -0.0547  0.2625
   13MOL   C115 3499   1.836   2.574   5.867  0.1594 -0.1007  0.4259
   13MOL   C116 3500   1.717   2.504   5.895  0.5354 -0.2055 -0.1108
   13MOL   C117 3501   1.711   2.363   5.888  0.6753  0.9471  0.7669
   13MOL   C118 3502   1.587   2.287   5.927  0.1183 -0.2117  0.3685
   13MOL   C119 3503   1.487   2.338   6.001 -0.5093 -1.1809  0.5466
   13MOL   C120 3504   1.828   2.295   5.841 -0.9456  0.4218  0.5992
   13MOL   C121 3505   1.952   2.364   5.808 -0.4208 -0.5044 -0.1844
   13MOL   H122 3506   1.843   2.681   5.878 -1.1855 -0.0823  1.1266
   13MOL   H123 3507   1.632   2.564   5.926  0.6359 -0.6578  1.0800
   13MOL   H124 3508   1.586   2.186   5.889  0.7637 -0.0858  0.0088
   13MOL   H125 3509   1.498   2.437   6.041 -0.9944 -1.3488  1.1097
   13MOL   H126 3510   1.828   2.187   5.840 -0.7926  0.4245 -0.0098
   13MOL   H127 3511   2.036   2.314   5.761 -0.1204  2.0833 -2.5361
   13MOL   C128 3512   1.359   2.276   6.037  0.1785  0.0190  0.7046
   13MOL   C129 3513   1.287   2.330   6.139 -0.2110  0.1576 -0.4795
   13MOL   C130 3514   1.155   2.290   6.164  0.4632 -0.9413  0.3868
   13MOL   C131 3515   1.099   2.187   6.087  0.6363  0.1593 -0.3471
   13MOL   C132 3516   0.956   2.145   6.110 -0.1482 -0.0502 -0.4673
   13MOL   C133 3517   0.875   2.190   6.209 -0.1452 -0.2989 -0.4777
   13MOL   C134 3518   1.176   2.139   5.980  0.2705  0.7092 -0.2027
   13MOL   C135 3519   1.306   2.183   5.951  0.0239 -0.0344 -0.1880
   13MOL   H136 3520   1.327   2.412   6.198 -0.1213 -1.3912  1.6665
   13MOL   H137 3521   1.090   2.340   6.235 -0.7199 -1.9054 -0.0016
   13MOL   H138 3522   0.919   2.063   6.051 -0.1846 -0.2223 -0.2052
   13MOL   H139 3523   0.914   2.257   6.285  0.1542 -0.4553 -0.4946
   13MOL   H140 3524   1.128   2.061   5.922 -0.9021  1.4292 -0.2097
   13MOL   H141 3525   1.359   2.144   5.866  1.1475  1.1067 -0.0352
   13MOL   C142 3526   0.736   2.152   6.233  0.0423  0.4188 -0.2775
   13MOL   C143 3527   0.667   2.086   6.129  0.0638  0.6213 -0.0705
   13MOL   C144 3528   0.541   2.029   6.150  0.6218  0.1364 -0.2396
   13MOL   C145 3529   0.466   2.054   6.269  0.3233  0.5865 -0.2079
   13MOL   C146 3530   0.326   2.019   6.291  0.5059  0.1431 -0.0336
   13MOL   C147 3531   0.246   2.019   6.189  0.7067 -0.0619 -1.5092
   13MOL   C148 3532   0.539   2.122   6.370 -0.0795 -0.9615  0.3535
   13MOL   C149 3533   0.670   2.177   6.354 -0.0766 -0.4887 -0.1256
   13MOL   H150 3534   0.712   2.071   6.032 -0.2672 -0.8872 -0.0174
   13MOL   H151 3535   0.490   1.975   6.072  2.0444  0.5221 -1.4489
   13MOL   H152 3536   0.291   1.990   6.389 -1.0781  1.1760 -0.2823
   13MOL   H153 3537   0.281   2.045   6.090  1.0750  0.5763 -1.2166
   13MOL   H154 3538   0.489   2.127   6.466  1.0119 -2.7311  1.0428
   13MOL   H155 3539   0.708   2.243   6.430 -1.6189 -0.3146  0.5129
   13MOL   C156 3540   0.099   1.982   6.200  0.1641 -0.6817  0.2144
   13MOL   C157 3541   0.031   2.003   6.080 -0.0734  0.0404 -0.1494
   13MOL   C158 3542   8.038   1.976   6.075  0.4955  0.2917 -0.1221
   13MOL   C159 3543   7.967   1.924   6.181  0.0513  0.2630 -0.6747
   13MOL   C160 3544   7.819   1.907   6.177 -0.1776  0.0625 -0.0715
   13MOL   C161 3545   7.729   1.916   6.083 -0.7034 -0.0798 -0.0872
   13MOL   C162 3546   8.036   1.901   6.302  0.0508 -0.1087  0.8466
   13MOL   C163 3547   0.030   1.928   6.312  0.1111  0.0313  0.1365
   13MOL   H164 3548   0.076   2.045   5.991  0.0929  0.7544  0.2611
   13MOL   H165 3549   7.987   2.001   5.984 -1.0337  1.1824  0.9522
   13MOL   H166 3550   7.771   1.886   6.271  1.0978  1.9216  1.0226
   13MOL   H167 3551   7.764   1.944   5.985 -3.2402  0.6841 -0.8057
   13MOL   H168 3552   7.969   1.878   6.384 -1.4382  0.7945 -0.0701
   13MOL   H169 3553   0.075   1.925   6.411  0.4234 -2.1107 -0.0520
   13MOL   C170 3554   7.581   1.900   6.085 -0.8655 -0.4899  0.6175
   13MOL   C171 3555   7.505   1.897   6.202  0.0619 -0.8624  0.6664
   13MOL   C172 3556   7.372   1.849   6.201  0.5908 -0.0038 -0.2048
   13MOL   C173 3557   7.311   1.820   6.077  0.3825 -0.5156 -0.7428
   13MOL   C174 3558   7.170   1.777   6.064  0.2949 -0.8002  0.2535
   13MOL   C175 3559   7.103   1.731   5.959 -0.3921 -0.3360 -0.4337
   13MOL   C176 3560   7.383   1.834   5.959  0.2612  0.0126 -0.3209
   13MOL   C177 3561   7.522   1.862   5.959 -0.0099 -0.7709  0.4679
   13MOL   H178 3562   7.558   1.923   6.292  0.9778  0.6421 -0.2832
   13MOL   H179 3563   7.329   1.840   6.299  1.8336 -0.1095  0.3479
   13MOL   H180 3564   7.117   1.787   6.158  0.7452 -0.8302  0.5117
   13MOL   H181 3565   7.148   1.727   5.861  1.2860  1.7431  0.2192
   13MOL   H182 3566   7.335   1.809   5.865 -0.2669 -0.6713  0.1278
   13MOL   H183 3567   7.581   1.848   5.870 -2.6344  0.5896 -1.5825
   13MOL   C184 3568   6.967   1.661   5.966 -0.5805 -0.6110 -0.2133
   13MOL   C185 3569   6.908   1.628   6.084 -0.6855  0.1734 -0.5059
   13MOL   C186 3570   6.792   1.541   6.084 -0.1044 -0.4757  0.3463
   13MOL   C187 3571   6.734   1.499   5.960  0.5016  0.6760  0.0626
   13MOL   C188 3572   6.605   1.429   5.964  0.1219  0.4810  0.3863
   13MOL   C189 3573   6.522   1.413   5.863 -0.0603 -0.6693  1.0871
   13MOL   C190 3574   6.792   1.546   5.838 -0.6899 -0.6252  0.5229
   13MOL   C191 3575   6.898   1.638   5.841  0.4270  0.2179  0.0035
   13MOL   H192 3576   6.956   1.644   6.180  4.7505 -0.4948 -2.9100
   13MOL   H193 3577   6.748   1.507   6.177 -0.1126  0.0517  0.5379
   13MOL   H194 3578   6.579   1.372   6.052  0.6542 -1.5145 -0.7187
   13MOL   H195 3579   6.547   1.457   5.768 -0.0300 -0.5082  1.1701
   13MOL   H196 3580   6.755   1.503   5.746  1.5720  0.6132 -1.0112
   13MOL   H197 3581   6.956   1.665   5.754  1.0056 -0.8683  0.0505
   13MOL   C198 3582   6.392   1.348   5.865 -0.3151 -0.2261 -0.1920
   13MOL   C199 3583   6.348   1.279   5.982 -0.3107  0.1701  0.0622
   13MOL   C200 3584   6.228   1.209   5.974  0.2284 -0.0462 -0.2723
   13MOL   C201 3585   6.149   1.206   5.856  0.2118 -0.3034 -0.5151
   13MOL   C202 3586   6.017   1.133   5.864  0.3567  0.2046 -0.3576
   13MOL   C203 3587   5.927   1.122   5.767  0.8023 -0.2861 -0.2842
   13MOL   C204 3588   6.193   1.276   5.744  0.5193 -0.3884  0.3955
   13MOL   C205 3589   6.316   1.343   5.747 -0.0848 -0.2067 -1.1030
   13MOL   H206 3590   6.404   1.281   6.075  0.5965  1.1627 -0.4889
   13MOL   H207 3591   6.194   1.147   6.056 -1.6029 -1.0792 -1.7575
   13MOL   H208 3592   6.001   1.087   5.960 -1.4857  0.6913 -0.4178
   13MOL   H209 3593   5.933   1.171   5.671 -0.3586 -1.0702 -0.7665
   13MOL   H210 3594   6.123   1.290   5.663  1.4087 -0.5984 -0.4236
   13MOL   H211 3595   6.354   1.398   5.662  0.4172 -2.2132 -2.2208
   13MOL   C212 3596   5.801   1.045   5.780  0.1330 -0.2446  0.2310
   13MOL   C213 3597   5.753   0.987   5.898 -0.3312  0.6528  0.6554
   13MOL   C214 3598   5.639   0.899   5.896 -1.0342  0.0605 -0.0223
   13MOL   C215 3599   5.564   0.878   5.782  0.3539 -0.4702 -0.0205
   13MOL   C216 3600   5.452   0.784   5.786  0.0515 -0.4256  0.3036
   13MOL   C217 3601   5.372   0.736   5.691 -0.0118 -0.1446  0.2610
   13MOL   C218 3602   5.606   0.944   5.665 -0.8954 -0.5328  0.0447
   13MOL   C219 3603   5.721   1.027   5.665  0.2016 -0.4529  0.3202
   13MOL   H220 3604   5.815   0.998   5.986  1.9466  0.9934 -0.9547
   13MOL   H221 3605   5.613   0.846   5.987 -1.9106 -0.5937 -0.6412
   13MOL   H222 3606   5.430   0.760   5.889 -2.2628 -0.0179 -0.0610
   13MOL   H223 3607   5.385   0.759   5.586  0.3383 -0.5888  0.2018
   13MOL   H224 3608   5.550   0.930   5.574  1.9229  1.0680 -1.9839
   13MOL   H225 3609   5.753   1.072   5.572 -0.3731 -0.0743  0.3047
   13MOL   C226 3610   5.255   0.646   5.718 -0.7003 -0.3158 -0.4654
   13MOL   C227 3611   5.191   0.637   5.840 -0.1239 -0.2500  0.1717
   13MOL   C228 3612   5.083   0.545   5.862 -0.4884 -0.2158  0.7829
   13MOL   C229 3613   5.032   0.476   5.752  0.2649  0.2780 -1.0559
   13MOL   C230 3614   4.917   0.377   5.766  0.4173  0.7338 -0.6399
   13MOL   C231 3615   4.839   0.356   5.872 -0.1497  0.5593 -0.3893
   13MOL   C232 3616   5.095   0.486   5.627 -0.4801 -0.2206 -0.4410
   13MOL   C233 3617   5.201   0.573   5.611  0.1424 -0.1385  0.6577
   13MOL   H234 3618   5.220   0.683   5.933 -0.2360 -1.1558  0.6500
   13MOL   H235 3619   5.057   0.537   5.966  1.7635 -0.7179  1.3394
   13MOL   H236 3620   4.905   0.321   5.674  2.1012 -0.7498  0.0300
   13MOL   H237 3621   4.868   0.400   5.966 -2.6527 -0.4403  0.9058
   13MOL   H238 3622   5.061   0.434   5.539  0.0750  0.4069 -1.0307
   13MOL   H239 3623   5.265   0.575   5.524 -0.2232  1.7178  0.4140
   13MOL   C240 3624   4.718   0.271   5.871 -0.1815 -0.1255  0.1838
   13MOL   C241 3625   4.640   0.278   5.981 -0.5205 -0.0438 -0.5628
   13MOL   C242 3626   4.522   0.205   5.997  0.0379  0.2776  0.3940
   13MOL   C243 3627   4.488   0.107   5.900 -0.0609  0.6607  0.2553
   13MOL   C244 3628   4.365   0.023   5.920 -0.4427  0.7054  0.2165
   13MOL   C245 3629   4.324   8.068   5.838  0.5894  0.0613 -0.1008
   13MOL   C246 3630   4.572   0.095   5.786  0.4932 -0.0791  0.1468
   13MOL   C247 3631   4.679   0.185   5.768  0.4680  0.1571 -0.5447
   13MOL   H248 3632   4.677   0.348   6.055 -2.4624  1.3435 -0.8719
   13MOL   H249 3633   4.465   0.225   6.087 -0.2186  1.8163 -0.0928
   13MOL   H250 3634   4.311   0.036   6.012 -2.4173 -0.3949 -0.7521
   13MOL   H251 3635   4.370   8.050   5.742 -0.3397  2.3876 -1.0244
   13MOL   H252 3636   4.551   0.023   5.708 -0.4486 -0.0572  0.3760
   13MOL   H253 3637   4.739   0.172   5.680  1.6630 -1.4127  0.4760
   13MOL   C254 3638   4.205   7.978   5.860 -0.1510 -0.1213 -0.2505
   13MOL   C255 3639   4.125   7.986   5.973  0.1343 -0.2861  0.1745
   13MOL   C256 3640   4.018   7.900   5.999 -0.0288  0.7177  0.6795
   13MOL   C257 3641   3.981   7.799   5.907  0.0896 -0.3147 -0.1653
   13MOL   C258 3642   3.887   7.690   5.942  0.3028  0.0461 -0.3467
   13MOL   C259 3643   3.807   7.608   5.870  0.0999  0.0346  0.2451
   13MOL   C260 3644   4.050   7.800   5.789  0.6892  0.5736  0.5972
   13MOL   C261 3645   4.161   7.887   5.762  0.3141 -0.6462  1.2374
   13MOL   H262 3646   4.155   8.061   6.045 -1.6956 -0.4298  1.1073
   13MOL   H263 3647   3.979   7.901   6.100 -2.3610  1.2021 -0.1845
   13MOL   H264 3648   3.875   7.667   6.046 -0.9492 -1.5517 -0.8405
   13MOL   H265 3649   3.744   7.536   5.921 -3.1960  2.0143 -0.8536
   13MOL   H266 3650   4.030   7.725   5.714 -1.9755  0.2632  1.5553
   13MOL   H267 3651   4.224   7.868   5.675  0.0126  0.3298  0.8001
   13MOL   C268 3652   3.771   7.601   5.726  0.6439  0.0828  0.6980
   13MOL   C269 3653   3.757   7.719   5.649  0.1522  0.6935 -0.4467
   13MOL   C270 3654   3.722   7.702   5.510  0.6587  0.4580  0.0307
   13MOL   C271 3655   3.692   7.577   5.450  0.3006  0.5532 -0.6792
   13MOL   C272 3656   3.647   7.560   5.313 -0.1267  0.0289  0.6298
   13MOL   C273 3657   3.640   7.650   5.220  0.2813 -0.5878  0.0438
   13MOL   C274 3658   3.713   7.462   5.531  0.1603 -0.0742  0.6969
   13MOL   C275 3659   3.743   7.475   5.668 -0.6391 -0.8991  0.2997
   13MOL   H276 3660   3.768   7.820   5.686  2.7983 -0.6914  2.6962
   13MOL   H277 3661   3.720   7.793   5.452  3.3991  0.4875 -0.0991
   13MOL   H278 3662   3.614   7.460   5.294 -2.0657  1.0408 -1.4573
   13MOL   H279 3663   3.668   7.754   5.234  1.7572 -0.7001 -1.8525
   13MOL   H280 3664   3.686   7.365   5.491 -0.0849 -0.9225  2.8407
   13MOL   H281 3665   3.739   7.391   5.735  1.6984 -0.2072  1.3458
   13MOL   H282 3666   3.608   7.617   5.123 -0.0214  0.2657 -0.1493
   14MOL     C1 3667   5.851   5.954   7.625 -0.1448 -0.6370 -0.3356
   14MOL     C2 3668   5.757   6.010   7.536  0.8671  0.1218  0.1144
   14MOL     C3 3669   5.638   6.051   7.585 -0.0974 -0.0373 -0.8302
   14MOL     C4 3670   5.604   6.050   7.724  0.0028 -0.7736 -0.4730
   14MOL     C5 3671   5.480   6.123   7.769 -0.1455  0.3748  0.3556
   14MOL     C6 3672   5.440   6.139   7.898 -0.2811  0.1473 -0.1410
   14MOL     C7 3673   5.687   5.976   7.808 -0.6992  0.4382 -0.3801
   14MOL     C8 3674   5.814   5.925   7.759  1.0461 -1.0445  0.5523
   14MOL     H9 3675   5.782   6.021   7.432 -2.3702  3.3693 -0.4039
   14MOL    H10 3676   5.567   6.100   7.520 -0.1319  1.5704  0.3893
   14MOL    H11 3677   5.421   6.169   7.692 -1.3038  0.5645  1.3385
   14MOL    H12 3678   5.495   6.097   7.981 -0.3789  0.5145  0.1127
   14MOL    H13 3679   5.655   5.974   7.911 -1.7055  0.3944 -0.6884
   14MOL    H14 3680   5.884   5.874   7.824  1.9687  0.1594  0.5253
   14MOL    H15 3681   5.947   5.916   7.592 -0.6448 -2.4390  0.2229
   14MOL    C16 3682   5.312   6.201   7.939  0.0687  0.0856 -0.3792
   14MOL    C17 3683   5.293   6.237   8.072  0.1106  0.0905 -0.1719
   14MOL    C18 3684   5.174   6.303   8.119  0.7005  0.9786  0.3963
   14MOL    C19 3685   5.069   6.323   8.025  0.6275 -0.4207 -0.2463
   14MOL    C20 3686   4.944   6.386   8.069  0.6341  0.4444  0.3061
   14MOL    C21 3687   4.847   6.450   7.999 -0.3739  0.3304 -0.2071
   14MOL    C22 3688   5.088   6.287   7.888  0.0395 -0.2087  0.6738
   14MOL    C23 3689   5.207   6.227   7.844 -1.0259 -0.5165 -0.2333
   14MOL    H24 3690   5.373   6.220   8.142  1.4909  1.1315 -1.4506
   14MOL    H25 3691   5.168   6.332   0.078  1.8509 -0.5917  0.9162
   14MOL    H26 3692   4.926   6.379   0.031  2.7231  0.6872  0.6966
   14MOL    H27 3693   4.860   6.453   7.892  1.0880  2.1669  0.0011
   14MOL    H28 3694   5.003   6.302   7.823  0.1842  0.6016  0.6699
   14MOL    H29 3695   5.221   6.207   7.739 -2.1527  0.3416 -0.5578
   14MOL    C30 3696   4.729   6.517   8.056 -0.2775  0.8382  0.0775
   14MOL    C31 3697   4.650   6.611   7.982 -0.5254 -0.3054  0.4093
   14MOL    C32 3698   4.530   6.666   8.029 -0.6055  0.3536 -0.4970
   14MOL    C33 3699   4.492   6.633   0.023 -0.0546 -0.2868  0.5331
   14MOL    C34 3700   4.371   6.697   0.087 -0.3966  0.6092 -0.3976
   14MOL    C35 3701   4.289   6.790   0.041  0.0849  0.1362  0.1372
   14MOL    C36 3702   4.573   6.546   0.100 -0.7420 -0.1759  0.1856
   14MOL    C37 3703   4.692   6.485   0.046  0.8663  0.5414 -0.2952
   14MOL    H38 3704   4.674   6.634   7.880  0.3401 -2.3722  0.1099
   14MOL    H39 3705   4.467   6.724   7.964 -0.1929  0.5547 -0.7203
   14MOL    H40 3706   4.355   6.673   0.191 -0.6572  1.7957 -0.1593
   14MOL    H41 3707   4.295   6.808   8.079  1.0498 -0.6648  0.0595
   14MOL    H42 3708   4.545   6.524   0.202 -0.3690 -2.3283 -0.1521
   14MOL    H43 3709   4.740   6.408   0.104  0.0240 -0.3942 -0.8239
   14MOL    C44 3710   4.188   6.872   0.118 -0.1830  0.9267 -0.1807
   14MOL    C45 3711   4.123   6.982   0.061 -0.0693  0.2470  0.3466
   14MOL    C46 3712   4.047   7.066   0.140 -0.0108 -0.0311  0.3285
   14MOL    C47 3713   4.038   7.047   0.276  0.2135 -0.1942 -0.2241
   14MOL    C48 3714   3.955   7.139   0.360  0.0059  0.0508  0.1573
   14MOL    C49 3715   3.888   7.247   0.322  0.2082 -0.4724  0.9898
   14MOL    C50 3716   4.092   6.933   0.336  0.0062 -0.2681  0.5854
   14MOL    C51 3717   4.171   6.847   0.256  0.2345  0.2186  0.5290
   14MOL    H52 3718   4.139   7.005   8.101  2.9721  0.3667  0.8144
   14MOL    H53 3719   3.995   7.151   0.098 -1.1234  0.2216  2.1581
   14MOL    H54 3720   3.956   7.115   0.465  2.4825 -3.2319 -0.5395
   14MOL    H55 3721   3.877   7.268   0.217  1.2075  1.0352  1.1636
   14MOL    H56 3722   4.078   6.927   0.443  0.0249 -0.0942  0.5982
   14MOL    H57 3723   4.224   6.766   0.305 -2.3172 -1.6001  0.3890
   14MOL    C58 3724   3.830   7.344   0.417  0.1268 -0.2198 -0.5428
   14MOL    C59 3725   3.710   7.407   0.392 -0.2412 -0.3889  0.1504
   14MOL    C60 3726   3.666   7.518   0.472 -0.1777  0.9024  0.3969
   14MOL    C61 3727   3.726   7.544   0.591  0.8040 -1.2525 -0.3727
   14MOL    C62 3728   3.673   7.640   0.687 -0.0208  0.4814  0.3320
   14MOL    C63 3729   3.556   7.707   0.676  0.3650  0.0088  0.5563
   14MOL    C64 3730   3.842   7.474   0.623 -0.3182 -0.2598 -0.8676
   14MOL    C65 3731   3.901   7.376   0.540  0.0944  0.2270 -0.6036
   14MOL    H66 3732   3.658   7.365   0.308  0.4987 -2.0582  0.5215
   14MOL    H67 3733   3.576   7.567   0.437 -0.8722  0.3852  1.4634
   14MOL    H68 3734   3.733   7.665   0.773  0.7949  0.4376 -0.2167
   14MOL    H69 3735   3.490   7.688   0.592 -0.2845  2.1653  0.5283
   14MOL    H70 3736   3.900   7.488   0.714  0.9457 -1.3138 -1.4855
   14MOL    H71 3737   3.983   7.318   0.580  0.3161  0.3923 -0.8159
   14MOL    C72 3738   3.516   7.807   0.772 -0.1778 -0.5449  1.0893
   14MOL    C73 3739   3.608   7.866   0.865  0.0256  0.3642  0.9096
   14MOL    C74 3740   3.561   7.956   0.966  0.6835 -0.1327 -0.6237
   14MOL    C75 3741   3.426   7.992   0.974  0.3423 -0.4842 -0.0817
   14MOL    C76 3742   3.388   8.084   1.083 -0.8953 -0.3577  0.0530
   14MOL    C77 3743   3.473   0.024   1.152  0.5210 -0.4567  0.1308
   14MOL    C78 3744   3.330   7.933   0.883  0.2294 -0.8732 -1.0026
   14MOL    C79 3745   3.377   7.843   0.780 -0.3369 -0.3289 -0.2032
   14MOL    H80 3746   3.715   7.849   0.869 -0.0304 -0.8835 -1.7539
   14MOL    H81 3747   3.635   8.001   1.031  0.3966 -0.3922 -0.1089
   14MOL    H82 3748   3.285   8.093   1.113 -0.3806 -1.0092  2.1238
   14MOL    H83 3749   3.578   0.024   1.129  0.7826 -2.8485  1.1942
   14MOL    H84 3750   3.227   7.966   0.888  0.4315 -0.4387  0.6246
   14MOL    H85 3751   3.306   7.787   0.720  0.7355  1.4851 -3.2570
   14MOL    C86 3752   3.435   0.114   1.257  0.1306 -0.4476 -0.2403
   14MOL    C87 3753   3.331   0.085   1.345 -0.3539  0.1872  0.2463
   14MOL    C88 3754   3.310   0.157   1.464  0.4142  0.0133  0.1346
   14MOL    C89 3755   3.391   0.265   1.492 -0.5410  0.3011 -0.8013
   14MOL    C90 3756   3.387   0.334   1.626  0.3698  0.2443  0.4918
   14MOL    C91 3757   3.490   0.400   1.689 -0.5472  0.5814  0.2470
   14MOL    C92 3758   3.495   0.299   1.403  0.1474 -0.4785 -0.8583
   14MOL    C93 3759   3.518   0.223   1.286 -0.6100  0.1980 -0.1094
   14MOL    H94 3760   3.263   0.004   1.323  0.4152 -1.0475  2.2074
   14MOL    H95 3761   3.224   0.128   1.522 -1.4271 -0.8738 -2.9554
   14MOL    H96 3762   3.291   0.327   1.675  0.2706 -0.3072  0.2282
   14MOL    H97 3763   3.584   0.411   1.637 -0.5532 -1.3123 -0.2018
   14MOL    H98 3764   3.558   0.384   1.425 -2.5015  0.8303  1.9759
   14MOL    H99 3765   3.603   0.239   1.222  0.0354  0.1881  0.7369
   14MOL   C100 3766   3.484   0.458   1.831 -0.1147 -0.1005  0.1798
   14MOL   C101 3767   3.374   0.462   1.922 -0.1272 -0.1819  0.3888
   14MOL   C102 3768   3.385   0.518   2.046  0.5751  0.3861 -0.3386
   14MOL   C103 3769   3.512   0.566   2.091  1.3044  0.1283  0.0605
   14MOL   C104 3770   3.546   0.590   2.230  0.2141 -0.4955  0.1004
   14MOL   C105 3771   3.665   0.562   2.281  0.2003  0.4169 -0.2924
   14MOL   C106 3772   3.618   0.557   2.002 -0.0797  0.7500 -0.0566
   14MOL   C107 3773   3.605   0.499   1.880 -0.2482  0.2093  0.1345
   14MOL   H108 3774   3.278   0.428   1.887  1.1173 -1.9401 -1.4267
   14MOL   H109 3775   3.305   0.510   2.118  0.6818 -1.0707 -0.3700
   14MOL   H110 3776   3.469   0.640   2.287 -0.9197  1.3744 -2.9518
   14MOL   H111 3777   3.744   0.519   2.222  0.6860  1.5109 -0.4501
   14MOL   H112 3778   3.711   0.600   2.035  1.3522 -0.4624 -2.3987
   14MOL   H113 3779   3.689   0.494   1.813  1.1729 -0.0886  1.8878
   14MOL   C114 3780   3.707   0.561   2.418  0.4534  0.3861 -0.5377
   14MOL   C115 3781   3.842   0.562   2.446 -0.1237 -0.7753  0.8205
   14MOL   C116 3782   3.887   0.562   2.581 -0.2082 -0.3097 -0.3664
   14MOL   C117 3783   3.794   0.548   2.683  0.1030  0.4931  0.2242
   14MOL   C118 3784   3.846   0.531   2.815  0.6102  0.1373  0.0853
   14MOL   C119 3785   3.785   0.565   2.933 -0.5468  0.7739 -0.5901
   14MOL   C120 3786   3.659   0.550   2.657 -0.9104  0.5698 -0.7154
   14MOL   C121 3787   3.615   0.562   2.522  0.1352  0.0806  0.2599
   14MOL   H122 3788   3.913   0.556   2.365 -2.1352 -0.4310 -1.0197
   14MOL   H123 3789   3.994   0.565   2.597 -0.0950  2.0089 -1.4031
   14MOL   H124 3790   3.947   0.494   2.815  0.4663 -0.2882 -1.4517
   14MOL   H125 3791   3.689   0.613   2.939 -0.8890  0.1266 -0.8792
   14MOL   H126 3792   3.586   0.544   2.736  0.1783  1.4151  0.3730
   14MOL   H127 3793   3.509   0.561   2.500 -0.0789 -2.3206  1.2556
   14MOL   C128 3794   3.851   0.539   3.068 -0.2313 -0.1428  0.1585
   14MOL   C129 3795   3.989   0.514   3.070  0.1860 -0.0845 -0.6830
   14MOL   C130 3796   4.056   0.487   3.192 -0.4468  0.1176 -0.6490
   14MOL   C131 3797   3.989   0.471   3.311  0.1804 -0.5045 -0.0515
   14MOL   C132 3798   4.056   0.423   3.434 -0.1090  0.5071  0.1853
   14MOL   C133 3799   4.183   0.438   3.470  0.4474 -0.2487  0.3649
   14MOL   C134 3800   3.846   0.485   3.312  0.3567 -0.1359  0.5397
   14MOL   C135 3801   3.778   0.521   3.189 -0.3130  0.3670  0.3554
   14MOL   H136 3802   4.048   0.525   2.980 -0.6158 -1.5572 -1.4001
   14MOL   H137 3803   4.163   0.471   3.193 -0.4154 -0.1348 -3.2464
   14MOL   H138 3804   3.999   0.365   3.506  0.7886  1.6054  1.8108
   14MOL   H139 3805   4.248   0.493   3.403 -0.5942  1.8268  0.9932
   14MOL   H140 3806   3.782   0.467   3.397 -0.3506 -2.4984 -0.4339
   14MOL   H141 3807   3.670   0.520   3.190 -0.3214  0.4894 -0.3571
   14MOL   C142 3808   4.243   0.383   3.592 -0.1043  0.3236  0.5818
   14MOL   C143 3809   4.165   0.331   3.697 -0.0227 -0.6172 -0.5626
   14MOL   C144 3810   4.222   0.278   3.808  0.0086  0.3052  0.3258
   14MOL   C145 3811   4.361   0.259   3.811  0.1936  0.0657 -0.0068
   14MOL   C146 3812   4.429   0.183   3.922 -0.2286  0.5780 -0.3405
   14MOL   C147 3813   4.373   0.138   4.035 -0.4491 -0.2948 -0.0042
   14MOL   C148 3814   4.442   0.318   3.713  0.6320  0.7690  0.3274
   14MOL   C149 3815   4.385   0.390   3.608 -0.0574 -0.3830 -0.3329
   14MOL   H150 3816   4.057   0.330   3.690 -0.0153  0.7628 -1.0094
   14MOL   H151 3817   4.164   0.237   3.890 -1.5825  2.6159  0.4126
   14MOL   H152 3818   4.535   0.169   3.905 -0.1128  1.9322 -0.7632
   14MOL   H153 3819   4.269   0.164   4.051 -0.3404  0.7172 -0.9038
   14MOL   H154 3820   4.548   0.305   3.723  0.6248 -0.8101 -1.3269
   14MOL   H155 3821   4.451   0.425   3.530 -1.0678 -1.5121 -1.7293
   14MOL   C156 3822   4.440   0.050   4.130  0.7446 -0.3190  0.1679
   14MOL   C157 3823   4.401   0.038   4.264 -0.4549 -0.3583 -0.0436
   14MOL   C158 3824   4.454   8.083   4.344  0.4062  0.0811  0.3794
   14MOL   C159 3825   4.560   8.008   4.302  0.2780 -0.3941  0.5811
   14MOL   C160 3826   4.611   7.905   4.393  0.5681  0.5798  0.2309
   14MOL   C161 3827   4.725   7.832   4.373  0.0464 -1.0007  0.3715
   14MOL   C162 3828   4.603   8.017   4.174 -0.4728  0.1682  0.0701
   14MOL   C163 3829   4.543   8.112   4.089 -0.1182  0.2960  0.2363
   14MOL   H164 3830   4.313   0.094   4.295  0.0618  1.4527 -1.7294
   14MOL   H165 3831   4.417   8.068   4.444 -1.4349 -0.5393 -0.3766
   14MOL   H166 3832   4.552   7.881   4.481 -0.4717  2.3038  0.0363
   14MOL   H167 3833   4.782   7.862   4.287 -2.6818 -0.2014 -1.2263
   14MOL   H168 3834   4.679   7.952   4.136 -1.0122 -0.9191  0.8344
   14MOL   H169 3835   4.561   8.110   3.983 -0.1182 -1.1687  0.2509
   14MOL   C170 3836   4.771   7.720   4.461  0.3709  0.4707  0.3708
   14MOL   C171 3837   4.908   7.672   4.443  0.9086 -0.9876 -0.1030
   14MOL   C172 3838   4.961   7.572   4.526  0.1350 -0.1487  0.1113
   14MOL   C173 3839   4.879   7.505   4.626  0.0667  0.6528 -0.2957
   14MOL   C174 3840   4.919   7.388   4.700 -0.0674 -0.2407 -0.3481
   14MOL   C175 3841   5.046   7.340   4.722 -0.4623  0.0545  0.2975
   14MOL   C176 3842   4.752   7.571   4.655  0.6924  0.1313 -0.7227
   14MOL   C177 3843   4.691   7.667   4.568 -0.4906  0.0384 -0.1635
   14MOL   H178 3844   4.976   7.719   4.374  0.9691  0.0837  0.6689
   14MOL   H179 3845   5.059   7.528   4.517  0.3958  0.2042  1.0943
   14MOL   H180 3846   4.834   7.338   4.745 -0.2119  2.3346  2.3719
   14MOL   H181 3847   5.135   7.394   4.696 -0.4581  0.3758  0.9581
   14MOL   H182 3848   4.688   7.546   4.739 -0.8226 -0.1380 -1.9468
   14MOL   H183 3849   4.589   7.694   4.591 -0.2287  1.0052 -0.0843
   14MOL   C184 3850   5.076   7.227   4.806  0.2220 -0.0463  0.0366
   14MOL   C185 3851   5.192   7.236   4.888  0.2675  0.5618 -0.0631
   14MOL   C186 3852   5.216   7.130   4.981 -0.0124 -0.9755  0.4331
   14MOL   C187 3853   5.121   7.027   5.001 -0.1198  0.2160 -0.2844
   14MOL   C188 3854   5.133   6.912   5.084  0.2436  0.2341  0.4329
   14MOL   C189 3855   5.233   6.879   5.159  0.2397  0.5448 -0.9410
   14MOL   C190 3856   5.007   7.030   4.925  0.1119 -0.4016  0.2967
   14MOL   C191 3857   4.986   7.124   4.823  0.6486  0.3422 -0.4690
   14MOL   H192 3858   5.254   7.324   4.897  0.6273  0.2553  0.4585
   14MOL   H193 3859   5.292   7.147   5.055  0.5195 -1.5105  0.0117
   14MOL   H194 3860   5.045   6.849   5.083 -0.2344  0.8717  1.7802
   14MOL   H195 3861   5.310   6.954   5.153  2.0747 -1.1928  0.0941
   14MOL   H196 3862   4.940   6.945   4.935 -0.4753 -0.2288 -1.9277
   14MOL   H197 3863   4.897   7.111   4.764 -1.0116 -0.5670  2.1568
   14MOL   C198 3864   5.247   6.764   5.252  0.0924 -1.3019  0.2943
   14MOL   C199 3865   5.155   6.664   5.252  0.6865 -0.4226  0.1211
   14MOL   C200 3866   5.162   6.552   5.338 -0.5545  0.3128  0.4019
   14MOL   C201 3867   5.265   6.534   5.429  0.2290  0.0110  0.5805
   14MOL   C202 3868   5.259   6.405   5.512 -0.3101 -1.0416  0.4404
   14MOL   C203 3869   5.355   6.378   5.601 -0.0423 -0.4069  0.0964
   14MOL   C204 3870   5.357   6.637   5.438 -0.0689 -0.9228  0.5495
   14MOL   C205 3871   5.350   6.751   5.350 -0.0202 -0.3378 -0.1564
   14MOL   H206 3872   5.082   6.655   5.173 -0.2176  1.8929  0.6446
   14MOL   H207 3873   5.081   6.482   5.326 -0.7092  1.0258 -3.2596
   14MOL   H208 3874   5.180   6.335   5.489 -0.1952 -1.1435  0.3605
   14MOL   H209 3875   5.437   6.446   5.614  0.5752 -0.6800 -2.1909
   14MOL   H210 3876   5.447   6.623   5.497  1.9296  0.7758 -1.9449
   14MOL   H211 3877   5.428   6.825   5.351  1.7526 -2.1316 -1.6896
   14MOL   C212 3878   5.369   6.268   5.689 -0.6216  0.2477 -0.9675
   14MOL   C213 3879   5.270   6.170   5.690 -0.3930 -0.0695 -0.3383
   14MOL   C214 3880   5.290   6.054   5.768 -0.1634 -0.2805 -0.0486
   14MOL   C215 3881   5.390   6.045   5.866 -0.2819 -0.5061  1.0531
   14MOL   C216 3882   5.389   5.920   5.944  0.4087  0.3558 -0.6473
   14MOL   C217 3883   5.464   5.910   6.052 -0.5117  0.6459  0.5177
   14MOL   C218 3884   5.482   6.151   5.876 -0.1966 -0.2675 -0.0656
   14MOL   C219 3885   5.473   6.258   5.788  0.4704  0.6490  0.5559
   14MOL   H220 3886   5.185   6.163   5.624 -0.0349 -2.0422 -0.6116
   14MOL   H221 3887   5.220   5.973   5.754  1.0700 -1.3122 -0.4211
   14MOL   H222 3888   5.332   5.838   5.904  0.8641 -1.2967  1.9700
   14MOL   H223 3889   5.529   5.988   6.090 -0.9062  0.4622  1.5812
   14MOL   H224 3890   5.571   6.155   5.938  0.4213  0.1954 -0.9639
   14MOL   H225 3891   5.537   6.344   5.796  0.3710  0.5865  2.1549
   14MOL   C226 3892   5.470   5.788   6.136 -0.0032  0.1884 -0.4113
   14MOL   C227 3893   5.529   5.803   6.268  0.4618 -0.3768  0.1637
   14MOL   C228 3894   5.532   5.697   6.356  0.9580  0.3478 -0.4137
   14MOL   C229 3895   5.461   5.577   6.326 -0.7635  0.0710  0.1286
   14MOL   C230 3896   5.459   5.461   6.418 -0.4097 -0.0531  0.4690
   14MOL   C231 3897   5.522   5.446   6.535 -0.1602 -0.2849  0.8223
   14MOL   C232 3898   5.404   5.570   6.196  0.2754 -0.6142 -0.2741
   14MOL   C233 3899   5.396   5.671   6.107 -0.1141  0.2713  0.4922
   14MOL   H234 3900   5.583   5.888   6.306  1.7306 -1.6389  1.2303
   14MOL   H235 3901   5.577   5.712   6.453 -0.3265  1.2280  0.0628
   14MOL   H236 3902   5.395   5.379   6.388 -0.7071  0.1276  0.6089
   14MOL   H237 3903   5.589   5.523   6.569 -1.7981  1.5635 -0.0300
   14MOL   H238 3904   5.358   5.480   6.158 -0.8870  0.6563 -1.9426
   14MOL   H239 3905   5.367   5.647   6.006 -0.9712 -0.8401  0.9752
   14MOL   C240 3906   5.521   5.331   6.626 -0.3261 -0.0963 -0.8434
   14MOL   C241 3907   5.559   5.351   6.759  0.3041 -0.0755 -0.3196
   14MOL   C242 3908   5.541   5.248   6.858  0.1392 -0.1923  0.3332
   14MOL   C243 3909   5.496   5.120   6.811 -0.3414 -0.6880 -0.6291
   14MOL   C244 3910   5.483   5.009   6.904  0.9612 -0.2792  0.2502
   14MOL   C245 3911   5.524   4.999   7.033  0.4014 -0.5732  0.0797
   14MOL   C246 3912   5.457   5.106   6.679 -0.5587  0.5652 -0.4999
   14MOL   C247 3913   5.469   5.210   6.585 -0.5191  0.3987 -1.0195
   14MOL   H248 3914   5.586   5.449   6.795 -0.5344 -0.4706  1.4845
   14MOL   H249 3915   5.564   5.278   6.959 -0.0721  0.9767  0.0375
   14MOL   H250 3916   5.445   4.916   6.865  1.3808 -0.1291 -0.5099
   14MOL   H251 3917   5.582   5.082   7.072  0.6788 -0.3726 -0.7504
   14MOL   H252 3918   5.408   5.013   6.651  0.2491 -0.3674  1.1038
   14MOL   H253 3919   5.433   5.189   6.485 -1.3117  4.6630 -1.7280
   14MOL   C254 3920   5.496   4.885   7.122  0.4773 -0.2132 -0.0327
   14MOL   C255 3921   5.560   4.890   7.251 -0.8815  0.3888  0.6106
   14MOL   C256 3922   5.534   4.791   7.350 -0.1525 -0.1787  0.2548
   14MOL   C257 3923   5.446   4.686   7.314 -0.1757  0.2207  0.1538
   14MOL   C258 3924   5.424   4.579   7.409  0.8002  0.4328 -0.3984
   14MOL   C259 3925   5.527   4.519   7.480  0.4385 -0.6061  0.2830
   14MOL   C260 3926   5.388   4.678   7.185  0.2182  0.0553 -0.6172
   14MOL   C261 3927   5.407   4.780   7.094 -0.6894 -0.3823  0.4556
   14MOL   H262 3928   5.640   4.955   7.283  1.3447 -2.5809  1.2749
   14MOL   H263 3929   5.570   4.784   7.452  0.7505 -0.8687 -0.1064
   14MOL   H264 3930   5.324   4.540   7.422  0.2859  1.7231 -0.3154
   14MOL   H265 3931   5.495   4.436   7.542 -1.0366  0.5272  1.0917
   14MOL   H266 3932   5.336   4.589   7.155 -0.0924  0.1346 -0.3130
   14MOL   H267 3933   5.356   4.780   6.999  0.8893  0.1445 -0.3983
   14MOL   C268 3934   5.673   4.541   7.486 -0.3045 -0.0026 -0.0303
   14MOL   C269 3935   5.745   4.531   7.609 -0.3210  0.3513 -0.1181
   14MOL   C270 3936   5.889   4.543   7.612 -0.1691 -0.3969  0.3982
   14MOL   C271 3937   5.960   4.581   7.499  0.2993 -0.2435 -1.0414
   14MOL   C272 3938   6.103   4.609   7.500  0.0239 -0.0433 -1.3755
   14MOL   C273 3939   6.191   4.568   7.593  0.3112  0.1061  0.3249
   14MOL   C274 3940   5.889   4.594   7.377  0.2190  0.3809 -0.3588
   14MOL   C275 3941   5.751   4.572   7.369 -1.1528  0.5662  0.3096
   14MOL   H276 3942   5.692   4.499   7.697  1.7782 -3.9151 -0.2591
   14MOL   H277 3943   5.928   4.531   7.712 -0.3566  0.7223  0.6058
   14MOL   H278 3944   6.139   4.669   7.417  1.9977 -1.3004 -1.4545
   14MOL   H279 3945   6.167   4.511   7.682 -1.0498 -1.4900 -1.0007
   14MOL   H280 3946   5.949   4.627   7.294  1.1553  1.1652  0.6235
   14MOL   H281 3947   5.700   4.597   7.277 -0.8246 -0.6431 -0.2146
   14MOL   H282 3948   6.293   4.601   7.593  0.2528  0.3045  1.4097
   15MOL     C1 3949   4.582   8.012   1.200 -0.1520 -0.2428 -0.0961
   15MOL     C2 3950   4.667   8.103   1.260 -0.0582 -0.0086 -0.0293
   15MOL     C3 3951   4.800   8.078   1.273  0.0027  0.4733  0.6410
   15MOL     C4 3952   4.851   7.948   1.231 -0.2523  0.2603 -0.0926
   15MOL     C5 3953   4.991   7.909   1.261 -0.3283 -0.4123 -0.0431
   15MOL     C6 3954   5.079   7.972   1.347 -0.0302  0.2197  0.1880
   15MOL     C7 3955   4.770   7.859   1.165 -0.0544  0.3017  0.2431
   15MOL     C8 3956   4.635   7.897   1.139 -0.7652 -0.6816  0.7449
   15MOL     H9 3957   4.627   0.053   1.295 -0.3233  0.6717 -2.0598
   15MOL    H10 3958   4.857   0.006   1.329 -0.8261  0.7161  1.1783
   15MOL    H11 3959   5.021   7.817   1.211 -3.0813 -0.0461 -2.4903
   15MOL    H12 3960   5.047   8.067   1.387 -1.5656  0.8203 -2.4112
   15MOL    H13 3961   4.800   7.766   1.118 -1.3593  0.7624 -1.5497
   15MOL    H14 3962   4.577   7.835   1.073 -0.3950 -0.1705 -0.0723
   15MOL    H15 3963   4.478   8.037   1.189  0.5710  2.5785 -1.0121
   15MOL    C16 3964   5.214   7.916   1.393 -0.5310  0.6617 -0.3720
   15MOL    C17 3965   5.281   7.812   1.324  0.3534  0.3146 -0.2445
   15MOL    C18 3966   5.403   7.763   1.370  0.1527  0.4162 -0.0614
   15MOL    C19 3967   5.462   7.812   1.489  0.8383  0.6071  0.8568
   15MOL    C20 3968   5.600   7.769   1.524  0.5517  0.2237  0.1185
   15MOL    C21 3969   5.682   7.689   1.457  0.1659 -0.1841  0.1801
   15MOL    C22 3970   5.382   7.903   1.563  0.2606  0.4695  0.8315
   15MOL    C23 3971   5.266   7.962   1.514  0.8211  1.0577 -0.2200
   15MOL    H24 3972   5.240   7.768   1.235 -0.3877  1.3904 -0.4384
   15MOL    H25 3973   5.463   7.696   1.311 -0.4832  0.9349 -1.3292
   15MOL    H26 3974   5.639   7.805   1.618  0.8182 -0.9693  0.4643
   15MOL    H27 3975   5.652   7.635   1.368  0.2899  0.5329 -0.3040
   15MOL    H28 3976   5.416   7.932   1.662  1.3113 -0.0087  0.6202
   15MOL    H29 3977   5.213   8.034   1.575 -0.5847  1.3386 -1.7334
   15MOL    C30 3978   5.827   7.660   1.493  0.7780 -0.0203  0.8840
   15MOL    C31 3979   5.895   7.585   1.400  0.0233  0.3023  0.1279
   15MOL    C32 3980   6.030   7.554   1.427 -0.6609  0.1853 -0.1006
   15MOL    C33 3981   6.101   7.610   1.536  0.6170  0.0637 -0.1447
   15MOL    C34 3982   6.241   7.572   1.559 -0.3745  0.0760 -0.3634
   15MOL    C35 3983   6.325   7.615   1.656 -0.4164 -0.1998  0.1261
   15MOL    C36 3984   6.022   7.689   1.625  0.0160 -0.6088 -0.0897
   15MOL    C37 3985   5.886   7.707   1.610 -0.0946 -0.1428 -0.0676
   15MOL    H38 3986   5.849   7.545   1.311 -3.1232 -2.8314  3.0808
   15MOL    H39 3987   6.091   7.493   1.362 -0.1628  0.8841 -0.2984
   15MOL    H40 3988   6.275   7.499   1.487 -1.1294 -1.5931  0.9422
   15MOL    H41 3989   6.292   7.692   1.724 -0.5250  0.5926 -0.8139
   15MOL    H42 3990   6.064   7.729   1.717 -1.7873  0.6342  0.2366
   15MOL    H43 3991   5.825   7.757   1.684  1.6064 -1.2108  2.1143
   15MOL    C44 3992   6.468   7.576   1.672 -0.4376 -0.0595  0.2762
   15MOL    C45 3993   6.544   7.495   1.582 -0.3923  0.4602 -0.4384
   15MOL    C46 3994   6.671   7.445   1.622  0.5083  0.0164  0.1011
   15MOL    C47 3995   6.733   7.486   1.741 -0.7560 -0.2238  0.2169
   15MOL    C48 3996   6.874   7.440   1.762  0.1362 -0.2964  0.2558
   15MOL    C49 3997   6.959   7.502   1.848  0.0031  0.7616 -0.0963
   15MOL    C50 3998   6.666   7.588   1.822 -0.1089 -0.2470  0.5236
   15MOL    C51 3999   6.533   7.621   1.789 -0.2588  0.3620  0.1330
   15MOL    H52 4000   6.501   7.469   1.486 -2.3526 -1.5445  0.9346
   15MOL    H53 4001   6.722   7.375   1.557 -3.5248 -1.0607 -2.0586
   15MOL    H54 4002   6.908   7.358   1.702 -1.6360  1.2143 -2.9882
   15MOL    H55 4003   6.915   7.587   1.897  0.9040 -0.4562  2.9354
   15MOL    H56 4004   6.695   7.640   1.912  0.0214  0.5743  0.0164
   15MOL    H57 4005   6.481   7.679   1.864  1.2744 -0.7635  2.1108
   15MOL    C58 4006   7.097   7.464   1.857  0.2878 -0.2825 -0.0365
   15MOL    C59 4007   7.171   7.374   1.775 -0.2746 -0.2163 -0.2233
   15MOL    C60 4008   7.308   7.345   1.800 -0.1395 -0.0968 -0.6494
   15MOL    C61 4009   7.382   7.403   1.904  0.3352 -0.6542  0.5046
   15MOL    C62 4010   7.521   7.351   1.934  0.3054 -0.4176 -0.0810
   15MOL    C63 4011   7.577   7.373   2.054  0.1055 -0.3937 -0.1080
   15MOL    C64 4012   7.309   7.497   1.979 -0.0549 -0.5307  0.3606
   15MOL    C65 4013   7.164   7.517   1.964 -0.2683 -0.4430  0.0083
   15MOL    H66 4014   7.122   7.315   1.699 -2.7194  0.0806  1.0804
   15MOL    H67 4015   7.355   7.263   1.749 -0.0249 -0.3553 -0.1394
   15MOL    H68 4016   7.581   7.309   1.855  0.8685  1.8915 -0.9388
   15MOL    H69 4017   7.516   7.425   2.126 -0.2562 -0.0516 -0.6590
   15MOL    H70 4018   7.350   7.555   2.061  1.1534 -2.2116  0.9853
   15MOL    H71 4019   7.123   7.597   2.024  3.8593  2.5074 -0.8846
   15MOL    C72 4020   7.707   7.327   2.100  0.2143 -0.0138 -0.2400
   15MOL    C73 4021   7.784   7.235   2.028 -0.1803 -0.4704  1.1134
   15MOL    C74 4022   7.915   7.197   2.074 -0.5345 -0.1464 -0.1773
   15MOL    C75 4023   7.973   7.266   2.182 -0.0332  0.4223  0.1212
   15MOL    C76 4024   8.114   7.232   2.225 -0.6200  0.2397 -0.4309
   15MOL    C77 4025   0.058   7.150   2.161  0.2695  0.3310 -0.2495
   15MOL    C78 4026   7.894   7.362   2.248  0.6008  0.4938  0.4870
   15MOL    C79 4027   7.764   7.393   2.208  0.1680 -0.0510  0.0257
   15MOL    H80 4028   7.737   7.189   1.942 -0.7023 -0.4713  1.4043
   15MOL    H81 4029   7.963   7.122   2.013 -1.4660 -1.1044  0.2519
   15MOL    H82 4030   8.133   7.275   2.323 -1.6715  0.6112 -0.3815
   15MOL    H83 4031   0.025   7.099   2.072  0.1488  0.6852 -0.4077
   15MOL    H84 4032   7.934   7.428   2.324  0.1940  0.2189  0.9405
   15MOL    H85 4033   7.714   7.477   2.253  2.4024  1.7236 -0.7063
   15MOL    C86 4034   0.194   7.118   2.192  0.0160 -0.8925  0.3594
   15MOL    C87 4035   0.273   7.192   2.288  0.0488  0.3756  0.9661
   15MOL    C88 4036   0.401   7.163   2.318 -0.2267  0.1052  0.1893
   15MOL    C89 4037   0.468   7.050   2.266  0.7570  0.1220  0.0242
   15MOL    C90 4038   0.600   7.020   2.313 -0.0523  0.7609  0.0445
   15MOL    C91 4039   0.679   6.912   2.281  0.0310 -0.4728  0.7791
   15MOL    C92 4040   0.393   6.973   2.171  0.0939 -0.2628  0.1704
   15MOL    C93 4041   0.258   7.005   2.141  0.2539  0.3626 -0.1684
   15MOL    H94 4042   0.223   7.276   2.333  1.2061  0.6462  1.7823
   15MOL    H95 4043   0.449   7.222   2.394 -0.4674 -0.1501  0.5378
   15MOL    H96 4044   0.643   7.093   2.381  1.5687 -0.4253  0.3339
   15MOL    H97 4045   0.652   6.841   2.204 -1.0652 -0.0887  0.8108
   15MOL    H98 4046   0.442   6.889   2.124  0.8354  0.0225  0.4221
   15MOL    H99 4047   0.207   6.938   2.073 -1.7184  0.9527  0.7180
   15MOL   C100 4048   0.809   6.879   2.337  0.2940  0.2218  0.2035
   15MOL   C101 4049   0.881   6.782   2.275 -0.7593  0.6309 -0.3341
   15MOL   C102 4050   1.001   6.732   2.325  0.0740  0.2196 -0.1727
   15MOL   C103 4051   1.060   6.794   2.439 -0.1936 -0.3281  0.3697
   15MOL   C104 4052   1.197   6.760   2.490  0.2829  0.5786  0.4172
   15MOL   C105 4053   1.280   6.671   2.429  0.2989 -1.0133 -0.1862
   15MOL   C106 4054   0.994   6.904   2.492  0.0698  0.6157 -0.0695
   15MOL   C107 4055   0.876   6.953   2.435 -0.1640 -0.2869 -0.8184
   15MOL   H108 4056   0.833   6.731   2.192 -4.3072  2.4895  0.4889
   15MOL   H109 4057   1.056   6.649   2.284 -0.9752 -2.1123  2.8970
   15MOL   H110 4058   1.215   6.796   2.590  0.7972  0.1389  0.4871
   15MOL   H111 4059   1.255   6.641   2.329 -0.7353  0.0164 -0.2566
   15MOL   H112 4060   1.037   6.955   2.577  0.0272  1.0264 -0.2893
   15MOL   H113 4061   0.831   7.042   2.476 -1.1886 -1.0362 -0.2787
   15MOL   C114 4062   1.406   6.627   2.474 -0.4678  0.3668  0.0296
   15MOL   C115 4063   1.471   6.674   2.593 -0.0884  0.3432  0.2891
   15MOL   C116 4064   1.595   6.618   2.639 -0.1340 -0.1512  0.1712
   15MOL   C117 4065   1.654   6.525   2.554  0.3240 -0.0053 -0.5551
   15MOL   C118 4066   1.791   6.472   2.584  0.3599  0.2178  0.3789
   15MOL   C119 4067   1.871   6.486   2.698  0.3522 -0.2500  0.1766
   15MOL   C120 4068   1.589   6.468   2.444  0.0012  0.1721  0.3249
   15MOL   C121 4069   1.469   6.518   2.399 -0.3256 -0.2148  0.5503
   15MOL   H122 4070   1.429   6.755   2.651 -0.8074 -2.1125  3.3545
   15MOL   H123 4071   1.651   6.658   2.722 -0.3376  0.0314  0.2209
   15MOL   H124 4072   1.837   6.410   2.508  0.2706  0.0483  0.4631
   15MOL   H125 4073   1.826   6.543   2.778  0.1053 -0.0123 -0.1293
   15MOL   H126 4074   1.633   6.380   2.398  1.9317 -0.5797  3.5209
   15MOL   H127 4075   1.408   6.474   2.322 -1.7403 -0.5619  1.8460
   15MOL   C128 4076   2.007   6.428   2.720  0.6851  0.3218  0.3768
   15MOL   C129 4077   2.097   6.498   2.807  0.4927  0.0464 -0.4253
   15MOL   C130 4078   2.233   6.456   2.821 -0.7721 -0.1334 -0.5119
   15MOL   C131 4079   2.280   6.333   2.759 -0.5487 -0.0608  0.9279
   15MOL   C132 4080   2.415   6.282   2.796  0.0387 -0.3497  0.5436
   15MOL   C133 4081   2.479   6.163   2.754 -0.2011  0.2222 -1.8054
   15MOL   C134 4082   2.188   6.268   2.676 -0.1529 -0.0086  0.4226
   15MOL   C135 4083   2.056   6.312   2.650  1.3219  0.2063  0.8322
   15MOL   H136 4084   2.061   6.586   2.857  2.4638  0.4494  0.2908
   15MOL   H137 4085   2.314   6.503   2.874 -1.8829 -0.8802  1.9304
   15MOL   H138 4086   2.470   6.344   2.866 -1.0781  0.9740  0.2604
   15MOL   H139 4087   2.434   6.104   2.676 -0.8463 -0.8876 -0.6181
   15MOL   H140 4088   2.224   6.182   2.622  1.3177  1.4101 -0.9288
   15MOL   H141 4089   1.999   6.260   2.575 -1.0501 -0.0172  2.7287
   15MOL   C142 4090   2.609   6.109   2.791  0.2836 -0.6128 -0.4249
   15MOL   C143 4091   2.636   5.978   2.754 -0.0228  0.1681  0.0834
   15MOL   C144 4092   2.758   5.916   2.795 -0.8331 -0.3370 -0.1972
   15MOL   C145 4093   2.856   5.993   2.867  0.3511  0.1417  0.2044
   15MOL   C146 4094   2.989   5.943   2.888  0.5182 -0.3273  0.1793
   15MOL   C147 4095   3.093   6.009   2.946 -0.3960  0.3727  0.0063
   15MOL   C148 4096   2.817   6.119   2.913 -0.0286  0.0378 -0.0923
   15MOL   C149 4097   2.693   6.172   2.877  0.2058 -0.1056 -0.5075
   15MOL   H150 4098   2.562   5.922   2.698 -1.0413 -0.0342  1.5999
   15MOL   H151 4099   2.783   5.816   2.761  1.3295 -0.4813  1.6873
   15MOL   H152 4100   2.998   5.845   2.844  1.0187 -0.1424 -0.1269
   15MOL   H153 4101   3.087   6.113   2.973 -1.3806  0.6246 -1.1372
   15MOL   H154 4102   2.880   6.187   2.969  1.6908 -0.8492 -0.9356
   15MOL   H155 4103   2.670   6.272   2.910 -1.4016 -0.6406  0.0497
   15MOL   C156 4104   3.229   5.954   2.953  0.1545  0.2630  0.2510
   15MOL   C157 4105   3.322   6.020   3.028  0.1822  1.5977 -0.0520
   15MOL   C158 4106   3.445   5.962   3.046 -0.3308  0.1064  0.1918
   15MOL   C159 4107   3.485   5.837   2.989  0.2507  0.0541  0.1786
   15MOL   C160 4108   3.624   5.786   3.023 -0.5909  0.1113 -0.4289
   15MOL   C161 4109   3.726   5.833   3.098 -0.0459 -0.2379  0.0228
   15MOL   C162 4110   3.389   5.772   2.906 -0.1872  0.1586 -0.6473
   15MOL   C163 4111   3.259   5.830   2.891 -0.0790 -0.0747 -0.0845
   15MOL   H164 4112   3.291   6.113   3.075 -3.1807  1.5418 -2.0094
   15MOL   H165 4113   3.520   6.009   3.108  0.1227 -0.0296 -0.2576
   15MOL   H166 4114   3.644   5.698   2.962 -1.3342 -0.0118 -0.4994
   15MOL   H167 4115   3.709   5.927   3.149 -0.3527 -1.0431  1.4274
   15MOL   H168 4116   3.405   5.676   2.861  1.7795  0.0906  0.1104
   15MOL   H169 4117   3.191   5.763   2.839  1.3984 -3.3832  2.0544
   15MOL   C170 4118   3.861   5.778   3.122 -0.0112  0.4097 -0.2630
   15MOL   C171 4119   3.911   5.672   3.050 -0.0071  0.0251  0.3645
   15MOL   C172 4120   4.029   5.597   3.082 -0.2319 -0.3172  0.3067
   15MOL   C173 4121   4.117   5.650   3.182 -0.1633  0.4115  0.1617
   15MOL   C174 4122   4.250   5.583   3.203 -0.1226  0.4021  0.3532
   15MOL   C175 4123   4.312   5.596   3.320  0.1501 -0.5823  0.7238
   15MOL   C176 4124   4.065   5.756   3.265 -0.0603  0.3254  0.8791
   15MOL   C177 4125   3.939   5.820   3.237  0.0026 -0.1868  0.0778
   15MOL   H178 4126   3.859   5.630   2.966  0.1961  0.6309 -0.0686
   15MOL   H179 4127   4.059   5.516   3.017  1.1537 -0.3041  0.9184
   15MOL   H180 4128   4.299   5.527   3.124  0.9627 -1.0885  2.0457
   15MOL   H181 4129   4.258   5.654   3.394 -2.1072  0.4372 -1.6546
   15MOL   H182 4130   4.116   5.795   3.353  1.3198 -0.3765  0.4175
   15MOL   H183 4131   3.889   5.891   3.300  0.6681  0.7502 -0.4292
   15MOL   C184 4132   4.430   5.539   3.384  0.0226 -0.1201  0.5603
   15MOL   C185 4133   4.529   5.486   3.299 -0.6036  0.3310  0.7384
   15MOL   C186 4134   4.646   5.434   3.357  0.3286  0.7742  0.5614
   15MOL   C187 4135   4.671   5.440   3.498  0.5726 -0.0984 -0.4350
   15MOL   C188 4136   4.796   5.394   3.557  0.7451 -0.0447  0.2002
   15MOL   C189 4137   4.912   5.375   3.484  0.2662 -0.2083 -0.0667
   15MOL   C190 4138   4.569   5.498   3.580  0.9711 -0.2276 -0.3925
   15MOL   C191 4139   4.447   5.541   3.523 -0.0085  0.1645  0.1551
   15MOL   H192 4140   4.515   5.487   3.192 -0.7479  1.3104  0.7582
   15MOL   H193 4141   4.719   5.398   3.287  1.9196  2.2799  1.4069
   15MOL   H194 4142   4.797   5.372   3.663 -0.9995 -1.1088  0.0136
   15MOL   H195 4143   4.912   5.381   3.376 -0.1075 -1.6060 -0.1612
   15MOL   H196 4144   4.576   5.507   3.688  2.1091  0.4753 -0.5077
   15MOL   H197 4145   4.367   5.588   3.579  1.6661  0.8689  2.0152
   15MOL   C198 4146   5.041   5.319   3.546  0.1973  0.0972 -0.4021
   15MOL   C199 4147   5.151   5.272   3.468  0.0734 -0.3569  0.7676
   15MOL   C200 4148   5.272   5.238   3.523 -0.9014  0.2111  0.0140
   15MOL   C201 4149   5.290   5.245   3.662  0.3586 -0.2115  0.2463
   15MOL   C202 4150   5.415   5.214   3.732 -0.4975  0.9532 -0.3403
   15MOL   C203 4151   5.529   5.176   3.662 -0.0866  0.2186  0.8027
   15MOL   C204 4152   5.183   5.296   3.740  0.3973 -0.2174  0.1401
   15MOL   C205 4153   5.056   5.325   3.688 -0.1287  0.6323  0.4064
   15MOL   H206 4154   5.148   5.274   3.360  0.5369  0.3859  0.7659
   15MOL   H207 4155   5.346   5.203   3.453 -0.2210 -1.0911  1.3819
   15MOL   H208 4156   5.414   5.239   3.837  1.7571  1.4762 -0.4270
   15MOL   H209 4157   5.516   5.165   3.555 -1.3741  0.4006  0.9299
   15MOL   H210 4158   5.199   5.294   3.847  3.0398  0.0761 -0.2276
   15MOL   H211 4159   4.975   5.347   3.755 -0.4540  1.4100 -0.2390
   15MOL   C212 4160   5.662   5.149   3.713  0.6670  0.3223  0.0017
   15MOL   C213 4161   5.752   5.093   3.628 -0.4907  0.1797  0.2020
   15MOL   C214 4162   5.883   5.059   3.678  0.3353  0.5613  0.4988
   15MOL   C215 4163   5.928   5.087   3.807 -0.7866 -0.0790 -0.5179
   15MOL   C216 4164   6.056   5.056   3.856 -0.2169 -0.0072 -0.3237
   15MOL   C217 4165   6.168   5.010   3.794  0.0358 -0.1202  0.3930
   15MOL   C218 4166   5.835   5.146   3.892  0.2461 -0.5251  0.1461
   15MOL   C219 4167   5.700   5.168   3.846  0.5528 -0.1537 -1.1478
   15MOL   H220 4168   5.733   5.066   3.525  1.2125  0.3814 -0.1861
   15MOL   H221 4169   5.949   5.012   3.607 -0.3818 -0.3942  0.4641
   15MOL   H222 4170   6.055   5.074   3.963 -0.4631  1.0495 -0.5001
   15MOL   H223 4171   6.165   4.983   3.690 -0.4382 -2.3246  0.9377
   15MOL   H224 4172   5.861   5.166   3.995  0.8816 -0.0602 -0.1007
   15MOL   H225 4173   5.636   5.225   3.911  0.1252 -0.4843 -1.2741
   15MOL   C226 4174   6.292   4.976   3.863 -0.9326  0.2293  0.2097
   15MOL   C227 4175   6.316   5.000   4.004  0.2587  0.1459 -0.2203
   15MOL   C228 4176   6.443   4.964   4.054 -0.3209 -0.7023 -0.5249
   15MOL   C229 4177   6.541   4.912   3.967  0.3864  0.0521  0.3396
   15MOL   C230 4178   6.668   4.869   4.035 -0.0731 -0.2200  0.0878
   15MOL   C231 4179   6.776   4.838   3.966  0.3576  0.7259 -0.2533
   15MOL   C232 4180   6.512   4.886   3.831 -0.4599 -0.5818 -0.0724
   15MOL   C233 4181   6.389   4.916   3.782 -0.7500 -0.7692  0.5233
   15MOL   H234 4182   6.245   5.045   4.072 -0.7083  1.1993 -1.9234
   15MOL   H235 4183   6.471   4.984   4.156  0.9539 -1.5226 -0.7140
   15MOL   H236 4184   6.661   4.865   4.142 -1.9239  3.8444  0.2177
   15MOL   H237 4185   6.778   4.834   3.858 -1.0484 -1.5344 -0.2428
   15MOL   H238 4186   6.579   4.846   3.756  1.1897  1.5124  0.2297
   15MOL   H239 4187   6.376   4.894   3.677 -0.1745 -0.9667  0.4889
   15MOL   C240 4188   6.906   4.811   4.027  0.0884  0.3122 -0.8396
   15MOL   C241 4189   7.028   4.838   3.960  0.0516 -0.3006  0.0096
   15MOL   C242 4190   7.151   4.803   4.012 -0.3961 -0.2304  0.8468
   15MOL   C243 4191   7.162   4.768   4.143 -0.5700  0.1904  1.0362
   15MOL   C244 4192   7.298   4.773   4.203  0.1207  0.3353 -0.5869
   15MOL   C245 4193   7.327   4.747   4.334  1.2805 -0.4035  0.2363
   15MOL   C246 4194   7.044   4.744   4.214 -0.1912 -0.1363  0.1635
   15MOL   C247 4195   6.918   4.776   4.165 -0.3112  0.3008  0.9607
   15MOL   H248 4196   7.023   4.890   3.866  0.5025  2.1158  1.2871
   15MOL   H249 4197   7.239   4.831   3.956 -0.8231 -0.6397 -0.0534
   15MOL   H250 4198   7.375   4.797   4.131  0.1915 -0.4509 -0.7806
   15MOL   H251 4199   7.245   4.721   4.400  0.9575  0.9081  0.3567
   15MOL   H252 4200   7.050   4.696   4.310 -0.5349  0.2980  0.4049
   15MOL   H253 4201   6.826   4.765   4.221 -0.3053  1.2754  1.1705
   15MOL   C254 4202   7.464   4.740   4.390 -0.0854  0.9051  0.4228
   15MOL   C255 4203   7.571   4.795   4.316 -0.1438  0.1162  0.8589
   15MOL   C256 4204   7.695   4.761   4.372 -0.1340  0.5016  0.1624
   15MOL   C257 4205   7.717   4.683   4.487 -0.0033  0.3496  0.2072
   15MOL   C258 4206   7.858   4.652   4.529 -0.1647 -0.0276  0.0282
   15MOL   C259 4207   7.916   4.606   4.642  0.4645  0.0578 -0.7378
   15MOL   C260 4208   7.608   4.635   4.552  0.0091 -0.9504 -0.4281
   15MOL   C261 4209   7.477   4.670   4.508 -0.4956  0.4881  0.9520
   15MOL   H262 4210   7.545   4.854   4.229  0.4449  0.1184  0.6814
   15MOL   H263 4211   7.788   4.798   4.331 -0.8290  0.4726 -1.4743
   15MOL   H264 4212   7.923   4.666   4.444 -0.1333 -0.5359 -0.0329
   15MOL   H265 4213   8.023   4.592   4.643  0.4727  0.1359  1.0419
   15MOL   H266 4214   7.626   4.574   4.639  0.5697  1.2614  1.0326
   15MOL   H267 4215   7.390   4.626   4.555 -2.2117  1.3976 -1.2442
   15MOL   C268 4216   7.847   4.593   4.773 -0.5199 -0.1576  0.5513
   15MOL   C269 4217   7.752   4.681   4.812 -0.0806  0.1684 -0.1837
   15MOL   C270 4218   7.700   4.674   4.944  0.2439  0.6214  0.6569
   15MOL   C271 4219   7.723   4.571   5.032  0.2707 -0.0933 -0.2672
   15MOL   C272 4220   7.647   4.576   5.154 -0.0061  1.0844  0.4943
   15MOL   C273 4221   7.608   4.470   5.223  0.2470 -0.3167 -0.2392
   15MOL   C274 4222   7.819   4.473   4.990 -0.3363 -0.0656 -0.4046
   15MOL   C275 4223   7.885   4.488   4.863 -0.8581 -0.3571 -0.3151
   15MOL   H276 4224   7.726   4.768   4.753 -1.1380 -0.2219 -0.2880
   15MOL   H277 4225   7.631   4.750   4.977 -0.3945  0.5154 -0.4112
   15MOL   H278 4226   7.617   4.669   5.199 -0.4190 -0.2248  3.0326
   15MOL   H279 4227   7.637   4.373   5.185  1.3346 -0.3614  0.6798
   15MOL   H280 4228   7.842   4.394   5.060 -1.1765  1.2618  1.4181
   15MOL   H281 4229   7.967   4.420   4.851 -1.9232 -1.6987 -0.1518
   15MOL   H282 4230   7.548   4.476   5.313  0.7808 -2.9182  0.3417
   16MOL     C1 4231   1.451   5.068   5.471  0.4302 -0.4297  0.2836
   16MOL     C2 4232   1.332   5.087   5.558  0.3405  0.2631  0.1395
   16MOL     C3 4233   1.253   4.974   5.579  0.9974 -0.0189 -0.4681
   16MOL     C4 4234   1.283   4.845   5.529  0.8070  0.4125  0.5828
   16MOL     C5 4235   1.184   4.730   5.545  0.5575  0.4279 -0.0598
   16MOL     C6 4236   1.182   4.616   5.477  0.1701 -0.4897 -0.6847
   16MOL     C7 4237   1.389   4.834   5.441  0.0347 -0.1890 -0.3965
   16MOL     C8 4238   1.478   4.941   5.421  0.4981  0.3248  0.0926
   16MOL     H9 4239   1.308   5.184   5.599 -0.2438  0.4329 -0.6014
   16MOL    H10 4240   1.165   4.983   5.642  0.5918  1.6705 -1.2353
   16MOL    H11 4241   1.105   4.737   5.619  1.2582 -2.5230  1.0237
   16MOL    H12 4242   1.259   4.599   5.404  0.8755  0.3593 -0.1521
   16MOL    H13 4243   1.411   4.741   5.390  0.6254  0.1815 -0.8200
   16MOL    H14 4244   1.560   4.934   5.351 -0.8788 -1.9177 -1.3511
   16MOL    H15 4245   1.518   5.149   5.447 -2.1183  0.9728 -2.4084
   16MOL    C16 4246   1.090   4.500   5.490  0.3246 -0.2665  0.2788
   16MOL    C17 4247   1.136   4.363   5.478  0.7026 -0.1433  1.0036
   16MOL    C18 4248   1.048   4.255   5.507  0.7872 -0.8577  0.3601
   16MOL    C19 4249   0.916   4.279   5.558  0.0615  0.6264  0.2072
   16MOL    C20 4250   0.827   4.165   5.586  0.0479  0.1918  0.1290
   16MOL    C21 4251   0.852   4.039   5.568  0.4560 -0.0903  0.2815
   16MOL    C22 4252   0.875   4.418   5.569 -0.5658 -0.6026 -0.1526
   16MOL    C23 4253   0.956   4.525   5.540 -0.1310  0.3297 -0.8184
   16MOL    H24 4254   1.234   4.337   5.439  1.0527 -0.1734  1.8926
   16MOL    H25 4255   1.075   4.158   5.468 -0.5219 -1.1434  0.1251
   16MOL    H26 4256   0.728   4.198   5.617 -0.4320  1.6103 -2.7328
   16MOL    H27 4257   0.946   4.005   5.526  0.9316 -0.6278  1.7395
   16MOL    H28 4258   0.774   4.450   5.592 -0.3876  0.9782 -1.4276
   16MOL    H29 4259   0.912   4.623   5.553  2.7679  1.6308 -0.4055
   16MOL    C30 4260   0.758   3.925   5.604 -0.5998 -1.4706  0.0331
   16MOL    C31 4261   0.790   3.795   5.568  0.2182  0.0161  0.9788
   16MOL    C32 4262   0.707   3.686   5.591 -0.8012  0.3909 -0.2960
   16MOL    C33 4263   0.585   3.709   5.657 -0.5769  0.2427  0.4268
   16MOL    C34 4264   0.495   3.592   5.669 -0.2515 -0.4982  0.2906
   16MOL    C35 4265   0.375   3.600   5.730 -0.0885 -0.0072  1.1071
   16MOL    C36 4266   0.547   3.841   5.697  0.1995 -0.3209  0.1365
   16MOL    C37 4267   0.635   3.951   5.671  0.7702  0.0243  0.5659
   16MOL    H38 4268   0.875   3.782   5.503 -0.0169 -0.4617  0.7712
   16MOL    H39 4269   0.742   3.586   5.568 -0.5549  0.6192 -0.9471
   16MOL    H40 4270   0.521   3.499   5.622 -0.7288 -0.7434  0.5070
   16MOL    H41 4271   0.350   3.694   5.777  0.8111  0.4002  0.7758
   16MOL    H42 4272   0.449   3.865   5.736 -0.4500 -0.9411 -1.0969
   16MOL    H43 4273   0.602   4.050   5.697 -2.2845 -0.4097 -1.3223
   16MOL    C44 4274   0.269   3.494   5.744  0.5423  0.7210  0.1616
   16MOL    C45 4275   0.272   3.373   5.668 -0.4635  0.1240 -0.3351
   16MOL    C46 4276   0.175   3.277   5.689  0.4903 -0.4299 -0.1668
   16MOL    C47 4277   0.068   3.294   5.783  0.0555  0.0745  0.4785
   16MOL    C48 4278   8.112   3.186   5.800 -0.5953 -0.2259  0.2230
   16MOL    C49 4279   8.030   3.160   5.901  0.1412 -0.8744  0.0310
   16MOL    C50 4280   0.079   3.411   5.865  0.4638 -0.6547 -0.0426
   16MOL    C51 4281   0.173   3.509   5.843  0.1313 -0.2431  0.5351
   16MOL    H52 4282   0.355   3.343   5.606  1.2979 -1.2042  2.5584
   16MOL    H53 4283   0.178   3.181   5.640  0.8188 -0.0712 -0.8576
   16MOL    H54 4284   8.106   3.121   5.714  1.3033 -0.0828 -0.0451
   16MOL    H55 4285   8.036   3.214   5.995  2.8411  0.5867 -0.9111
   16MOL    H56 4286   0.004   3.426   5.941  0.8095 -0.0058  0.1712
   16MOL    H57 4287   0.175   3.601   5.899  0.3561  0.0108  0.1148
   16MOL    C58 4288   7.929   3.051   5.902  0.1117 -0.3814  0.2502
   16MOL    C59 4289   7.876   3.012   6.023 -0.0518 -0.0816 -0.2219
   16MOL    C60 4290   7.766   2.925   6.032  0.2141  0.2400 -0.2697
   16MOL    C61 4291   7.701   2.878   5.916 -0.7383  0.0871 -0.3281
   16MOL    C62 4292   7.580   2.801   5.928  0.2708 -1.0784 -0.1907
   16MOL    C63 4293   7.507   2.761   5.823  0.1765  0.2050 -0.0365
   16MOL    C64 4294   7.761   2.905   5.793  0.4100 -0.2174  0.2578
   16MOL    C65 4295   7.870   2.994   5.788 -0.7477 -0.0487 -0.3626
   16MOL    H66 4296   7.920   3.053   6.112  0.1907 -0.4651 -0.1654
   16MOL    H67 4297   7.725   2.891   6.126 -0.0084  0.4101 -0.3034
   16MOL    H68 4298   7.551   2.780   6.029  1.0790  0.0022  0.2713
   16MOL    H69 4299   7.537   2.783   5.721 -0.2812 -0.4294 -0.3142
   16MOL    H70 4300   7.728   2.856   5.703  2.2489  1.8764 -1.6471
   16MOL    H71 4301   7.902   3.007   5.685  1.2049  0.4117  0.2875
   16MOL    C72 4302   7.383   2.681   5.815 -0.0050 -0.0615 -0.2051
   16MOL    C73 4303   7.299   2.656   5.927  0.4813 -0.4850 -0.2932
   16MOL    C74 4304   7.178   2.588   5.911 -0.0978 -0.2019 -0.4603
   16MOL    C75 4305   7.135   2.542   5.781  0.5606 -0.2660 -0.0556
   16MOL    C76 4306   7.005   2.471   5.751  0.1667  0.7973 -0.4309
   16MOL    C77 4307   6.901   2.463   5.841  0.1746 -0.0898  0.1883
   16MOL    C78 4308   7.221   2.566   5.673 -0.0919 -0.2844 -0.2788
   16MOL    C79 4309   7.345   2.626   5.689  0.2372 -0.6352  0.6906
   16MOL    H80 4310   7.310   2.689   6.029 -1.4575  0.6407 -0.4199
   16MOL    H81 4311   7.123   2.547   5.995 -1.8838  2.3196 -0.3636
   16MOL    H82 4312   6.978   2.428   5.656 -2.1432 -0.7952  0.8947
   16MOL    H83 4313   6.904   2.503   5.942  1.9810  0.8424 -0.2045
   16MOL    H84 4314   7.195   2.525   5.576 -0.5943  0.6250 -0.5349
   16MOL    H85 4315   7.410   2.640   5.604 -1.0902  0.8954 -0.1057
   16MOL    C86 4316   6.774   2.391   5.831 -0.0462 -0.2062  0.1156
   16MOL    C87 4317   6.705   2.351   5.942  0.2163 -0.3288  0.0292
   16MOL    C88 4318   6.583   2.280   5.938 -0.4022  0.0266 -0.0363
   16MOL    C89 4319   6.521   2.260   5.813 -0.7372 -0.2952  0.1045
   16MOL    C90 4320   6.395   2.196   5.809  0.3256  0.1186 -0.3872
   16MOL    C91 4321   6.354   2.137   5.700 -0.5827  0.8309 -0.2317
   16MOL    C92 4322   6.591   2.302   5.701  0.3424 -0.2809 -0.2366
   16MOL    C93 4323   6.713   2.374   5.705  0.1870  0.2332  0.1694
   16MOL    H94 4324   6.753   2.371   6.037  0.0792 -0.1985  0.0704
   16MOL    H95 4325   6.548   2.249   6.035  0.4627  0.4412  0.4169
   16MOL    H96 4326   6.343   2.200   5.904  3.1861  0.4401  1.2501
   16MOL    H97 4327   6.418   2.129   5.613  1.5422  0.9313  1.2940
   16MOL    H98 4328   6.547   2.294   5.603  0.6868 -0.7043 -0.3578
   16MOL    H99 4329   6.762   2.403   5.613 -0.9920 -0.1183 -0.5834
   16MOL   C100 4330   6.225   2.075   5.695 -0.1627 -0.2497  0.4354
   16MOL   C101 4331   6.149   2.079   5.583  0.1169  0.4295 -0.0608
   16MOL   C102 4332   6.018   2.024   5.578  0.0973  0.3875 -0.1453
   16MOL   C103 4333   5.957   1.963   5.694 -0.0553 -0.3977  0.1864
   16MOL   C104 4334   5.820   1.913   5.702  0.5250  0.0574 -0.3923
   16MOL   C105 4335   5.737   1.915   5.598 -0.0769 -0.1677  0.3139
   16MOL   C106 4336   6.030   1.973   5.812 -0.3274 -0.7679 -0.7169
   16MOL   C107 4337   6.161   2.028   5.810  0.4804  0.2345 -1.0443
   16MOL   H108 4338   6.190   2.116   5.490 -1.0138  0.2156 -0.6527
   16MOL   H109 4339   5.955   2.022   5.491  1.9234 -0.2504 -1.4813
   16MOL   H110 4340   5.795   1.848   5.785 -0.4555  1.0461  0.0932
   16MOL   H111 4341   5.768   1.975   5.514  1.2008 -2.0959 -0.6357
   16MOL   H112 4342   5.990   1.946   5.909  0.1413  0.3699 -0.2042
   16MOL   H113 4343   6.206   2.035   5.908 -2.3600  0.2600  0.3064
   16MOL   C114 4344   5.613   1.832   5.585 -0.1023  0.4095 -0.5359
   16MOL   C115 4345   5.549   1.775   5.696 -0.2492  0.2319 -0.7244
   16MOL   C116 4346   5.439   1.692   5.679  0.4613  0.5314 -0.1035
   16MOL   C117 4347   5.389   1.659   5.548 -0.2579 -0.2233  0.0280
   16MOL   C118 4348   5.280   1.561   5.538  0.2795  0.0616 -0.1144
   16MOL   C119 4349   5.208   1.531   5.431 -0.3320 -0.6124 -0.4592
   16MOL   C120 4350   5.457   1.709   5.438 -0.1146  0.6362  0.5566
   16MOL   C121 4351   5.564   1.797   5.457 -0.8208  0.4545 -0.3713
   16MOL   H122 4352   5.584   1.791   5.797  1.3672  2.1898 -1.5601
   16MOL   H123 4353   5.379   1.644   5.756  0.8597 -2.2062 -1.4178
   16MOL   H124 4354   5.272   1.502   5.627  3.5770 -1.1263 -0.5060
   16MOL   H125 4355   5.224   1.593   5.343 -1.3304  0.0582 -0.1714
   16MOL   H126 4356   5.412   1.696   5.340  1.1398  1.4846 -0.1456
   16MOL   H127 4357   5.618   1.840   5.374  0.5344  1.8527  1.1637
   16MOL   C128 4358   5.105   1.433   5.433 -0.4700 -0.2710 -0.7311
   16MOL   C129 4359   5.073   1.374   5.307  0.6897  0.2008  0.2825
   16MOL   C130 4360   4.979   1.272   5.304  0.1379 -0.5083  0.0113
   16MOL   C131 4361   4.908   1.230   5.421 -0.2550  0.2114 -0.1028
   16MOL   C132 4362   4.796   1.137   5.404  0.2398 -0.0760  0.0923
   16MOL   C133 4363   4.758   1.077   5.287 -0.2125  0.2266 -0.1708
   16MOL   C134 4364   4.929   1.292   5.544 -0.5568  0.3877 -0.1225
   16MOL   C135 4365   5.033   1.395   5.552 -0.1474 -0.6054 -0.0758
   16MOL   H136 4366   5.124   1.399   5.216 -1.0473 -0.3121 -0.8617
   16MOL   H137 4367   4.984   1.217   5.212 -1.1407  0.3111 -0.5666
   16MOL   H138 4368   4.751   1.109   5.498 -1.6408  0.7213 -0.5584
   16MOL   H139 4369   4.803   1.106   5.194  1.3731 -0.2002  0.4415
   16MOL   H140 4370   4.852   1.276   5.619 -1.9055  0.3748 -1.4768
   16MOL   H141 4371   5.044   1.450   5.644 -0.0367  0.5887 -0.7947
   16MOL   C142 4372   4.656   0.964   5.275 -0.3000 -0.0058 -0.4677
   16MOL   C143 4373   4.655   0.878   5.159 -0.7227 -0.5894  0.4734
   16MOL   C144 4374   4.579   0.761   5.156 -0.3681 -0.2085 -0.0177
   16MOL   C145 4375   4.503   0.722   5.263 -0.1504  0.4451 -0.0023
   16MOL   C146 4376   4.442   0.584   5.272 -0.8195 -0.1572  0.1382
   16MOL   C147 4377   4.463   0.491   5.183 -0.5155 -0.5321 -0.0124
   16MOL   C148 4378   4.499   0.802   5.380 -0.5070  0.2933  0.2223
   16MOL   C149 4379   4.580   0.920   5.386 -0.1559 -0.3291 -0.4111
   16MOL   H150 4380   4.711   0.902   5.069 -1.2456  0.8200  0.5128
   16MOL   H151 4381   4.583   0.709   5.061 -0.1753 -1.1388  0.5053
   16MOL   H152 4382   4.378   0.568   5.357 -0.4123  1.6638  0.8142
   16MOL   H153 4383   4.520   0.510   5.093  0.9264 -1.2690  0.7276
   16MOL   H154 4384   4.443   0.758   5.461  0.2058 -0.0959  0.5103
   16MOL   H155 4385   4.586   0.975   5.479  3.0601  0.6685 -1.1449
   16MOL   C156 4386   4.431   0.353   5.202  0.3665 -0.0710  0.5652
   16MOL   C157 4387   4.370   0.299   5.319  0.2465  0.6502  0.6047
   16MOL   C158 4388   4.319   0.168   5.319  0.0248  0.3877  0.3444
   16MOL   C159 4389   4.339   0.078   5.209  0.3790  0.1152  0.3711
   16MOL   C160 4390   4.307   8.079   5.214 -0.1282  0.5502  0.2576
   16MOL   C161 4391   4.229   8.026   5.310  0.5516  0.6117 -0.5458
   16MOL   C162 4392   4.383   0.134   5.090  0.0271 -0.1780  0.8031
   16MOL   C163 4393   4.438   0.264   5.091 -0.5486 -0.5519 -0.1186
   16MOL   H164 4394   4.359   0.365   5.403 -1.6678  1.5194 -0.3034
   16MOL   H165 4395   4.274   0.132   5.410 -1.6310 -0.4333 -0.7787
   16MOL   H166 4396   4.351   8.015   5.139  2.4225 -0.4989  2.5385
   16MOL   H167 4397   4.174   8.088   5.380 -1.8237 -1.4612 -0.5116
   16MOL   H168 4398   4.383   0.085   4.994 -1.2235  3.7774 -1.3197
   16MOL   H169 4399   4.467   0.304   4.995 -0.2327 -2.6653 -0.9426
   16MOL   C170 4400   4.213   7.883   5.333  0.1830  0.3976 -0.2923
   16MOL   C171 4401   4.313   7.789   5.302  0.0829  0.4030  0.6481
   16MOL   C172 4402   4.312   7.656   5.358  0.1515 -0.1875 -0.3596
   16MOL   C173 4403   4.201   7.611   5.436 -0.4576 -0.8711  0.1124
   16MOL   C174 4404   4.201   7.486   5.500 -0.1689 -0.2406 -0.6199
   16MOL   C175 4405   4.116   7.448   5.599 -0.5942 -0.0097 -0.4541
   16MOL   C176 4406   4.091   7.701   5.442  0.8388  0.5493  0.1189
   16MOL   C177 4407   4.102   7.836   5.403 -0.7205 -0.0603 -0.4978
   16MOL   H178 4408   4.397   7.821   5.242  0.6634 -1.0067  0.7069
   16MOL   H179 4409   4.402   7.599   5.343  1.6305  1.2454  2.4996
   16MOL   H180 4410   4.271   7.413   5.462 -0.0495  0.8008 -2.4663
   16MOL   H181 4411   4.043   7.520   5.631  0.3976  0.2142  1.3517
   16MOL   H182 4412   3.997   7.675   5.490  1.1589 -0.9909 -0.0569
   16MOL   H183 4413   4.015   7.898   5.419 -1.1887 -0.6778 -0.6328
   16MOL   C184 4414   4.116   7.323   5.665 -0.4008  0.9629  0.2080
   16MOL   C185 4415   4.054   7.316   5.785 -0.0359  0.1290 -0.2929
   16MOL   C186 4416   4.044   7.199   5.867  0.3741  0.3171  0.1811
   16MOL   C187 4417   4.111   7.085   5.824  0.5154  0.5011 -0.0578
   16MOL   C188 4418   4.094   6.961   5.898 -0.9379 -0.1415  0.0745
   16MOL   C189 4419   4.130   6.836   5.860  0.5791 -0.4944 -0.3425
   16MOL   C190 4420   4.169   7.086   5.695 -0.5479  0.7442 -0.1492
   16MOL   C191 4421   4.179   7.206   5.623 -0.0554 -0.3374 -0.1673
   16MOL   H192 4422   4.012   7.407   5.825 -0.3680  0.0388 -0.4356
   16MOL   H193 4423   3.990   7.202   5.961  0.6530  1.1103  0.3253
   16MOL   H194 4424   4.049   6.982   5.994  0.4154  0.7130  0.5433
   16MOL   H195 4425   4.169   6.807   5.763 -0.5883  0.4115 -1.0956
   16MOL   H196 4426   4.212   6.996   5.654  0.4677  0.0538  2.3207
   16MOL   H197 4427   4.242   7.196   5.536 -1.1675 -1.2672 -0.8685
   16MOL   C198 4428   4.122   6.712   5.946  0.8877  0.1553 -0.2616
   16MOL   C199 4429   4.149   6.584   5.891 -0.1062  0.0631 -0.2757
   16MOL   C200 4430   4.142   6.474   5.973 -0.6723 -0.8174  0.7761
   16MOL   C201 4431   4.094   6.492   6.105  0.6592  0.3988 -0.0069
   16MOL   C202 4432   4.080   6.375   6.189  0.5672  0.1712 -0.1486
   16MOL   C203 4433   4.112   6.246   6.164 -0.7220  0.1976  0.1170
   16MOL   C204 4434   4.061   6.617   6.163 -0.2221  0.2984 -0.2159
   16MOL   C205 4435   4.076   6.728   6.080 -0.1802  0.2052 -0.3507
   16MOL   H206 4436   4.177   6.575   5.787 -1.6880  0.6379 -0.7753
   16MOL   H207 4437   4.173   6.384   5.921 -0.7733  0.4539 -1.5171
   16MOL   H208 4438   4.050   6.395   6.291  0.1874 -0.5221 -0.1211
   16MOL   H209 4439   4.153   6.222   6.066  0.9670  0.5765  0.7078
   16MOL   H210 4440   4.030   6.615   6.267 -4.9877 -2.6999 -1.5470
   16MOL   H211 4441   4.058   6.823   6.129 -0.8266 -0.0121 -0.1618
   16MOL   C212 4442   4.098   6.126   6.248  0.3175 -0.1652 -0.4175
   16MOL   C213 4443   4.023   6.131   6.368 -0.7013 -0.5102  0.7429
   16MOL   C214 4444   4.003   6.020   6.443 -0.4298 -0.1009  0.0538
   16MOL   C215 4445   4.074   5.898   6.419  0.9469  0.1744  0.0331
   16MOL   C216 4446   4.058   5.793   6.514  0.4125  0.1314  0.4041
   16MOL   C217 4447   4.082   5.666   6.468 -0.9875 -0.3721  0.7721
   16MOL   C218 4448   4.157   5.895   6.303 -0.9501  0.4922 -0.0669
   16MOL   C219 4449   4.173   6.006   6.224  0.6100 -0.9217  0.0197
   16MOL   H220 4450   3.965   6.217   6.398 -0.8211 -0.3015 -0.0691
   16MOL   H221 4451   3.942   6.017   6.532  2.0164 -0.9336  1.7481
   16MOL   H222 4452   4.023   5.814   6.614  3.2227  1.8033  1.1106
   16MOL   H223 4453   4.118   5.647   6.368  0.2960 -2.0305  1.5193
   16MOL   H224 4454   4.218   5.811   6.271 -1.1687  0.8103 -1.3678
   16MOL   H225 4455   4.233   5.988   6.137 -0.2406 -0.1123 -0.7439
   16MOL   C226 4456   4.070   5.544   6.554  0.1077  0.2512 -0.6515
   16MOL   C227 4457   4.028   5.553   6.686  0.0095 -0.3651 -0.2583
   16MOL   C228 4458   4.014   5.433   6.766 -0.3169 -0.4900 -0.2304
   16MOL   C229 4459   4.055   5.307   6.713  0.4360  0.1395  0.4951
   16MOL   C230 4460   4.033   5.197   6.815  0.6556  0.0602  0.0686
   16MOL   C231 4461   4.084   5.071   6.799  0.3545  0.7986 -1.0164
   16MOL   C232 4462   4.088   5.300   6.576  0.1051  0.4129  0.2306
   16MOL   C233 4463   4.096   5.415   6.497 -0.1851  0.1020 -0.6295
   16MOL   H234 4464   4.007   5.649   6.732  2.2691  0.3366 -0.6741
   16MOL   H235 4465   3.979   5.445   6.868  1.1615  1.0679  0.1158
   16MOL   H236 4466   3.975   5.221   6.903  1.1006  2.9795 -0.3607
   16MOL   H237 4467   4.121   5.051   6.699  3.6267 -2.8223  0.8102
   16MOL   H238 4468   4.103   5.208   6.522 -2.6333 -0.0299  0.1459
   16MOL   H239 4469   4.126   5.421   6.393 -1.9101  1.8311 -1.0646
   16MOL   C240 4470   4.071   4.964   6.904  0.4558 -0.0613 -0.4456
   16MOL   C241 4471   3.980   4.968   7.014 -0.0932 -0.7971  0.4156
   16MOL   C242 4472   3.981   4.885   7.125 -0.4023 -0.9637  0.2384
   16MOL   C243 4473   4.080   4.788   7.129  0.7169  0.7777 -0.2750
   16MOL   C244 4474   4.077   4.701   7.244  0.5500  0.4281  0.0206
   16MOL   C245 4475   4.147   4.586   7.255  0.5972 -0.1877  0.1917
   16MOL   C246 4476   4.170   4.779   7.023  0.2361 -0.1008  0.2269
   16MOL   C247 4477   4.168   4.866   6.915 -0.2031  0.1137  0.5457
   16MOL   H248 4478   3.899   5.040   7.018 -1.1583 -1.9334 -0.2094
   16MOL   H249 4479   3.909   4.901   7.204 -0.0990 -0.7271  0.4681
   16MOL   H250 4480   4.015   4.724   7.330  1.6387 -3.3253  1.8859
   16MOL   H251 4481   4.214   4.558   7.176  0.0290 -0.8294 -0.0638
   16MOL   H252 4482   4.246   4.702   7.022  1.6004  1.2397 -1.0154
   16MOL   H253 4483   4.237   4.869   6.832  0.4463 -0.2367  1.0769
   16MOL   C254 4484   4.139   4.483   7.362  0.7988 -0.0895 -0.8874
   16MOL   C255 4485   4.255   4.407   7.396 -0.1779  0.2199 -0.4796
   16MOL   C256 4486   4.246   4.314   7.503  0.0913  0.5759  0.2518
   16MOL   C257 4487   4.134   4.317   7.595  0.1387  0.2890 -0.5687
   16MOL   C258 4488   4.145   4.241   7.721  0.0689 -0.2867 -0.2558
   16MOL   C259 4489   4.115   4.280   7.845 -0.2804  0.1313  0.1217
   16MOL   C260 4490   4.033   4.404   7.564 -0.6107 -0.6762 -0.0425
   16MOL   C261 4491   4.033   4.484   7.450  0.3481 -0.5476  0.1675
   16MOL   H262 4492   4.347   4.427   7.344 -1.1536  0.3272 -2.1815
   16MOL   H263 4493   4.329   4.253   7.533 -1.6143 -2.2187 -0.5605
   16MOL   H264 4494   4.174   4.139   7.700 -1.2335 -1.0996  1.7963
   16MOL   H265 4495   4.122   4.201   7.918 -1.4112 -0.5299 -0.4569
   16MOL   H266 4496   3.952   4.408   7.635 -0.9821 -0.3719 -0.4802
   16MOL   H267 4497   3.948   4.549   7.431 -0.5810 -1.9741 -0.6061
   16MOL   C268 4498   4.082   4.421   7.894  0.4004  0.4652  0.2448
   16MOL   C269 4499   4.134   4.532   7.827 -0.7503  0.2894 -0.0785
   16MOL   C270 4500   4.083   4.665   7.854 -0.7135 -0.1731 -0.3477
   16MOL   C271 4501   3.991   4.678   7.959  0.1551 -0.1197  0.2158
   16MOL   C272 4502   3.942   4.817   7.982 -0.0128 -0.6546 -0.1195
   16MOL   C273 4503   3.845   4.852   8.066 -0.1586 -0.7200  1.4971
   16MOL   C274 4504   3.941   4.564   8.024 -0.2184 -0.4413 -0.3338
   16MOL   C275 4505   3.990   4.435   8.000  0.8360 -0.6076  0.2839
   16MOL   H276 4506   4.199   4.522   7.742  0.4924  1.2349  0.7335
   16MOL   H277 4507   4.130   4.741   7.794 -0.1006  0.6293  1.1212
   16MOL   H278 4508   3.998   4.890   7.925  0.3450  0.3054  1.4243
   16MOL   H279 4509   3.788   4.778   8.121 -1.8521 -0.7844 -0.2929
   16MOL   H280 4510   3.871   4.580   8.105  0.7402 -2.2046  0.8945
   16MOL   H281 4511   3.941   4.353   8.051 -2.0349  0.9664  0.1519
   16MOL   H282 4512   3.825   4.958   8.066 -0.0730 -0.7043  0.4348
   17MOL     C1 4513   5.021   5.162   7.487  0.2821  0.0156  0.2742
   17MOL     C2 4514   4.940   5.234   7.399  0.9845 -0.4789  0.6024
   17MOL     C3 4515   4.816   5.278   7.439 -0.3736 -0.1099 -0.2722
   17MOL     C4 4516   4.754   5.227   7.554  0.3771  0.4693  0.3132
   17MOL     C5 4517   4.608   5.250   7.575  0.2898 -0.4468 -0.3737
   17MOL     C6 4518   4.528   5.170   7.644 -0.3248 -0.1615  0.7040
   17MOL     C7 4519   4.829   5.143   7.634 -0.0952  0.0358  0.4959
   17MOL     C8 4520   4.964   5.121   7.607  0.0742  0.3472 -0.5023
   17MOL     H9 4521   4.980   5.262   7.302 -0.3011  0.8726  0.4528
   17MOL    H10 4522   4.745   5.342   7.388 -0.7501 -1.2334 -1.1879
   17MOL    H11 4523   4.567   5.342   7.536  1.4713  0.7223  1.1016
   17MOL    H12 4524   4.573   5.081   7.686  3.4959  1.8247  1.0689
   17MOL    H13 4525   4.780   5.100   7.720  0.2369 -1.6411 -0.1330
   17MOL    H14 4526   5.023   5.060   7.674  0.6713  0.4542 -0.9267
   17MOL    H15 4527   5.122   5.138   7.458  1.3442  0.1304  3.6163
   17MOL    C16 4528   4.389   5.195   7.676 -0.0805 -0.4421 -0.4009
   17MOL    C17 4529   4.323   5.318   7.652 -0.3792  0.2666 -0.3194
   17MOL    C18 4530   4.191   5.342   7.694 -0.3445 -0.4258  0.6085
   17MOL    C19 4531   4.115   5.234   7.759  0.2579 -0.2135  0.5674
   17MOL    C20 4532   3.975   5.250   7.803  0.1165  0.8040 -0.0029
   17MOL    C21 4533   3.886   5.150   7.818  0.3972  0.1832 -0.7511
   17MOL    C22 4534   4.180   5.111   7.773 -0.2440 -0.0971 -0.2857
   17MOL    C23 4535   4.317   5.095   7.740 -0.0560  0.5106 -0.1270
   17MOL    H24 4536   4.373   5.404   7.609  0.2790 -1.1102 -2.3437
   17MOL    H25 4537   4.149   5.440   7.676  1.1394  0.1998  0.4397
   17MOL    H26 4538   3.949   5.351   7.832  2.9896  1.7122 -0.3370
   17MOL    H27 4539   3.910   5.047   7.794 -0.3450 -0.4325  0.9735
   17MOL    H28 4540   4.131   5.019   7.802 -0.9485 -0.7060 -3.3086
   17MOL    H29 4541   4.356   5.000   7.771 -2.3939 -0.8938 -1.3500
   17MOL    C30 4542   3.747   5.165   7.867  0.0240 -0.1184  0.3093
   17MOL    C31 4543   3.697   5.283   7.928 -1.2805  0.0390 -0.0487
   17MOL    C32 4544   3.567   5.296   7.970  0.6749  0.1221 -0.9576
   17MOL    C33 4545   3.478   5.189   7.957 -0.0714  0.2944  0.2049
   17MOL    C34 4546   3.345   5.210   8.001  0.3075 -0.3247 -0.2652
   17MOL    C35 4547   3.256   5.121   8.058 -0.1164 -0.3074  0.0558
   17MOL    C36 4548   3.530   5.067   7.910  0.0904 -0.6598 -0.5032
   17MOL    C37 4549   3.664   5.054   7.872  0.3334  0.1512  0.2773
   17MOL    H38 4550   3.762   5.366   7.951  0.5713 -0.5459 -2.9844
   17MOL    H39 4551   3.533   5.383   8.025 -0.4424 -1.0682  0.2610
   17MOL    H40 4552   3.304   5.307   7.978  1.4437 -0.4019 -2.7646
   17MOL    H41 4553   3.292   5.022   8.080 -0.6176 -0.3841  0.5299
   17MOL    H42 4554   3.463   4.982   7.912 -0.9409  0.1381  4.2079
   17MOL    H43 4555   3.702   4.957   7.845 -2.0715 -0.5056 -0.9164
   17MOL    C44 4556   3.118   5.155   8.095 -0.0493 -0.2372  0.0374
   17MOL    C45 4557   3.065   5.107   0.075 -0.9383  0.7704  0.2744
   17MOL    C46 4558   2.933   5.132   0.112  0.2195 -0.5847  0.3713
   17MOL    C47 4559   2.852   5.221   0.040  0.3858 -0.5786  0.9722
   17MOL    C48 4560   2.714   5.258   0.079 -0.2005 -0.3814  0.4980
   17MOL    C49 4561   2.640   5.206   0.180 -0.1924 -0.2637  0.4909
   17MOL    C50 4562   2.906   5.269   8.062  0.2826  0.3089  0.5207
   17MOL    C51 4563   3.042   5.241   8.021 -0.2614 -0.0205 -0.1958
   17MOL    H52 4564   3.127   5.038   0.131 -0.3010 -0.0684 -1.4125
   17MOL    H53 4565   2.889   5.083   0.198  0.5117 -0.5191  0.5605
   17MOL    H54 4566   2.669   5.343   0.030 -0.4509  0.7023  2.5321
   17MOL    H55 4567   2.669   5.119   0.237  0.1421  0.7746  1.9338
   17MOL    H56 4568   2.857   5.327   7.986 -0.5010  2.8845  2.9111
   17MOL    H57 4569   3.072   5.288   7.928 -2.1521  0.6832 -0.4574
   17MOL    C58 4570   2.511   5.253   0.219  0.6851 -0.0168 -0.5693
   17MOL    C59 4571   2.490   5.394   0.210 -0.3522 -0.6921 -0.5493
   17MOL    C60 4572   2.361   5.451   0.236 -0.7731 -0.4026 -0.1377
   17MOL    C61 4573   2.253   5.361   0.268 -0.4374  0.8739  0.1899
   17MOL    C62 4574   2.121   5.419   0.268  0.0754  0.1754 -0.3646
   17MOL    C63 4575   2.000   5.355   0.272  0.3157  0.0913 -0.0764
   17MOL    C64 4576   2.276   5.217   0.291  0.2928 -0.4646  0.8426
   17MOL    C65 4577   2.405   5.167   0.262 -0.3534  0.3295 -0.3916
   17MOL    H66 4578   2.573   5.453   0.174 -0.4965 -0.9344 -1.2894
   17MOL    H67 4579   2.331   5.546   0.194 -3.3570 -1.6899 -1.3123
   17MOL    H68 4580   2.137   5.524   0.250  0.5664  0.0557 -0.6545
   17MOL    H69 4581   1.977   5.251   0.288  1.4711 -0.0804  0.5602
   17MOL    H70 4582   2.199   5.151   0.328 -1.2442  0.8969  0.1329
   17MOL    H71 4583   2.425   5.062   0.246  1.9222  0.9096 -1.6083
   17MOL    C72 4584   1.872   5.431   0.266 -0.2663 -0.2353  0.0767
   17MOL    C73 4585   1.873   5.567   0.223 -0.4924  0.4420  0.1949
   17MOL    C74 4586   1.756   5.644   0.221 -0.9530 -0.1681  0.2345
   17MOL    C75 4587   1.629   5.578   0.243  1.1247  0.1534  0.2062
   17MOL    C76 4588   1.503   5.648   0.218  0.6610 -0.3203  0.2642
   17MOL    C77 4589   1.375   5.599   0.214 -0.0293  0.6444  0.0039
   17MOL    C78 4590   1.626   5.444   0.287  0.2843 -0.2935 -0.5870
   17MOL    C79 4591   1.750   5.374   0.306  0.2658  0.0477 -0.6770
   17MOL    H80 4592   1.958   5.624   0.188  0.1354 -0.8447 -0.3739
   17MOL    H81 4593   1.768   5.745   0.184 -0.0338 -0.3675 -0.0378
   17MOL    H82 4594   1.515   5.755   0.207 -0.3813 -0.0223  1.8340
   17MOL    H83 4595   1.356   5.494   0.229 -2.0008  1.0464  0.4556
   17MOL    H84 4596   1.528   5.402   0.305  0.5291 -0.2159  0.9192
   17MOL    H85 4597   1.738   5.270   0.335 -0.4691  0.7450  1.5818
   17MOL    C86 4598   1.246   5.680   0.195  0.6052  0.6604 -0.6303
   17MOL    C87 4599   1.123   5.624   0.204 -0.7699  0.8676 -0.2641
   17MOL    C88 4600   1.006   5.703   0.176 -0.2726  0.2616  0.8821
   17MOL    C89 4601   1.016   5.835   0.122 -0.4641 -0.3828 -0.0137
   17MOL    C90 4602   0.898   5.901   0.073  0.5066 -0.5111  0.6368
   17MOL    C91 4603   0.889   6.023   0.011 -0.5820  0.1560  0.3495
   17MOL    C92 4604   1.142   5.893   0.125 -0.2281 -0.2825  0.5152
   17MOL    C93 4605   1.255   5.816   0.161  0.1963 -0.2585 -0.4840
   17MOL    H94 4606   1.110   5.521   0.235  3.2185  0.5275  0.5844
   17MOL    H95 4607   0.911   5.656   0.196  0.0580 -0.5366  0.5995
   17MOL    H96 4608   0.812   5.837   0.082  0.3215 -0.4995 -0.9216
   17MOL    H97 4609   0.977   6.085   0.013  0.6198 -1.4835 -0.7679
   17MOL    H98 4610   1.167   5.989   0.081  0.9251 -0.6692  0.3015
   17MOL    H99 4611   1.349   5.866   0.148 -0.0939  0.2349 -0.6864
   17MOL   C100 4612   0.764   6.083   8.100 -0.5447 -0.6605 -0.1990
   17MOL   C101 4613   0.660   6.008   8.054 -0.3202 -0.3335 -0.5514
   17MOL   C102 4614   0.557   6.062   7.971 -0.3569 -0.7183  0.2244
   17MOL   C103 4615   0.558   6.204   7.948 -0.3666 -0.5151 -0.4114
   17MOL   C104 4616   0.450   6.260   7.865  0.3392  0.7113  0.3056
   17MOL   C105 4617   0.437   6.391   7.842 -0.3797 -0.0713 -0.3894
   17MOL   C106 4618   0.669   6.278   8.002 -0.1933 -0.2512 -0.1637
   17MOL   C107 4619   0.766   6.218   8.078 -0.4519  0.0713  0.0175
   17MOL   H108 4620   0.664   5.902   8.076 -0.6455 -0.6737 -2.0443
   17MOL   H109 4621   0.478   5.999   7.933 -0.4141  0.9743 -2.5648
   17MOL   H110 4622   0.383   6.186   7.822  1.6423 -0.5710  0.4428
   17MOL   H111 4623   0.497   6.468   7.887 -2.0827  0.7352  0.5552
   17MOL   H112 4624   0.685   6.378   7.964  1.3386 -0.3488  0.2149
   17MOL   H113 4625   0.851   6.279   8.104 -1.4015  0.5831  2.0627
   17MOL   C114 4626   0.343   6.459   7.747 -0.0111  0.8132  1.1022
   17MOL   C115 4627   0.277   6.388   7.638 -0.3239  0.1595  0.4252
   17MOL   C116 4628   0.175   6.442   7.563 -0.4879 -0.3776 -0.2505
   17MOL   C117 4629   0.137   6.582   7.591  0.8016 -0.4209 -1.0835
   17MOL   C118 4630   0.043   6.647   7.499 -0.4407 -0.6405  0.1042
   17MOL   C119 4631   0.013   6.775   7.492 -0.0309 -0.4118 -0.2151
   17MOL   C120 4632   0.208   6.654   7.689 -0.2155 -0.1345 -0.3804
   17MOL   C121 4633   0.307   6.591   7.771  0.0389  0.4319  0.4266
   17MOL   H122 4634   0.294   6.281   7.627 -0.4289  0.3769 -1.9066
   17MOL   H123 4635   0.112   6.384   7.498  0.3354 -3.5894  1.6732
   17MOL   H124 4636   8.130   6.577   7.439 -2.2178  0.7862  0.0949
   17MOL   H125 4637   0.055   6.850   7.557 -0.1558  0.4941 -1.1691
   17MOL   H126 4638   0.176   6.751   7.725 -0.0128  1.0883 -3.3280
   17MOL   H127 4639   0.361   6.644   7.848  0.0752  1.5343 -0.3397
   17MOL   C128 4640   8.074   6.834   7.385 -0.1644 -0.9000  0.5730
   17MOL   C129 4641   8.033   6.763   7.274 -0.1954 -0.1667  0.5817
   17MOL   C130 4642   7.968   6.826   7.164  0.1798 -0.1077  0.1061
   17MOL   C131 4643   7.940   6.963   7.168  0.2747  0.5298 -0.0861
   17MOL   C132 4644   7.889   7.019   7.038  0.4529 -0.1816 -0.2619
   17MOL   C133 4645   7.892   7.153   7.018 -0.0028 -0.4242  0.0928
   17MOL   C134 4646   7.976   7.036   7.283 -0.1114  0.0305 -0.6346
   17MOL   C135 4647   8.047   6.968   7.387 -0.8773 -0.0930  0.4136
   17MOL   H136 4648   8.070   6.662   7.259 -1.1474 -0.3583 -0.5153
   17MOL   H137 4649   7.941   6.764   7.080 -1.2782 -1.9159  1.8573
   17MOL   H138 4650   7.848   6.958   6.959 -1.1669 -0.3983  0.7306
   17MOL   H139 4651   7.942   7.218   7.088  0.3148 -1.4231  0.8050
   17MOL   H140 4652   7.957   7.142   7.293 -0.8720 -0.1685  0.0735
   17MOL   H141 4653   8.094   7.027   7.464  0.8107 -0.3219 -0.4182
   17MOL   C142 4654   7.838   7.209   6.890  0.0652 -0.3954  0.3683
   17MOL   C143 4655   7.749   7.147   6.802 -0.2514  0.3295 -0.0175
   17MOL   C144 4656   7.730   7.191   6.672 -0.0215 -0.4521 -0.0854
   17MOL   C145 4657   7.790   7.308   6.624  0.6081  0.4805 -0.3694
   17MOL   C146 4658   7.773   7.357   6.488 -0.4063 -0.6386  0.0094
   17MOL   C147 4659   7.703   7.300   6.390  0.0882  0.1596  0.3499
   17MOL   C148 4660   7.871   7.384   6.721 -0.0260 -0.0054  0.3949
   17MOL   C149 4661   7.893   7.332   6.850 -0.0812 -0.2570  0.0485
   17MOL   H150 4662   7.693   7.061   6.835  0.3682 -0.1857 -0.2867
   17MOL   H151 4663   7.667   7.130   6.610 -1.6421 -1.3156  2.3213
   17MOL   H152 4664   7.834   7.442   6.461 -0.2571 -1.1128 -1.1674
   17MOL   H153 4665   7.636   7.216   6.405 -0.1687  0.2575 -0.2185
   17MOL   H154 4666   7.915   7.477   6.688 -1.1325 -0.4976 -2.6823
   17MOL   H155 4667   7.963   7.384   6.914 -1.5536  1.9766 -0.1237
   17MOL   C156 4668   7.705   7.348   6.250 -0.1306 -0.0689 -0.4400
   17MOL   C157 4669   7.715   7.489   6.220  0.5592  0.0212  0.0565
   17MOL   C158 4670   7.751   7.536   6.090  0.1522 -0.1535 -0.0118
   17MOL   C159 4671   7.785   7.442   5.986  0.4081  1.1487 -0.0350
   17MOL   C160 4672   7.863   7.487   5.868 -0.3177  0.1108  0.2092
   17MOL   C161 4673   7.950   7.407   5.801 -0.1127 -0.5470 -0.6023
   17MOL   C162 4674   7.768   7.303   6.011 -0.4502 -0.6200  0.1733
   17MOL   C163 4675   7.728   7.257   6.145 -0.6008 -0.2114  0.2826
   17MOL   H164 4676   7.705   7.554   6.305  2.3495  0.7820 -0.2958
   17MOL   H165 4677   7.760   7.642   6.074  0.0306 -0.2601 -0.7840
   17MOL   H166 4678   7.840   7.589   5.842 -0.6559 -0.3594 -1.4412
   17MOL   H167 4679   7.952   7.301   5.823 -1.6314 -0.2038  1.2163
   17MOL   H168 4680   7.791   7.232   5.933  0.7999  0.1110 -0.1384
   17MOL   H169 4681   7.719   7.154   6.174 -0.5489  0.0288  1.1765
   17MOL   C170 4682   8.053   7.444   5.694  0.6554  0.0081 -0.1573
   17MOL   C171 4683   8.114   7.339   5.623 -0.0247  0.3076  0.3925
   17MOL   C172 4684   0.088   7.363   5.550 -0.8181  0.0763 -0.0754
   17MOL   C173 4685   0.142   7.488   5.532 -0.6578 -0.0034 -0.2496
   17MOL   C174 4686   0.274   7.523   5.476  0.7563 -0.1658  0.1906
   17MOL   C175 4687   0.362   7.431   5.436 -0.1796  0.8289 -0.2734
   17MOL   C176 4688   0.071   7.595   5.594  0.8157 -0.6394  0.0992
   17MOL   C177 4689   8.102   7.574   5.682 -0.3658  0.6110 -0.3660
   17MOL   H178 4690   8.088   7.236   5.642 -4.8378  1.6058  1.4251
   17MOL   H179 4691   0.129   7.268   5.520  0.3993  0.7310 -0.5317
   17MOL   H180 4692   0.300   7.628   5.470 -0.2008  0.0021 -1.2241
   17MOL   H181 4693   0.342   7.325   5.441  1.6172  0.4404 -1.0202
   17MOL   H182 4694   0.110   7.696   5.598  0.8989 -0.7543  4.0782
   17MOL   H183 4695   8.067   7.658   5.739  2.0543  2.3064 -1.3146
   17MOL   C184 4696   0.498   7.448   5.385 -0.8638  0.8054  0.5033
   17MOL   C185 4697   0.589   7.335   5.406  0.0969 -0.0259  0.1697
   17MOL   C186 4698   0.728   7.351   5.382  0.2542 -0.0105 -0.5628
   17MOL   C187 4699   0.774   7.469   5.309 -0.5853 -0.6101  0.1641
   17MOL   C188 4700   0.920   7.479   5.275  0.1911  0.0623  0.2392
   17MOL   C189 4701   0.989   7.577   5.213  0.0446  0.8110  0.2028
   17MOL   C190 4702   0.683   7.579   5.288  0.3099 -0.2153 -0.1082
   17MOL   C191 4703   0.549   7.564   5.321  0.0546 -0.2929 -0.4813
   17MOL   H192 4704   0.550   7.255   5.468  0.4904 -0.0614  0.3749
   17MOL   H193 4705   0.803   7.278   5.408  1.4832  1.4481  0.0354
   17MOL   H194 4706   0.972   7.391   5.308  0.8874  1.9285  4.3572
   17MOL   H195 4707   0.942   7.667   5.176 -1.0098  0.6059  0.9891
   17MOL   H196 4708   0.717   7.667   5.236  1.8282  0.1507  1.4662
   17MOL   H197 4709   0.474   7.640   5.301 -1.8721 -1.5147  1.8453
   17MOL   C198 4710   1.138   7.577   5.183 -0.1662 -0.1223  0.5861
   17MOL   C199 4711   1.219   7.469   5.218  0.5427  0.6315  0.1382
   17MOL   C200 4712   1.354   7.465   5.186 -0.3408 -0.3956 -0.4200
   17MOL   C201 4713   1.406   7.575   5.119  0.1282 -0.4378 -0.3702
   17MOL   C202 4714   1.554   7.570   5.094  0.4620 -0.1114 -0.2581
   17MOL   C203 4715   1.620   7.683   5.085  0.2148 -0.1899 -0.4350
   17MOL   C204 4716   1.322   7.683   5.073 -0.9705 -0.2616 -0.4843
   17MOL   C205 4717   1.187   7.687   5.110  0.3167  0.2043  0.0674
   17MOL   H206 4718   1.173   7.385   5.269 -0.1527  1.9438  1.7107
   17MOL   H207 4719   1.414   7.383   5.221  0.7175  0.7564  0.5219
   17MOL   H208 4720   1.595   7.471   5.087 -0.9965 -0.6609 -1.3878
   17MOL   H209 4721   1.561   7.773   5.095 -2.7150 -1.9352 -1.3540
   17MOL   H210 4722   1.369   7.766   5.022 -1.3534  1.1746  1.4186
   17MOL   H211 4723   1.130   7.769   5.070 -3.3383 -2.1706  0.2032
   17MOL   C212 4724   1.758   7.702   5.067 -0.2019 -0.6745 -0.9767
   17MOL   C213 4725   1.843   7.599   5.019 -0.2098 -0.3857 -0.0400
   17MOL   C214 4726   1.984   7.624   4.999 -0.5363 -0.1363 -0.3129
   17MOL   C215 4727   2.035   7.746   5.017  0.1186 -0.0036  0.0050
   17MOL   C216 4728   2.174   7.771   4.997  1.3516 -0.3194  0.4488
   17MOL   C217 4729   2.252   7.872   5.043 -0.8757  0.4334 -0.2770
   17MOL   C218 4730   1.951   7.849   5.061  0.3104  0.2842 -0.1203
   17MOL   C219 4731   1.815   7.829   5.086  0.2334 -0.4365  0.1669
   17MOL   H220 4732   1.801   7.499   5.014 -0.4361 -0.3160  0.4036
   17MOL   H221 4733   2.048   7.544   4.965 -1.0995 -0.3480 -0.8855
   17MOL   H222 4734   2.218   7.703   4.926  1.8654  0.5659 -0.0973
   17MOL   H223 4735   2.211   7.950   5.106  1.8032 -0.0794  2.1777
   17MOL   H224 4736   1.980   7.950   5.086 -0.7264  0.8511 -1.1418
   17MOL   H225 4737   1.752   7.915   5.103  2.0003  1.4018 -2.2731
   17MOL   C226 4738   2.398   7.891   5.012  0.6229  0.2398 -0.1578
   17MOL   C227 4739   2.469   7.814   4.917  0.3633 -0.1813 -0.6586
   17MOL   C228 4740   2.604   7.842   4.895  0.1058 -0.0283  0.0875
   17MOL   C229 4741   2.672   7.943   4.967  0.5836 -0.4346 -0.7050
   17MOL   C230 4742   2.815   7.964   4.945 -0.0843 -0.0812  0.1372
   17MOL   C231 4743   2.894   7.896   4.863  0.0591  0.4927  0.1493
   17MOL   C232 4744   2.602   8.020   5.062  0.3401  0.3045 -0.3663
   17MOL   C233 4745   2.468   7.984   5.092  1.0016  0.1147  0.5077
   17MOL   H234 4746   2.431   7.731   4.859 -2.2637  1.9664 -2.1073
   17MOL   H235 4747   2.656   7.779   4.825 -0.7402 -1.2095  0.5174
   17MOL   H236 4748   2.855   8.050   4.997  1.0959  0.0137 -0.9065
   17MOL   H237 4749   2.862   7.815   4.800 -0.6358  1.8311 -1.2460
   17MOL   H238 4750   2.651   8.108   5.100  2.5151 -0.6261 -0.9499
   17MOL   H239 4751   2.414   8.048   5.161 -1.8514  0.8084 -2.2333
   17MOL   C240 4752   3.034   7.914   4.838 -0.8827  0.2117  0.6427
   17MOL   C241 4753   3.091   8.041   4.835 -0.0857 -0.0402  0.2666
   17MOL   C242 4754   3.225   8.058   4.790 -0.1383 -0.0852 -0.3604
   17MOL   C243 4755   3.307   7.943   4.765 -0.5544  0.1429  0.1593
   17MOL   C244 4756   3.443   7.956   4.716 -0.0553  0.8580 -0.4156
   17MOL   C245 4757   3.537   7.861   4.710 -0.6853  0.0841 -0.2540
   17MOL   C246 4758   3.255   7.813   4.788 -0.1513 -0.0765  0.0561
   17MOL   C247 4759   3.116   7.800   4.819 -0.6407 -0.2435 -0.2275
   17MOL   H248 4760   3.028   8.128   4.851 -0.8256 -0.2748 -1.2573
   17MOL   H249 4761   3.251   0.017   4.776 -0.0847  0.0644  0.8113
   17MOL   H250 4762   3.462   8.054   4.675 -1.2667  1.3948  0.2773
   17MOL   H251 4763   3.512   7.767   4.756  0.5348  0.7224  1.7761
   17MOL   H252 4764   3.314   7.726   4.764  0.6513  0.4887 -0.0543
   17MOL   H253 4765   3.067   7.704   4.823  0.4587 -1.1626 -5.1224
   17MOL   C254 4766   3.676   7.890   4.641  0.0528  0.4835  0.0768
   17MOL   C255 4767   3.710   8.022   4.600  0.5099 -0.1456 -0.0729
   17MOL   C256 4768   3.827   8.041   4.532 -0.0677 -0.0643 -0.0883
   17MOL   C257 4769   3.915   7.935   4.500  0.0915 -0.6457  0.1117
   17MOL   C258 4770   4.040   7.980   4.422  0.6612 -0.0320  0.9258
   17MOL   C259 4771   4.157   7.909   4.429 -0.5021 -0.1381 -0.0411
   17MOL   C260 4772   3.880   7.803   4.542 -0.4788  0.3102 -0.5304
   17MOL   C261 4773   3.761   7.782   4.613 -0.0250  0.4421 -0.1762
   17MOL   H262 4774   3.649   8.110   4.602  1.8074  0.7499  0.8332
   17MOL   H263 4775   3.859   8.137   4.495  0.1995 -0.5497 -1.1489
   17MOL   H264 4776   4.040   8.060   4.349  0.2330 -1.3424 -0.5222
   17MOL   H265 4777   4.238   7.941   4.364 -1.1343  1.4226 -0.0889
   17MOL   H266 4778   3.940   7.718   4.514 -1.9496 -0.0995 -2.6093
   17MOL   H267 4779   3.726   7.685   4.648  4.0823 -1.1365 -0.1877
   17MOL   C268 4780   4.202   7.809   4.532 -0.8660  0.4683 -0.2478
   17MOL   C269 4781   4.288   7.710   4.491 -0.5345 -0.1498 -0.1888
   17MOL   C270 4782   4.322   7.615   4.582 -0.8622  1.7261 -0.4453
   17MOL   C271 4783   4.285   7.619   4.720  0.4604 -0.6537  0.0599
   17MOL   C272 4784   4.315   7.508   4.813  0.4088 -0.1504 -0.3542
   17MOL   C273 4785   4.403   7.409   4.791 -0.7127 -0.3974  0.0085
   17MOL   C274 4786   4.209   7.726   4.762  1.4297 -0.1211 -0.4274
   17MOL   C275 4787   4.163   7.820   4.671 -0.4272  0.6275 -0.7738
   17MOL   H276 4788   4.314   7.698   4.387 -1.3183 -0.7055 -0.3323
   17MOL   H277 4789   4.368   7.524   4.544 -1.0638  1.4262  0.0312
   17MOL   H278 4790   4.254   7.511   4.901 -1.3176 -0.9747 -1.5032
   17MOL   H279 4791   4.460   7.388   4.701 -1.2870 -1.8739 -0.0245
   17MOL   H280 4792   4.186   7.741   4.866 -1.0593 -0.1771 -0.9447
   17MOL   H281 4793   4.110   7.907   4.707  1.1976  0.4305  2.2898
   17MOL   H282 4794   4.413   7.339   4.873  0.5764  1.5083  1.5058
   18MOL     C1 4795   7.171   3.898   2.869  0.7052 -0.3667  0.4084
   18MOL     C2 4796   7.112   3.847   2.754  0.1828 -0.3078 -0.3832
   18MOL     C3 4797   6.973   3.836   2.753  0.0664  0.1629 -0.1896
   18MOL     C4 4798   6.894   3.881   2.862 -0.0192  0.3047 -0.1607
   18MOL     C5 4799   6.746   3.883   2.843  0.6057  0.5337 -0.6935
   18MOL     C6 4800   6.660   3.949   2.917 -0.0918  0.1062 -0.8351
   18MOL     C7 4801   6.960   3.917   2.979 -0.8906  0.4363  0.2861
   18MOL     C8 4802   7.096   3.937   2.983 -0.4157  0.2534  0.0170
   18MOL     H9 4803   7.169   3.821   2.666  1.4835 -1.4087  0.7569
   18MOL    H10 4804   6.923   3.813   2.661  0.3694  0.6662 -0.4804
   18MOL    H11 4805   6.708   3.821   2.762 -0.4855  0.0015  0.2065
   18MOL    H12 4806   6.699   4.013   2.994 -0.1544 -0.3397 -0.4340
   18MOL    H13 4807   6.908   3.932   3.073 -0.9241  0.4750  0.2613
   18MOL    H14 4808   7.141   3.970   3.075  0.4666  0.7901 -0.6088
   18MOL    H15 4809   7.277   3.912   2.884  1.0180 -0.2489 -1.8758
   18MOL    C16 4810   6.514   3.950   2.904 -0.6863 -1.2221  0.0755
   18MOL    C17 4811   6.437   4.045   2.976  0.1977 -0.6336  0.5944
   18MOL    C18 4812   6.296   4.049   2.976  0.3416 -0.1076 -0.0114
   18MOL    C19 4813   6.224   3.957   2.898 -0.3124 -0.9609 -0.2930
   18MOL    C20 4814   6.080   3.954   2.901 -0.4902 -0.1791  0.3894
   18MOL    C21 4815   6.001   3.868   2.834 -0.1472 -0.3562  0.3505
   18MOL    C22 4816   6.297   3.869   2.815  0.5211  0.4870 -0.5084
   18MOL    C23 4817   6.440   3.862   2.823  0.2959 -0.0856 -0.4211
   18MOL    H24 4818   6.479   4.134   3.022 -0.0278  0.3079 -0.9626
   18MOL    H25 4819   6.244   4.125   3.033 -0.1844 -0.0178 -0.6091
   18MOL    H26 4820   6.039   4.030   2.966  1.2784 -0.0227  1.3431
   18MOL    H27 4821   6.041   3.792   2.768  0.1087  0.3503 -0.3232
   18MOL    H28 4822   6.256   3.797   2.746  1.1805 -1.1555  0.7646
   18MOL    H29 4823   6.486   3.788   2.759  1.5136  1.6011 -1.5259
   18MOL    C30 4824   5.854   3.866   2.837 -0.7277 -0.1431  0.3879
   18MOL    C31 4825   5.777   3.924   2.933 -0.6112  0.1875  0.2549
   18MOL    C32 4826   5.634   3.928   2.932  0.7194  0.0094  0.2098
   18MOL    C33 4827   5.568   3.868   2.825  0.6272  0.6238  0.1731
   18MOL    C34 4828   5.417   3.857   2.827 -0.6979 -0.3218 -0.1942
   18MOL    C35 4829   5.343   3.810   2.725  0.7858 -0.3560  0.1064
   18MOL    C36 4830   5.647   3.807   2.722 -0.7034 -0.5225 -0.0309
   18MOL    C37 4831   5.788   3.811   2.730  0.0439 -0.0239  0.4159
   18MOL    H38 4832   5.824   3.980   3.013 -0.2080  1.8150 -1.0703
   18MOL    H39 4833   5.580   3.969   3.015 -0.5128  0.4897 -0.8215
   18MOL    H40 4834   5.379   3.896   2.921  0.0351 -0.9766  0.3805
   18MOL    H41 4835   5.392   3.781   2.633  1.6322 -2.8822  1.2780
   18MOL    H42 4836   5.599   3.756   2.640 -0.4855  0.1300 -0.5687
   18MOL    H43 4837   5.851   3.762   2.658 -0.9033  2.3902 -2.1708
   18MOL    C44 4838   5.198   3.780   2.722 -0.0566  0.1514  0.1800
   18MOL    C45 4839   5.137   3.715   2.606  0.4370 -0.2589 -0.4111
   18MOL    C46 4840   5.001   3.694   2.597 -0.0366 -0.3977  0.5180
   18MOL    C47 4841   4.914   3.734   2.704 -0.3861 -0.1160  0.9792
   18MOL    C48 4842   4.767   3.720   2.695 -0.9376  0.2821  0.6005
   18MOL    C49 4843   4.702   3.716   2.579 -0.3855 -0.7723 -0.7784
   18MOL    C50 4844   4.967   3.797   2.819 -0.1642  0.1441  0.0955
   18MOL    C51 4845   5.109   3.817   2.826 -0.0429 -0.1666  0.1016
   18MOL    H52 4846   5.209   3.688   2.531  2.0619  2.5786  0.0309
   18MOL    H53 4847   4.965   3.646   2.507 -0.5038  1.8160 -0.5150
   18MOL    H54 4848   4.724   3.716   2.794  1.7790 -1.3743  1.7742
   18MOL    H55 4849   4.770   3.734   2.497  2.6543  1.4530  2.0927
   18MOL    H56 4850   4.902   3.829   2.900  0.4954  2.1335 -0.1314
   18MOL    H57 4851   5.152   3.858   2.916 -0.6398  0.2368  0.2073
   18MOL    C58 4852   4.562   3.698   2.546  0.7414  0.6946 -0.0193
   18MOL    C59 4853   4.459   3.756   2.623 -0.8840  0.4306 -0.5734
   18MOL    C60 4854   4.326   3.737   2.580  0.2230 -0.3441  0.1789
   18MOL    C61 4855   4.295   3.671   2.458 -0.3942  0.1464 -0.4982
   18MOL    C62 4856   4.156   3.665   2.418 -0.1868 -0.6207 -0.1770
   18MOL    C63 4857   4.110   3.604   2.317  0.5049 -0.2843 -0.7342
   18MOL    C64 4858   4.398   3.605   2.387  0.7910  0.7799 -0.8047
   18MOL    C65 4859   4.528   3.623   2.428  0.3980  0.4988  0.2110
   18MOL    H66 4860   4.480   3.807   2.716  1.1857 -2.1381  0.4359
   18MOL    H67 4861   4.244   3.770   2.642 -1.7664 -1.1176 -1.9820
   18MOL    H68 4862   4.100   3.723   2.489  0.3588 -1.4303  0.9313
   18MOL    H69 4863   4.177   3.556   2.247  0.9635 -0.4415 -0.1912
   18MOL    H70 4864   4.383   3.544   2.299  0.8268  0.2803 -0.4604
   18MOL    H71 4865   4.602   3.583   2.360 -0.0459  1.8610 -1.1085
   18MOL    C72 4866   3.970   3.612   2.267 -0.2181 -0.3193  0.2391
   18MOL    C73 4867   3.886   3.720   2.309  0.1310 -0.4720 -0.4446
   18MOL    C74 4868   3.754   3.725   2.277 -0.2320  0.1369 -0.3610
   18MOL    C75 4869   3.697   3.625   2.200 -0.5085 -0.0943  0.0253
   18MOL    C76 4870   3.556   3.631   2.165 -0.4584  0.3262 -0.6916
   18MOL    C77 4871   3.449   3.698   2.216  0.0279 -0.1157  0.1115
   18MOL    C78 4872   3.776   3.514   2.169  0.1049 -0.5402 -0.4108
   18MOL    C79 4873   3.916   3.505   2.192  0.4570  0.5778  0.6807
   18MOL    H80 4874   3.940   3.799   2.358 -0.4369 -0.8884  0.8548
   18MOL    H81 4875   3.700   3.814   2.305  1.1004  0.7860  0.1919
   18MOL    H82 4876   3.530   3.565   2.084 -1.6832 -0.6030  0.4454
   18MOL    H83 4877   3.462   3.769   2.296 -2.6618 -1.8016  2.1756
   18MOL    H84 4878   3.727   3.431   2.119  0.6275 -1.5753  0.7533
   18MOL    H85 4879   3.977   3.426   2.150 -0.1823  1.5722 -2.2380
   18MOL    C86 4880   3.311   3.680   2.167  0.0678 -0.5687  0.2004
   18MOL    C87 4881   3.288   3.656   2.028  0.2580 -0.0253  1.1041
   18MOL    C88 4882   3.160   3.617   1.978 -0.2497  0.1799  0.1623
   18MOL    C89 4883   3.054   3.601   2.062  0.5422  0.2439 -0.0681
   18MOL    C90 4884   2.924   3.562   2.006  0.4728  0.9607 -0.0250
   18MOL    C91 4885   2.858   3.447   2.032 -0.2159  0.4230 -0.5295
   18MOL    C92 4886   3.075   3.618   2.195  0.1956 -0.2790  0.0630
   18MOL    C93 4887   3.200   3.664   2.250  0.2217 -0.2952 -1.0050
   18MOL    H94 4888   3.366   3.659   1.953  0.7653 -0.8264  1.5906
   18MOL    H95 4889   3.148   3.593   1.873 -0.9558 -1.9643  0.7269
   18MOL    H96 4890   2.880   3.631   1.936  0.1410  1.6920  0.9054
   18MOL    H97 4891   2.903   3.381   2.104 -1.1414 -0.1528 -0.4707
   18MOL    H98 4892   2.995   3.606   2.267  1.2418  0.2490  1.3379
   18MOL    H99 4893   3.217   3.683   2.355 -0.7844  0.7975 -1.0271
   18MOL   C100 4894   2.731   3.398   1.974 -0.4884 -0.4802  0.6411
   18MOL   C101 4895   2.661   3.477   1.878 -0.3413  0.1445 -0.1816
   18MOL   C102 4896   2.537   3.430   1.821  0.0024  0.0767 -0.4219
   18MOL   C103 4897   2.496   3.302   1.858  0.4762 -1.0340 -0.4730
   18MOL   C104 4898   2.364   3.255   1.802 -0.1773 -0.1814 -0.4776
   18MOL   C105 4899   2.313   3.131   1.807  0.9824  0.0975 -0.7098
   18MOL   C106 4900   2.571   3.226   1.955 -0.1906  0.5680  0.2938
   18MOL   C107 4901   2.687   3.279   2.013 -0.9818  0.3939 -0.3349
   18MOL   H108 4902   2.692   3.577   1.852 -0.1306 -0.2672 -1.5149
   18MOL   H109 4903   2.476   3.488   1.753  0.1024 -0.1278 -0.6863
   18MOL   H110 4904   2.306   3.324   1.742 -0.5583  0.4763  0.6424
   18MOL   H111 4905   2.368   3.055   1.861  0.6267 -1.9670 -3.1327
   18MOL   H112 4906   2.540   3.126   1.981  0.5353  0.3646  0.4024
   18MOL   H113 4907   2.742   3.217   2.083  1.6346  1.5440 -1.3090
   18MOL   C114 4908   2.189   3.083   1.733 -0.7572 -0.1333 -0.6403
   18MOL   C115 4909   2.083   3.166   1.702  0.3133 -0.0489  0.1917
   18MOL   C116 4910   1.969   3.120   1.629  0.6162  0.2839  0.5637
   18MOL   C117 4911   1.962   2.983   1.589  0.1155 -0.7748  0.3296
   18MOL   C118 4912   1.851   2.923   1.518 -0.1160 -0.5093  0.4040
   18MOL   C119 4913   1.726   2.968   1.539 -0.3557  1.5991 -0.6038
   18MOL   C120 4914   2.064   2.893   1.620  0.6474  0.4021 -0.4861
   18MOL   C121 4915   2.175   2.947   1.691 -0.3985 -0.6016  0.2429
   18MOL   H122 4916   2.077   3.268   1.736 -2.0719  0.4059 -1.4332
   18MOL   H123 4917   1.887   3.186   1.609 -0.1166 -0.4822  0.9863
   18MOL   H124 4918   1.872   2.841   1.451 -0.0573 -0.4704  0.3743
   18MOL   H125 4919   1.724   3.032   1.626  0.8217 -0.4863  0.9882
   18MOL   H126 4920   2.057   2.793   1.582  0.5644 -0.8744  2.7265
   18MOL   H127 4921   2.268   2.892   1.692  0.5546  0.9605  1.7432
   18MOL   C128 4922   1.606   2.935   1.464 -0.1125 -0.1534 -0.0633
   18MOL   C129 4923   1.597   2.830   1.371  0.3853 -0.3084  0.0232
   18MOL   C130 4924   1.479   2.806   1.298  0.3193 -0.4694 -0.3639
   18MOL   C131 4925   1.365   2.874   1.334 -0.2338 -0.0881  0.2978
   18MOL   C132 4926   1.230   2.839   1.277 -0.5915 -0.2865  0.3587
   18MOL   C133 4927   1.114   2.890   1.312 -0.4073  0.1678 -0.2466
   18MOL   C134 4928   1.371   2.971   1.436  0.0534 -0.1080  0.2467
   18MOL   C135 4929   1.486   2.999   1.502  0.3485 -0.4938  0.7330
   18MOL   H136 4930   1.680   2.766   1.344  0.7414 -0.2097  0.8788
   18MOL   H137 4931   1.469   2.722   1.232 -0.2387 -0.0836 -0.7769
   18MOL   H138 4932   1.225   2.751   1.215 -0.0108 -2.5410  3.4208
   18MOL   H139 4933   1.105   2.975   1.378 -4.6473  0.5518 -1.1553
   18MOL   H140 4934   1.280   3.023   1.462  1.2103  1.5075  1.0953
   18MOL   H141 4935   1.492   3.068   1.584 -0.8930 -0.4653  0.8193
   18MOL   C142 4936   0.978   2.848   1.281 -0.2495  0.1616  0.2479
   18MOL   C143 4937   0.943   2.783   1.160  0.0579  0.4002  0.8945
   18MOL   C144 4938   0.803   2.758   1.131  0.2370  0.6226  0.0151
   18MOL   C145 4939   0.704   2.781   1.229 -0.4082  0.0419 -0.8702
   18MOL   C146 4940   0.568   2.757   1.186 -0.2673 -0.1477  0.0149
   18MOL   C147 4941   0.470   2.750   1.275 -0.3249  0.6490 -0.6265
   18MOL   C148 4942   0.746   2.833   1.353  0.0742  0.4717  0.8582
   18MOL   C149 4943   0.882   2.873   1.374  0.5625 -0.1122  0.3439
   18MOL   H150 4944   1.022   2.748   1.096  0.3059 -0.7854  1.8215
   18MOL   H151 4945   0.772   2.711   1.039  1.2399  0.7614 -0.3991
   18MOL   H152 4946   0.548   2.751   1.080  0.8789 -0.4832 -0.1908
   18MOL   H153 4947   0.494   2.761   1.379  2.4968  0.5344 -1.2210
   18MOL   H154 4948   0.674   2.862   1.429 -1.7023  1.7980 -1.2545
   18MOL   H155 4949   0.913   2.912   1.469  0.5752 -1.9815  1.1257
   18MOL   C156 4950   0.330   2.725   1.241  0.1074  0.7382  0.7795
   18MOL   C157 4951   0.288   2.699   1.111 -0.0534 -0.6229  0.2173
   18MOL   C158 4952   0.153   2.672   1.081  0.0349 -0.6403  0.1540
   18MOL   C159 4953   0.061   2.681   1.194  0.2350 -0.5344  0.4191
   18MOL   C160 4954   8.063   2.687   1.169 -0.3740 -0.1241  0.6645
   18MOL   C161 4955   7.961   2.717   1.247  0.4010  0.6882 -0.1058
   18MOL   C162 4956   0.105   2.695   1.319 -0.2347 -0.5540 -0.4631
   18MOL   C163 4957   0.241   2.721   1.349 -0.1274 -0.1175 -0.5657
   18MOL   H164 4958   0.355   2.694   1.026 -1.6403  1.0446 -1.1618
   18MOL   H165 4959   0.121   2.649   0.980 -2.3290 -0.4036  0.8097
   18MOL   H166 4960   8.046   2.648   1.070 -0.9523  1.3309  0.1817
   18MOL   H167 4961   7.987   2.741   1.349 -1.6672  0.2391  0.5421
   18MOL   H168 4962   0.033   2.699   1.398  0.9268 -0.3178  0.6064
   18MOL   H169 4963   0.266   2.737   1.453  0.1133  1.0057 -0.7858
   18MOL   C170 4964   7.816   2.717   1.215  0.3860  0.2580 -0.1899
   18MOL   C171 4965   7.779   2.639   1.100 -0.1869  0.6733  0.4822
   18MOL   C172 4966   7.647   2.645   1.051 -0.0581 -0.5756 -0.6533
   18MOL   C173 4967   7.552   2.719   1.131 -0.0657 -0.2583  0.3977
   18MOL   C174 4968   7.415   2.711   1.088 -0.1323 -0.1984 -0.4098
   18MOL   C175 4969   7.304   2.759   1.150  0.4914 -0.8686 -0.1066
   18MOL   C176 4970   7.596   2.793   1.243  0.8979 -0.1062 -0.2623
   18MOL   C177 4971   7.724   2.791   1.287 -0.5377  0.3428  0.0955
   18MOL   H178 4972   7.858   2.584   1.051 -1.0236 -0.6777  0.6037
   18MOL   H179 4973   7.621   2.589   0.963 -0.3783  1.2310 -1.7310
   18MOL   H180 4974   7.402   2.654   0.998 -1.8918 -1.2653  0.4758
   18MOL   H181 4975   7.312   2.814   1.243  0.7207 -1.8482  0.4637
   18MOL   H182 4976   7.527   2.835   1.315  0.9697 -0.2374 -0.1178
   18MOL   H183 4977   7.751   2.842   1.378  1.5857  1.0311 -0.9055
   18MOL   C184 4978   7.165   2.730   1.112 -1.3106  0.6009  0.1014
   18MOL   C185 4979   7.061   2.809   1.165 -0.1092 -0.2800 -0.0682
   18MOL   C186 4980   6.925   2.791   1.127 -1.0459  0.1471  0.6031
   18MOL   C187 4981   6.892   2.696   1.020 -0.4467 -0.9219 -0.0162
   18MOL   C188 4982   6.760   2.676   0.967  0.0829 -0.2573 -0.4873
   18MOL   C189 4983   6.653   2.733   1.017  0.1725  0.4718  0.2544
   18MOL   C190 4984   6.999   2.623   0.961 -0.6782  0.5134  0.0029
   18MOL   C191 4985   7.131   2.633   1.016 -0.3200 -0.2151  0.4982
   18MOL   H192 4986   7.092   2.885   1.236  1.2327 -0.9649  0.0861
   18MOL   H193 4987   6.858   2.868   1.163  0.4926  1.5673  0.4752
   18MOL   H194 4988   6.752   2.610   0.881 -1.4598 -1.9689  0.9291
   18MOL   H195 4989   6.664   2.801   1.100  1.1474  1.5848 -0.7699
   18MOL   H196 4990   6.983   2.554   0.879  0.9833 -0.6034  0.6107
   18MOL   H197 4991   7.205   2.571   0.969 -1.4758 -0.4197 -1.0992
   18MOL   C198 4992   6.514   2.718   0.972  0.1554 -0.2319  0.2166
   18MOL   C199 4993   6.423   2.803   1.023  0.1825 -0.4063  0.7587
   18MOL   C200 4994   6.296   2.810   0.971  0.1995 -0.2225 -0.3523
   18MOL   C201 4995   6.269   2.738   0.855  0.4139 -0.0900 -0.5109
   18MOL   C202 4996   6.138   2.755   0.799  0.0271  0.3021 -0.1394
   18MOL   C203 4997   6.090   2.699   0.685  0.5599 -0.1699 -0.1463
   18MOL   C204 4998   6.357   2.649   0.804 -0.4379 -0.6295 -0.3037
   18MOL   C205 4999   6.481   2.641   0.863  0.0852 -0.5495 -0.7582
   18MOL   H206 5000   6.448   2.864   1.108 -1.5889  0.4275  0.7131
   18MOL   H207 5001   6.222   2.872   1.021  2.6445  0.7840  2.1206
   18MOL   H208 5002   6.068   2.812   0.860  0.6246  2.9411 -1.8117
   18MOL   H209 5003   6.158   2.636   0.631 -0.0205 -0.6978 -0.2723
   18MOL   H210 5004   6.348   2.593   0.712  1.5433 -1.9736  0.2766
   18MOL   H211 5005   6.550   2.565   0.830  0.6387  0.9432 -3.1372
   18MOL   C212 5006   5.948   2.708   0.635  0.1238 -0.0937  0.5007
   18MOL   C213 5007   5.909   2.644   0.513 -0.1895 -0.3421  0.1830
   18MOL   C214 5008   5.779   2.646   0.467 -0.1710 -0.0675 -0.1406
   18MOL   C215 5009   5.683   2.731   0.524 -0.6853  0.8756 -0.4707
   18MOL   C216 5010   5.551   2.756   0.466  0.1362 -0.3358 -0.0151
   18MOL   C217 5011   5.491   2.698   0.365  0.2852  0.0692  0.1624
   18MOL   C218 5012   5.715   2.794   0.648 -0.2261 -0.2049  0.5555
   18MOL   C219 5013   5.846   2.787   0.700  0.0949 -0.6459 -0.1481
   18MOL   H220 5014   5.983   2.579   0.467  0.1423  2.2600 -3.1223
   18MOL   H221 5015   5.753   2.576   0.389  1.4316  1.7927 -2.4210
   18MOL   H222 5016   5.501   2.842   0.510 -4.2499 -1.6310 -2.1247
   18MOL   H223 5017   5.540   2.613   0.319  0.1132  0.4486 -0.7356
   18MOL   H224 5018   5.642   2.860   0.693 -1.6664 -1.8002  0.5948
   18MOL   H225 5019   5.867   2.846   0.788 -1.0935  0.3094 -0.5071
   18MOL   C226 5020   5.356   2.736   0.324  1.2577 -1.4346  0.6300
   18MOL   C227 5021   5.266   2.818   0.396  0.1211  0.2038  0.6223
   18MOL   C228 5022   5.146   2.862   0.336  0.7775  0.3341  0.5396
   18MOL   C229 5023   5.114   2.825   0.203  0.4994 -0.0792 -0.5558
   18MOL   C230 5024   4.990   2.856   0.141  0.0767  0.1770 -0.1621
   18MOL   C231 5025   4.913   2.970   0.167  0.2071 -0.3444 -0.5563
   18MOL   C232 5026   5.197   2.735   0.135  0.6919 -0.1014  0.0592
   18MOL   C233 5027   5.321   2.702   0.189  0.1814 -0.1556  0.5612
   18MOL   H234 5028   5.300   2.843   0.496  2.8456 -0.4507 -0.0921
   18MOL   H235 5029   5.073   2.910   0.400 -0.9635 -1.3504 -0.1574
   18MOL   H236 5030   4.948   2.785   0.072 -1.0989  0.7684 -0.0620
   18MOL   H237 5031   4.963   3.036   0.236 -1.3102  1.2107 -0.9200
   18MOL   H238 5032   5.178   2.694   0.037  0.4071 -0.0193  0.0806
   18MOL   H239 5033   5.389   2.641   0.133  1.2225  1.4447  0.0577
   18MOL   C240 5034   4.782   3.004   0.108 -0.5973  0.1614 -0.8248
   18MOL   C241 5035   4.738   3.136   0.127 -0.7235  0.2815  0.1105
   18MOL   C242 5036   4.616   3.173   0.064  0.1879  1.2387  0.3327
   18MOL   C243 5037   4.535   3.081   8.139 -0.1065  0.5562 -0.2320
   18MOL   C244 5038   4.402   3.121   8.095  0.1623 -0.0260 -0.5967
   18MOL   C245 5039   4.312   3.032   8.053  0.5256  0.0888  0.2170
   18MOL   C246 5040   4.595   2.957   8.112 -0.1138 -0.3282  0.6611
   18MOL   C247 5041   4.719   2.918   0.016  0.5241 -0.8872  0.0058
   18MOL   H248 5042   4.786   3.209   0.191 -0.1114  1.1408 -1.3231
   18MOL   H249 5043   4.582   3.275   0.066 -1.2819  0.7770 -0.2760
   18MOL   H250 5044   4.376   3.226   8.097  0.4590  0.0406  1.2807
   18MOL   H251 5045   4.320   2.924   8.057 -1.6696 -0.1824 -1.5427
   18MOL   H252 5046   4.541   2.879   8.060  0.3778  0.2648 -0.7413
   18MOL   H253 5047   4.750   2.818   8.134  1.3902 -0.6507  0.1214
   18MOL   C254 5048   4.182   3.072   8.002 -0.5987  0.5611  0.0282
   18MOL   C255 5049   4.145   3.202   7.961  0.5348 -0.8723  0.0967
   18MOL   C256 5050   4.020   3.238   7.919  0.6802 -0.4140 -0.2629
   18MOL   C257 5051   3.917   3.148   7.905 -0.4575  0.0711 -0.0791
   18MOL   C258 5052   3.783   3.190   7.860 -0.1992 -0.2314  0.4413
   18MOL   C259 5053   3.707   3.126   7.769 -0.0935  0.1006 -0.6204
   18MOL   C260 5054   3.952   3.016   7.940  0.7685  0.4896 -0.6001
   18MOL   C261 5055   4.080   2.978   7.983 -0.0652  0.0046 -0.4895
   18MOL   H262 5056   4.220   3.280   7.963 -1.7117  1.4279 -1.4030
   18MOL   H263 5057   4.000   3.343   7.899  1.4971 -0.0558  0.7535
   18MOL   H264 5058   3.747   3.281   7.907 -0.1075  1.1908 -2.1636
   18MOL   H265 5059   3.604   3.155   7.753 -0.3227 -0.8070 -0.8405
   18MOL   H266 5060   3.878   2.937   7.937 -1.0690  1.9587  2.3892
   18MOL   H267 5061   4.100   2.877   8.015 -1.0197  0.3556  1.2485
   18MOL   C268 5062   3.743   3.011   7.685 -0.3654  0.3698 -0.3697
   18MOL   C269 5063   3.875   2.984   7.639  0.2935 -0.8376 -0.6449
   18MOL   C270 5064   3.911   2.868   7.572  0.4055  0.2926  0.5597
   18MOL   C271 5065   3.804   2.786   7.527 -0.2716 -0.0427  0.0305
   18MOL   C272 5066   3.835   2.676   7.437 -0.5787 -0.8605 -0.1606
   18MOL   C273 5067   3.929   2.668   7.339 -0.2482 -0.1780  0.6793
   18MOL   C274 5068   3.674   2.801   7.572  0.3194  0.5817 -0.7043
   18MOL   C275 5069   3.640   2.918   7.651  0.4596  1.0482  0.5714
   18MOL   H276 5070   3.950   3.059   7.662  1.3081 -2.1835  0.5218
   18MOL   H277 5071   4.014   2.853   7.545  0.7127  2.3852  0.5058
   18MOL   H278 5072   3.770   2.590   7.447 -0.4299 -0.8664  0.7958
   18MOL   H279 5073   4.004   2.745   7.324 -0.5069 -0.0556 -0.0177
   18MOL   H280 5074   3.602   2.726   7.544  1.4030 -0.7901  0.1231
   18MOL   H281 5075   3.537   2.930   7.680 -0.2337 -0.3599 -1.2498
   18MOL   H282 5076   3.925   2.578   7.279  0.2415  0.0851  0.2408
   19MOL     C1 5077   0.390   2.930   2.304  0.2104  0.0027  0.1274
   19MOL     C2 5078   0.298   2.878   2.210  0.1009  0.7337  0.2572
   19MOL     C3 5079   0.165   2.885   2.243  0.6527  0.3998  0.2399
   19MOL     C4 5080   0.115   2.958   2.352 -0.3550 -0.0609  1.0358
   19MOL     C5 5081   8.114   2.980   2.374  0.8849 -0.6416 -0.3578
   19MOL     C6 5082   8.027   2.978   2.274 -0.4702  0.1112 -0.3430
   19MOL     C7 5083   0.209   3.011   2.441  0.0342  0.7379  0.7124
   19MOL     C8 5084   0.342   2.987   2.427  0.3744  0.0276 -0.4871
   19MOL     H9 5085   0.332   2.837   2.116  0.2798 -0.3682  0.8026
   19MOL    H10 5086   0.102   2.831   2.173  2.3381 -0.6084 -0.5401
   19MOL    H11 5087   8.077   2.991   2.475  2.4237 -2.6249  0.4665
   19MOL    H12 5088   8.063   2.961   2.173  3.0857  0.2607  0.8573
   19MOL    H13 5089   0.168   3.070   2.522  1.1793  2.6749 -0.1045
   19MOL    H14 5090   0.414   3.020   2.501 -0.5875 -0.0054  0.4834
   19MOL    H15 5091   0.494   2.925   2.277 -0.3667  0.4563 -2.3021
   19MOL    C16 5092   7.881   3.004   2.289 -0.0143 -0.3523 -0.1449
   19MOL    C17 5093   7.830   3.071   2.402  0.1782  0.0163 -0.5404
   19MOL    C18 5094   7.690   3.089   2.413  0.4898 -0.1683 -0.2757
   19MOL    C19 5095   7.603   3.047   2.314  0.0807  0.4189  0.4876
   19MOL    C20 5096   7.461   3.073   2.326  0.6810  0.2539  0.6847
   19MOL    C21 5097   7.359   3.001   2.270 -0.9519  0.1044  0.0094
   19MOL    C22 5098   7.655   2.996   2.194  0.4035  0.6874  0.0346
   19MOL    C23 5099   7.793   2.970   2.189  0.7531  0.0341  0.0309
   19MOL    H24 5100   7.900   3.109   2.476  1.9224 -1.8513 -1.1882
   19MOL    H25 5101   7.647   3.142   2.497 -0.6249  0.6051 -1.3204
   19MOL    H26 5102   7.445   3.163   2.384  1.9493  0.1170  1.2696
   19MOL    H27 5103   7.381   2.911   2.214 -1.3711 -0.6740  1.0825
   19MOL    H28 5104   7.600   2.971   2.105 -0.8309  1.3666  0.6029
   19MOL    H29 5105   7.841   2.938   2.098 -0.5591  2.1617 -1.4553
   19MOL    C30 5106   7.221   3.035   2.274 -0.5696 -0.0477 -0.3533
   19MOL    C31 5107   7.130   2.943   2.223  0.0913 -0.7102 -0.2003
   19MOL    C32 5108   6.993   2.972   2.224 -0.3646 -0.9498 -0.0724
   19MOL    C33 5109   6.946   3.092   2.280  0.5301  1.0085  0.1547
   19MOL    C34 5110   6.802   3.129   2.276  0.3142  0.9723  0.1796
   19MOL    C35 5111   6.714   3.087   2.183  0.1699  0.0482 -0.0637
   19MOL    C36 5112   7.041   3.181   2.340  0.5693 -0.4612 -0.2136
   19MOL    C37 5113   7.177   3.152   2.335  0.4020  0.4240  0.3358
   19MOL    H38 5114   7.165   2.844   2.197 -0.4912 -1.4326  1.6775
   19MOL    H39 5115   6.921   2.913   2.169 -0.7245 -0.0987 -0.5072
   19MOL    H40 5116   6.772   3.203   2.349 -0.9659  1.7586 -1.1078
   19MOL    H41 5117   6.750   3.023   2.104 -0.1799  0.2718 -0.4035
   19MOL    H42 5118   6.999   3.262   2.399  2.2871  1.5728 -1.7077
   19MOL    H43 5119   7.246   3.224   2.377 -1.0779  0.0766  3.5073
   19MOL    C44 5120   6.579   3.130   2.173  0.4741 -0.6469 -0.2559
   19MOL    C45 5121   6.490   3.057   2.087 -0.1734  0.4073  0.4152
   19MOL    C46 5122   6.355   3.091   2.073 -0.2002  0.8070  0.1600
   19MOL    C47 5123   6.298   3.192   2.158 -0.1683 -0.1925 -0.0386
   19MOL    C48 5124   6.164   3.247   2.132 -0.5678 -0.6220 -0.2827
   19MOL    C49 5125   6.092   3.236   2.018  0.1266 -0.1595  0.5012
   19MOL    C50 5126   6.386   3.266   2.241  0.0251 -0.3104 -0.1730
   19MOL    C51 5127   6.522   3.241   2.246  0.0282  0.2810 -0.4181
   19MOL    H52 5128   6.524   2.966   2.040 -0.9066 -0.5641  1.7344
   19MOL    H53 5129   6.285   3.026   2.021  2.2458 -0.6935 -1.3813
   19MOL    H54 5130   6.120   3.293   2.219 -0.5600 -0.6458 -0.2660
   19MOL    H55 5131   6.137   3.191   1.931 -1.3081 -1.0156  0.2017
   19MOL    H56 5132   6.355   3.345   2.307  1.8414 -0.8076  1.2971
   19MOL    H57 5133   6.577   3.300   2.318 -2.1523  0.1983  1.3944
   19MOL    C58 5134   5.956   3.278   2.005 -0.0438  1.5840 -0.3913
   19MOL    C59 5135   5.882   3.226   1.892  0.2733 -0.6687  0.1482
   19MOL    C60 5136   5.742   3.239   1.877  1.0289 -0.0959 -0.1017
   19MOL    C61 5137   5.673   3.302   1.981 -0.1692 -1.2224 -0.4274
   19MOL    C62 5138   5.525   3.319   1.988 -0.3301  0.0621 -0.2985
   19MOL    C63 5139   5.438   3.301   1.886  0.5812 -0.5557  0.0188
   19MOL    C64 5140   5.742   3.357   2.090  0.6750  0.0334 -0.0426
   19MOL    C65 5141   5.885   3.352   2.105  0.0139  0.8107 -0.0655
   19MOL    H66 5142   5.944   3.183   1.815  2.1294 -2.5679  2.6082
   19MOL    H67 5143   5.700   3.194   1.788  1.6610 -2.5705  0.8198
   19MOL    H68 5144   5.494   3.343   2.089 -0.6258  2.2169 -0.8597
   19MOL    H69 5145   5.489   3.295   1.791  0.6929 -0.1940  0.0544
   19MOL    H70 5146   5.687   3.403   2.171  0.9676 -0.0926  0.2287
   19MOL    H71 5147   5.929   3.376   2.201  2.4858  0.4330 -1.0646
   19MOL    C72 5148   5.290   3.294   1.893 -0.2311 -0.4836 -1.0310
   19MOL    C73 5149   5.218   3.336   1.781 -0.4111 -0.5206 -0.5352
   19MOL    C74 5150   5.080   3.327   1.777 -0.7570 -0.4030 -0.0734
   19MOL    C75 5151   5.011   3.268   1.879  0.6125  0.2257 -0.2831
   19MOL    C76 5152   4.866   3.233   1.866 -0.3618 -0.1004 -0.6537
   19MOL    C77 5153   4.792   3.147   1.942 -0.5546  0.4886  0.7322
   19MOL    C78 5154   5.080   3.227   1.997  0.0026  0.8983 -0.2551
   19MOL    C79 5155   5.220   3.240   2.005 -0.2123  0.3153 -0.1309
   19MOL    H80 5156   5.263   3.382   1.694  0.5084 -0.3268  0.0338
   19MOL    H81 5157   5.035   3.361   1.685 -0.6909  1.7100  0.6480
   19MOL    H82 5158   4.823   3.288   1.783  1.5839  1.4091 -0.6992
   19MOL    H83 5159   4.843   3.092   2.020  0.3868  0.7637  0.3129
   19MOL    H84 5160   5.025   3.174   2.074  0.7268 -0.2331 -0.4921
   19MOL    H85 5161   5.277   3.199   2.087 -0.0243  2.0873  0.6470
   19MOL    C86 5162   4.653   3.113   1.912 -0.8799 -0.6375 -0.0470
   19MOL    C87 5163   4.596   3.010   1.984  0.4741  0.6786  0.4102
   19MOL    C88 5164   4.467   2.964   1.955  0.1845  0.1097  0.1326
   19MOL    C89 5165   4.391   3.012   1.849  0.0013  0.4104 -0.8378
   19MOL    C90 5166   4.264   2.948   1.800  0.4217  0.1282  0.5243
   19MOL    C91 5167   4.186   2.997   1.704 -0.5520 -0.9309 -0.8130
   19MOL    C92 5168   4.446   3.117   1.776 -0.0109 -0.1490 -0.2186
   19MOL    C93 5169   4.575   3.161   1.802 -0.2303 -0.1588 -0.0858
   19MOL    H94 5170   4.654   2.967   2.065  0.4465 -2.1153 -1.0199
   19MOL    H95 5171   4.427   2.885   2.017  0.6743  0.3636  0.7804
   19MOL    H96 5172   4.231   2.859   1.852 -0.7486  1.8523  2.8302
   19MOL    H97 5173   4.209   3.094   1.664  0.8552 -0.1427  1.8347
   19MOL    H98 5174   4.393   3.172   1.700 -2.2745 -1.5594  0.2823
   19MOL    H99 5175   4.621   3.243   1.748 -0.4410 -0.2016 -0.3279
   19MOL   C100 5176   4.061   2.939   1.651  0.3932  0.4539  0.1396
   19MOL   C101 5177   4.002   2.815   1.690 -0.9119  0.0306  0.2012
   19MOL   C102 5178   3.889   2.765   1.618  0.1956 -0.3124  0.1451
   19MOL   C103 5179   3.826   2.846   1.516 -0.0009 -0.4287 -1.5713
   19MOL   C104 5180   3.708   2.799   1.447  0.5791  0.0433  0.4891
   19MOL   C105 5181   3.606   2.880   1.410 -0.0950 -0.4109 -0.3710
   19MOL   C106 5182   3.884   2.963   1.481 -0.3559  0.1331  0.2103
   19MOL   C107 5183   4.002   3.009   1.543 -0.4854 -0.4081 -0.3119
   19MOL   H108 5184   4.055   2.763   1.769 -0.4796 -0.5641 -0.4659
   19MOL   H109 5185   3.854   2.665   1.639  0.1174 -0.9225 -2.7525
   19MOL   H110 5186   3.710   2.696   1.414 -0.4106  0.4719 -0.9275
   19MOL   H111 5187   3.609   2.981   1.447  1.1857 -0.7632  0.5162
   19MOL   H112 5188   3.848   3.021   1.398 -1.5637 -0.3929  0.3566
   19MOL   H113 5189   4.051   3.100   1.512 -0.2751 -0.5645 -0.4440
   19MOL   C114 5190   3.489   2.844   1.328  0.1145  0.2241  0.0121
   19MOL   C115 5191   3.393   2.942   1.298 -0.4428  0.0311 -0.1628
   19MOL   C116 5192   3.291   2.913   1.213  0.4998 -0.0827  0.0710
   19MOL   C117 5193   3.281   2.785   1.150 -0.1279  0.1063 -0.2155
   19MOL   C118 5194   3.185   2.776   1.039  0.0670 -0.0121  0.4014
   19MOL   C119 5195   3.160   2.675   0.955  0.2912 -0.2911  0.1767
   19MOL   C120 5196   3.367   2.683   1.189  0.8572  0.1815  0.4962
   19MOL   C121 5197   3.476   2.708   1.273 -0.1815 -0.4095  0.6690
   19MOL   H122 5198   3.409   3.044   1.330  0.5906 -0.3048  0.4205
   19MOL   H123 5199   3.234   3.000   1.184 -1.3121 -1.4792 -0.6529
   19MOL   H124 5200   3.129   2.866   1.017  0.2566  0.1182  0.4524
   19MOL   H125 5201   3.219   2.586   0.972 -2.2297 -1.6278  2.1627
   19MOL   H126 5202   3.368   2.588   1.138  2.6130  0.5938 -0.2729
   19MOL   H127 5203   3.548   2.631   1.294  1.7828  1.9578  2.8892
   19MOL   C128 5204   3.085   2.678   0.832  0.0203 -0.0452 -0.0860
   19MOL   C129 5205   3.019   2.567   0.780  0.5127 -0.1999  0.7030
   19MOL   C130 5206   2.968   2.563   0.653 -0.1723 -0.9765  0.4458
   19MOL   C131 5207   2.981   2.673   0.566  0.1803 -0.4954  0.2625
   19MOL   C132 5208   2.938   2.669   0.424 -0.6094 -0.5016 -0.4216
   19MOL   C133 5209   2.887   2.554   0.364  0.5382  0.0958  0.6848
   19MOL   C134 5210   3.046   2.787   0.619  0.6436 -0.2272  0.5585
   19MOL   C135 5211   3.085   2.793   0.750  0.5024 -0.7177 -0.4782
   19MOL   H136 5212   3.010   2.479   0.842  1.4987  0.4276  1.7442
   19MOL   H137 5213   2.927   2.470   0.616  1.8740 -2.4926  1.8254
   19MOL   H138 5214   2.956   2.763   0.375 -1.0575 -1.3509 -2.2907
   19MOL   H139 5215   2.885   2.460   0.417 -2.3506 -0.3047 -0.0862
   19MOL   H140 5216   3.067   2.868   0.551 -1.3092 -0.9331 -0.9474
   19MOL   H141 5217   3.145   2.878   0.780  0.3553 -1.1279  0.9731
   19MOL   C142 5218   2.859   2.551   0.218 -0.0782  1.0065 -0.1395
   19MOL   C143 5219   2.816   2.428   0.158 -0.5187 -0.0226  0.0561
   19MOL   C144 5220   2.808   2.414   0.017 -0.0132  0.6445  0.1092
   19MOL   C145 5221   2.845   2.522   8.081  0.0264  0.3713 -0.0268
   19MOL   C146 5222   2.877   2.490   7.937 -0.6643  0.1294 -0.3117
   19MOL   C147 5223   2.977   2.560   7.876  0.1663 -1.0126  0.0834
   19MOL   C148 5224   2.878   2.642   8.137  0.5800 -0.0974  0.4743
   19MOL   C149 5225   2.889   2.657   0.129  0.1406 -0.5444  0.0145
   19MOL   H150 5226   2.794   2.347   0.226  1.9038 -0.3200  0.5208
   19MOL   H151 5227   2.780   2.324   8.110 -1.2516  0.2243  1.4951
   19MOL   H152 5228   2.821   2.416   7.882 -0.4339 -0.2243 -0.0769
   19MOL   H153 5229   3.029   2.630   7.938 -2.6646 -0.9266  2.4470
   19MOL   H154 5230   2.912   2.727   8.079  1.2743 -1.1278 -0.6358
   19MOL   H155 5231   2.913   2.755   0.168 -0.4896 -0.5839  0.5064
   19MOL   C156 5232   3.043   2.551   7.748 -0.6550 -0.0629  0.1235
   19MOL   C157 5233   3.160   2.623   7.737  0.2775  0.0676  0.1794
   19MOL   C158 5234   3.246   2.622   7.623  0.4140 -0.2839 -0.3389
   19MOL   C159 5235   3.211   2.534   7.520  0.1739 -1.1293  0.1632
   19MOL   C160 5236   3.305   2.522   7.412  0.0402  0.3724 -0.0365
   19MOL   C161 5237   3.338   2.428   7.321  0.6282 -0.0298 -0.6857
   19MOL   C162 5238   3.096   2.459   7.528  0.1389  0.1242  0.1893
   19MOL   C163 5239   3.010   2.465   7.643 -0.2646 -0.6848 -0.2213
   19MOL   H164 5240   3.194   2.690   7.815 -1.3830 -0.2781  1.2214
   19MOL   H165 5241   3.337   2.681   7.628  2.4952 -3.1397 -2.3472
   19MOL   H166 5242   3.363   2.612   7.397  2.0595 -1.1164 -1.4761
   19MOL   H167 5243   3.273   2.342   7.316 -2.7417  2.3105  1.2189
   19MOL   H168 5244   3.085   2.383   7.452 -3.5395 -0.1612  0.8985
   19MOL   H169 5245   2.918   2.408   7.643 -0.7579  0.0855 -0.9774
   19MOL   C170 5246   3.452   2.435   7.228  0.7586 -0.0344  0.6832
   19MOL   C171 5247   3.532   2.552   7.209 -0.0823  0.6238  0.2221
   19MOL   C172 5248   3.655   2.554   7.144 -0.1291  0.3346 -0.2164
   19MOL   C173 5249   3.699   2.440   7.082 -0.4916 -0.1171  0.0388
   19MOL   C174 5250   3.831   2.454   7.017  0.3464 -0.5320 -0.2167
   19MOL   C175 5251   3.910   2.358   6.954  0.6607 -0.2023  0.3964
   19MOL   C176 5252   3.622   2.321   7.091  0.0581  0.3005  0.1709
   19MOL   C177 5253   3.497   2.319   7.160 -0.1941  0.3808 -0.0507
   19MOL   H178 5254   3.504   2.639   7.267  0.2970  1.2333 -0.5066
   19MOL   H179 5255   3.715   2.644   7.140  0.9530 -0.3897 -0.1064
   19MOL   H180 5256   3.877   2.552   7.017 -1.1753  0.1875  0.2444
   19MOL   H181 5257   3.863   2.262   6.963 -2.2135  1.0355 -0.9835
   19MOL   H182 5258   3.653   2.225   7.053 -2.3094  0.5334 -2.5475
   19MOL   H183 5259   3.438   2.229   7.168  2.1164 -1.2484 -0.9617
   19MOL   C184 5260   4.041   2.382   6.894 -0.9923  0.6702 -0.2536
   19MOL   C185 5261   4.146   2.293   6.917 -0.4535  0.1333  0.1925
   19MOL   C186 5262   4.275   2.346   6.909 -0.3289 -0.4326 -0.0494
   19MOL   C187 5263   4.300   2.472   6.856  0.5018 -0.3563 -0.4706
   19MOL   C188 5264   4.433   2.521   6.865  0.3673  0.2900  0.0902
   19MOL   C189 5265   4.496   2.610   6.789 -0.5360 -0.4408  0.0107
   19MOL   C190 5266   4.199   2.556   6.815  0.6762  0.3359 -1.1641
   19MOL   C191 5267   4.064   2.506   6.836 -0.1550  0.4123  0.2831
   19MOL   H192 5268   4.130   2.192   6.953  3.2696 -0.6399 -0.1865
   19MOL   H193 5269   4.364   2.298   6.947  0.0521  0.4188  0.1623
   19MOL   H194 5270   4.483   2.483   6.953 -0.7462 -0.0800  0.5668
   19MOL   H195 5271   4.443   2.645   6.702  0.6011 -0.0795 -0.5465
   19MOL   H196 5272   4.221   2.658   6.786 -1.7347  0.7832 -1.5519
   19MOL   H197 5273   3.980   2.563   6.800 -0.2322  0.4578  0.5335
   19MOL   C198 5274   4.628   2.662   6.803  0.5169  0.1854  0.4232
   19MOL   C199 5275   4.712   2.627   6.913  0.0480  0.9729  0.3365
   19MOL   C200 5276   4.834   2.687   6.923 -0.1562 -0.4912  0.1851
   19MOL   C201 5277   4.875   2.784   6.828 -0.2555  0.4818 -0.1603
   19MOL   C202 5278   5.000   2.853   6.855 -0.2965 -0.0663  0.1401
   19MOL   C203 5279   5.091   2.841   6.951 -0.1467  0.3124  0.0221
   19MOL   C204 5280   4.797   2.817   6.716  0.5358  0.0558  0.2961
   19MOL   C205 5281   4.670   2.753   6.702  0.1226  0.0901 -0.7008
   19MOL   H206 5282   4.671   2.569   6.995 -2.0957 -0.1450 -1.4399
   19MOL   H207 5283   4.890   2.674   7.015 -0.7474  0.9461  0.7628
   19MOL   H208 5284   5.011   2.929   6.779  1.6113 -0.6472 -0.1959
   19MOL   H209 5285   5.074   2.772   7.032  0.8593  0.7044  0.5775
   19MOL   H210 5286   4.826   2.892   6.645 -3.5561  1.8228  0.3769
   19MOL   H211 5287   4.600   2.790   6.629 -2.0596  0.8794  1.6914
   19MOL   C212 5288   5.221   2.896   6.959  0.0707 -0.3676 -0.3643
   19MOL   C213 5289   5.254   3.006   6.875 -0.8260  0.0653 -0.2703
   19MOL   C214 5290   5.385   3.067   6.880  1.3077  0.9547  0.3248
   19MOL   C215 5291   5.474   3.020   6.977  0.1358  0.6535 -0.4752
   19MOL   C216 5292   5.593   3.108   6.990  0.5930  0.4633  0.5636
   19MOL   C217 5293   5.676   3.115   7.093 -0.8304 -0.5417  0.0368
   19MOL   C218 5294   5.434   2.924   7.070 -0.3313 -0.1080 -1.1590
   19MOL   C219 5295   5.308   2.859   7.059  0.0326  0.2362 -0.2555
   19MOL   H220 5296   5.202   3.036   6.785 -0.0870  0.5218 -0.5513
   19MOL   H221 5297   5.405   3.145   6.808  1.1289 -0.1193 -0.9048
   19MOL   H222 5298   5.603   3.175   6.906 -1.9668  3.1688  2.3182
   19MOL   H223 5299   5.667   3.051   7.180  2.2331  0.3610  1.0828
   19MOL   H224 5300   5.495   2.901   7.156  1.2554  2.0949 -1.6667
   19MOL   H225 5301   5.262   2.786   7.124 -3.2560  2.2632 -0.2155
   19MOL   C226 5302   5.791   3.206   7.101  0.2256  0.0139 -0.2974
   19MOL   C227 5303   5.822   3.298   7.002 -0.0359  0.0391  0.6103
   19MOL   C228 5304   5.929   3.385   7.017 -0.7132 -0.0401  0.4420
   19MOL   C229 5305   6.019   3.370   7.126  0.3382  0.4041  0.0635
   19MOL   C230 5306   6.135   3.458   7.140 -0.0367 -0.0823  0.5707
   19MOL   C231 5307   6.151   3.580   7.081  0.2511  0.1874  0.3280
   19MOL   C232 5308   5.987   3.283   7.231  0.3767 -0.3566  0.8906
   19MOL   C233 5309   5.871   3.207   7.219 -0.6328 -0.6402 -0.3910
   19MOL   H234 5310   5.762   3.307   6.912  2.0923  0.6367 -0.7695
   19MOL   H235 5311   5.947   3.455   6.937 -2.9012  0.5200  0.4129
   19MOL   H236 5312   6.217   3.424   7.202 -0.1559  1.6746  1.7248
   19MOL   H237 5313   6.078   3.626   7.016  1.1002  1.4021  0.2076
   19MOL   H238 5314   6.049   3.293   7.318  0.7129  3.0261  0.3484
   19MOL   H239 5315   5.844   3.149   7.306 -1.6867  2.3347  1.3117
   19MOL   C240 5316   6.276   3.658   7.083 -0.0821 -0.6242 -0.7828
   19MOL   C241 5317   6.298   3.770   7.000  0.3806 -0.1070 -0.1901
   19MOL   C242 5318   6.428   3.839   6.999 -0.0279 -0.4790  0.0758
   19MOL   C243 5319   6.532   3.808   7.089  0.6079  0.1489 -0.4093
   19MOL   C244 5320   6.657   3.884   7.095  0.1714 -0.1992  0.6654
   19MOL   C245 5321   6.669   4.007   7.044  0.3724 -0.4927 -0.0748
   19MOL   C246 5322   6.508   3.702   7.174 -0.1382  0.0854  0.2845
   19MOL   C247 5323   6.391   3.624   7.163  0.9689 -0.8032 -0.9212
   19MOL   H248 5324   6.225   3.813   6.932 -0.2085 -0.6861  0.0747
   19MOL   H249 5325   6.444   3.919   6.929 -0.2148 -0.6756 -0.1926
   19MOL   H250 5326   6.745   3.832   7.130  0.8820 -0.5202 -1.4954
   19MOL   H251 5327   6.587   4.059   6.997  0.7487 -0.7421 -1.0191
   19MOL   H252 5328   6.592   3.670   7.235  1.2438  0.8755 -1.1551
   19MOL   H253 5329   6.396   3.534   7.223 -1.9383 -0.6084 -0.2806
   19MOL   C254 5330   6.794   4.087   7.039 -0.5006 -0.9354  1.0182
   19MOL   C255 5331   6.780   4.224   6.988 -0.5632 -0.5372  0.0558
   19MOL   C256 5332   6.899   4.306   6.975 -0.2746 -0.4773 -0.4551
   19MOL   C257 5333   7.019   4.251   7.017  0.0819 -0.1326 -0.1118
   19MOL   C258 5334   7.140   4.326   7.022  0.5370 -0.0049 -0.1008
   19MOL   C259 5335   7.165   4.454   7.047 -0.4392  0.1030 -0.0260
   19MOL   C260 5336   7.026   4.124   7.074  0.3002 -0.0956 -0.3841
   19MOL   C261 5337   6.914   4.044   7.085 -0.1550  0.0993  0.1048
   19MOL   H262 5338   6.690   4.266   6.945  0.3673 -1.0973 -2.5073
   19MOL   H263 5339   6.892   4.405   6.932  1.7779 -0.1812 -0.1677
   19MOL   H264 5340   7.225   4.265   6.996  1.3221  1.1122 -0.1948
   19MOL   H265 5341   7.266   4.489   7.037 -0.9236  2.4059  2.4158
   19MOL   H266 5342   7.123   4.084   7.098  1.0143  0.7042 -1.8597
   19MOL   H267 5343   6.939   3.947   7.126  2.5384  0.5898 -0.2304
   19MOL   C268 5344   7.089   4.568   7.101  0.0273 -0.2325  0.2126
   19MOL   C269 5345   7.129   4.698   7.077  0.0365  0.2703 -0.4600
   19MOL   C270 5346   7.060   4.809   7.137 -0.3521  0.0829  0.1732
   19MOL   C271 5347   6.957   4.788   7.222 -0.0196  0.5375 -0.2503
   19MOL   C272 5348   6.893   4.907   7.276 -0.5241  0.3070 -0.0505
   19MOL   C273 5349   6.788   4.909   7.361 -0.1631  0.7593 -0.0522
   19MOL   C274 5350   6.915   4.660   7.250  0.7094  0.5404  0.0235
   19MOL   C275 5351   6.979   4.552   7.195  0.3679 -0.1570 -0.2785
   19MOL   H276 5352   7.209   4.718   7.007 -0.2966 -0.3594 -1.0306
   19MOL   H277 5353   7.089   4.912   7.123 -0.8420  0.0915 -0.8393
   19MOL   H278 5354   6.938   5.000   7.245 -0.9123  0.3020 -0.6252
   19MOL   H279 5355   6.740   4.824   7.406 -1.5313  1.2196 -0.6003
   19MOL   H280 5356   6.826   4.637   7.308  2.5274 -0.4400  2.5098
   19MOL   H281 5357   6.938   4.455   7.219 -2.0380  0.6292 -1.0441
   19MOL   H282 5358   6.745   5.003   7.392  2.2423  1.5329  1.0688
   20MOL     C1 5359   6.523   6.169   3.376 -0.2630 -0.2391  0.3703
   20MOL     C2 5360   6.477   6.237   3.484  0.0922 -0.2610  0.0676
   20MOL     C3 5361   6.343   6.279   3.497  0.0066 -0.5842  0.9063
   20MOL     C4 5362   6.255   6.262   3.386  0.6307 -0.1491  0.2600
   20MOL     C5 5363   6.114   6.294   3.394 -0.9568 -0.2431  0.5564
   20MOL     C6 5364   6.030   6.307   3.504 -0.0700  0.2394  0.1926
   20MOL     C7 5365   6.308   6.205   3.265 -0.1507 -0.2900  0.6410
   20MOL     C8 5366   6.442   6.158   3.257 -0.2273  0.4381  0.2981
   20MOL     H9 5367   6.534   6.259   3.574 -1.0106 -0.5021  0.8364
   20MOL    H10 5368   6.305   6.320   3.589 -1.9085 -1.6395  0.6051
   20MOL    H11 5369   6.072   6.308   3.296  0.0953  1.7669  0.3575
   20MOL    H12 5370   6.060   6.289   3.606 -1.0225  0.7461  0.5700
   20MOL    H13 5371   6.243   6.185   3.181  0.3557 -3.6869  1.0040
   20MOL    H14 5372   6.487   6.106   3.174  0.1492 -1.6443  1.7831
   20MOL    H15 5373   6.623   6.129   3.380 -0.2744 -0.4094 -0.8762
   20MOL    C16 5374   5.888   6.348   3.498  0.2923  0.6073  0.6358
   20MOL    C17 5375   5.815   6.371   3.619  0.7518 -0.9479  0.6328
   20MOL    C18 5376   5.680   6.398   3.611 -0.5268  0.1606 -0.2513
   20MOL    C19 5377   5.613   6.425   3.489 -0.0674 -0.1251  0.2131
   20MOL    C20 5378   5.473   6.477   3.490 -0.1871  0.3564  0.2044
   20MOL    C21 5379   5.395   6.516   3.389  0.2747 -0.5716 -0.4992
   20MOL    C22 5380   5.684   6.402   3.369  0.2142  0.9341 -0.0952
   20MOL    C23 5381   5.818   6.362   3.377 -0.7915 -0.3750  0.6784
   20MOL    H24 5382   5.856   6.367   3.719 -0.3482  2.4601  1.2644
   20MOL    H25 5383   5.617   6.414   3.697 -0.0269  2.8209 -0.3489
   20MOL    H26 5384   5.425   6.477   3.587  2.1796 -2.8228  1.4326
   20MOL    H27 5385   5.448   6.524   3.295 -1.3674 -0.5887 -1.4421
   20MOL    H28 5386   5.650   6.422   3.269  0.9980 -0.5565 -0.6716
   20MOL    H29 5387   5.868   6.336   3.285 -0.1026 -0.2666  1.0129
   20MOL    C30 5388   5.256   6.573   3.385  0.1171 -0.2643  0.0641
   20MOL    C31 5389   5.183   6.609   3.507 -0.1168 -0.0068  0.0824
   20MOL    C32 5390   5.067   6.684   3.498 -0.5464 -0.0969 -0.1147
   20MOL    C33 5391   5.015   6.704   3.369  0.0780 -0.3312  0.0488
   20MOL    C34 5392   4.888   6.770   3.344 -0.7054 -0.0017 -0.1368
   20MOL    C35 5393   4.790   6.780   3.437 -0.4299  0.5576  0.9873
   20MOL    C36 5394   5.085   6.665   3.254 -0.3583 -0.7147 -0.5328
   20MOL    C37 5395   5.203   6.598   3.259  0.0121 -0.2304  0.1623
   20MOL    H38 5396   5.216   6.587   3.608 -1.5028 -3.5114 -0.1412
   20MOL    H39 5397   5.023   6.711   3.593  0.7419  2.0540 -0.0917
   20MOL    H40 5398   4.879   6.816   3.247  0.3265  0.0019 -0.2332
   20MOL    H41 5399   4.809   6.739   3.535 -1.1616  0.5372  1.1196
   20MOL    H42 5400   5.044   6.698   3.159 -1.4031  0.7927  0.4255
   20MOL    H43 5401   5.240   6.573   3.161 -0.9740 -0.0636 -0.2578
   20MOL    C44 5402   4.658   6.848   3.419 -0.2040  0.0736  0.3143
   20MOL    C45 5403   4.577   6.893   3.526  0.2108  0.0006  0.1225
   20MOL    C46 5404   4.461   6.968   3.513  0.2574  1.2785 -0.1414
   20MOL    C47 5405   4.407   6.987   3.384  0.0301  0.1457 -0.1032
   20MOL    C48 5406   4.274   7.054   3.367 -0.2222  0.6586  0.2233
   20MOL    C49 5407   4.202   7.073   3.255 -0.2993  0.1163 -0.6681
   20MOL    C50 5408   4.481   6.944   3.273  0.3366  0.2513 -0.2559
   20MOL    C51 5409   4.606   6.878   3.287  0.6598 -0.3364 -0.2045
   20MOL    H52 5410   4.626   6.878   3.621  0.3088  1.8072  0.3939
   20MOL    H53 5411   4.403   6.989   3.601  0.6294  1.0827  0.1525
   20MOL    H54 5412   4.243   7.090   3.464  0.4760  2.6938 -0.3049
   20MOL    H55 5413   4.243   7.042   3.160 -0.2729 -1.8668 -0.0232
   20MOL    H56 5414   4.451   6.975   3.174  0.0601 -1.0147 -0.5749
   20MOL    H57 5415   4.652   6.856   3.192 -1.3843  0.4389 -1.4106
   20MOL    C58 5416   4.075   7.148   3.250  0.2239  0.9640 -0.2701
   20MOL    C59 5417   4.012   7.210   3.358 -0.2442  0.5070  0.0820
   20MOL    C60 5418   3.886   7.266   3.341 -0.0228 -0.1060 -0.2332
   20MOL    C61 5419   3.824   7.278   3.215  0.2131  0.5469  0.1908
   20MOL    C62 5420   3.695   7.341   3.201 -0.5758 -0.1697  0.0745
   20MOL    C63 5421   3.622   7.374   3.091  0.3547 -0.4923  0.4650
   20MOL    C64 5422   3.886   7.226   3.102  0.0529  0.7178 -0.1490
   20MOL    C65 5423   4.009   7.154   3.123 -0.2769  0.4982 -0.4133
   20MOL    H66 5424   4.065   7.202   3.452  0.8664  0.9128 -0.4894
   20MOL    H67 5425   3.837   7.315   3.424  1.3813  1.1295 -0.1136
   20MOL    H68 5426   3.658   7.366   3.300  1.6694  1.5829  0.5102
   20MOL    H69 5427   3.649   7.340   2.993  0.2295 -2.3781  1.0604
   20MOL    H70 5428   3.841   7.229   3.004 -0.4511  0.0169  0.0575
   20MOL    H71 5429   4.066   7.114   3.040  2.4319 -0.4390  1.8221
   20MOL    C72 5430   3.490   7.439   3.106 -0.3040 -0.3293 -0.9525
   20MOL    C73 5431   3.450   7.511   3.222 -0.1759  0.3581 -0.1800
   20MOL    C74 5432   3.326   7.579   3.231 -0.5652  0.3760  0.1364
   20MOL    C75 5433   3.237   7.570   3.124 -0.3876  0.3815 -0.7613
   20MOL    C76 5434   3.110   7.636   3.146 -0.3231  0.0254 -0.3483
   20MOL    C77 5435   3.017   7.651   3.051  1.1212 -0.1471  0.0374
   20MOL    C78 5436   3.281   7.509   3.006 -0.4161 -0.3894 -0.5951
   20MOL    C79 5437   3.400   7.432   2.993 -0.2939  0.0114 -0.1609
   20MOL    H80 5438   3.509   7.514   3.313  1.6667 -0.2879 -1.3293
   20MOL    H81 5439   3.292   7.620   3.325  0.9379 -0.1060  0.9104
   20MOL    H82 5440   3.085   7.662   3.248  1.0085 -3.0565  0.8362
   20MOL    H83 5441   3.045   7.618   2.952  3.1116 -1.7311  1.0865
   20MOL    H84 5442   3.215   7.502   2.921  1.4115 -1.3318 -1.9913
   20MOL    H85 5443   3.420   7.368   2.908  0.1701  0.6505 -0.5340
   20MOL    C86 5444   2.881   7.706   3.069 -0.4632  0.1241  0.3278
   20MOL    C87 5445   2.842   7.771   3.189 -0.3260 -0.1226  0.8640
   20MOL    C88 5446   2.710   7.813   3.200 -0.1407 -0.2262 -0.5025
   20MOL    C89 5447   2.621   7.804   3.092 -0.0958 -0.0299  0.3363
   20MOL    C90 5448   2.490   7.868   3.105  0.6003 -0.2424  0.3331
   20MOL    C91 5449   2.384   7.829   3.035  0.7965  0.5252  0.4970
   20MOL    C92 5450   2.663   7.745   2.970 -0.1214 -0.0770 -0.2158
   20MOL    C93 5451   2.794   7.700   2.955 -0.1620 -0.0935 -0.3429
   20MOL    H94 5452   2.899   7.781   3.280  1.7414  3.8956 -0.7842
   20MOL    H95 5453   2.674   7.851   3.294  1.9737 -0.6358  0.4954
   20MOL    H96 5454   2.478   7.955   3.169  0.2730  0.4279 -0.6312
   20MOL    H97 5455   2.392   7.746   2.967  1.5556  3.7373 -3.5236
   20MOL    H98 5456   2.598   7.738   2.883 -2.2853  1.9912  1.1561
   20MOL    H99 5457   2.826   7.665   2.859  3.0107  2.4023 -0.2670
   20MOL   C100 5458   2.253   7.895   3.037  1.2857 -0.0071  0.8091
   20MOL   C101 5459   2.239   8.027   3.086 -0.4194 -0.1094 -0.1665
   20MOL   C102 5460   2.118   8.091   3.098 -0.6622 -0.0316 -0.2889
   20MOL   C103 5461   1.998   8.026   3.051  0.3159 -0.5647  0.5673
   20MOL   C104 5462   1.880   8.101   3.035 -0.3757 -0.1956  0.0258
   20MOL   C105 5463   1.769   8.047   2.987  0.6066  0.3462  0.0505
   20MOL   C106 5464   2.004   7.885   3.022 -0.5673 -0.1436 -0.2687
   20MOL   C107 5465   2.130   7.824   3.008 -0.4547 -0.2615 -0.0456
   20MOL   H108 5466   2.322   8.078   3.132  0.2550  0.2635 -1.7416
   20MOL   H109 5467   2.107   0.049   3.129  3.5767  0.0622  1.1885
   20MOL   H110 5468   1.889   0.060   3.064  0.8885 -0.8527  2.0783
   20MOL   H111 5469   1.770   7.946   2.951  3.8336 -0.3788  2.0008
   20MOL   H112 5470   1.912   7.831   3.004 -1.7617  1.8264 -0.1230
   20MOL   H113 5471   2.135   7.716   2.998  2.1754 -0.1376 -0.3038
   20MOL   C114 5472   1.638   8.103   2.969 -0.0115  0.1231 -0.1522
   20MOL   C115 5473   1.540   8.009   2.935  0.0742 -0.1437 -0.0112
   20MOL   C116 5474   1.407   8.044   2.935 -0.2627 -0.2671  0.0116
   20MOL   C117 5475   1.375   0.035   2.959 -0.3713 -0.2272  0.2909
   20MOL   C118 5476   1.235   0.077   2.969 -0.3439 -0.6333  0.0970
   20MOL   C119 5477   1.173   0.196   2.984  0.0865  0.4851  0.4805
   20MOL   C120 5478   1.471   0.131   2.980 -0.2845 -0.4329 -0.2942
   20MOL   C121 5479   1.606   0.094   2.995 -0.1037 -0.8186 -0.5134
   20MOL   H122 5480   1.569   7.907   2.912  0.6347  0.4639 -2.1477
   20MOL   H123 5481   1.328   7.974   2.916 -2.3325  2.3237 -1.2960
   20MOL   H124 5482   1.174   8.133   2.954 -0.1625 -0.3880 -2.2846
   20MOL   H125 5483   1.236   0.284   2.989 -0.2469  0.6404  2.6175
   20MOL   H126 5484   1.433   0.229   3.003  3.0047  1.2614 -1.8030
   20MOL   H127 5485   1.684   0.164   3.021 -1.9498  0.9571  0.3990
   20MOL   C128 5486   1.026   0.217   2.981 -0.1006  1.3211  0.4457
   20MOL   C129 5487   0.943   0.124   2.916 -1.1774 -0.2739  0.0808
   20MOL   C130 5488   0.804   0.148   2.907  0.1455 -0.4424  0.2795
   20MOL   C131 5489   0.749   0.271   2.957  0.0715 -0.2316 -0.0530
   20MOL   C132 5490   0.616   0.313   2.926  0.0788 -0.0624  0.1364
   20MOL   C133 5491   0.546   0.409   2.980 -0.5842  0.6733  0.1063
   20MOL   C134 5492   0.835   0.353   3.041  0.0841 -0.2328  0.1673
   20MOL   C135 5493   0.973   0.327   3.047  0.1354 -0.4510 -0.5328
   20MOL   H136 5494   0.985   0.042   2.860  1.5115 -0.0369  1.6585
   20MOL   H137 5495   0.736   0.089   2.848 -0.2877  0.1233  0.2020
   20MOL   H138 5496   0.578   0.246   2.849 -0.6162  1.0827 -0.5336
   20MOL   H139 5497   0.581   0.470   3.062 -0.2646 -1.8970  1.9358
   20MOL   H140 5498   0.798   0.437   3.097  1.8936 -1.5411  3.4924
   20MOL   H141 5499   1.041   0.397   3.093  0.7195 -1.4466  0.1307
   20MOL   C142 5500   0.409   0.440   2.941  0.4169  0.6769 -0.6990
   20MOL   C143 5501   0.334   0.361   2.849  0.2487 -0.0973  0.7978
   20MOL   C144 5502   0.204   0.405   2.811 -0.9538  0.0846 -0.2105
   20MOL   C145 5503   0.136   0.509   2.875  0.3150  0.1852 -0.8623
   20MOL   C146 5504   0.004   0.554   2.833  0.3704 -0.4319  0.9333
   20MOL   C147 5505   8.077   0.514   2.724  0.1441 -0.1900 -0.0157
   20MOL   C148 5506   0.209   0.580   2.966  0.3527 -0.4811 -0.3719
   20MOL   C149 5507   0.345   0.553   2.999 -0.1002 -0.3003  0.0700
   20MOL   H150 5508   0.368   0.268   2.806  0.7205  0.1436  0.6518
   20MOL   H151 5509   0.150   0.344   2.740  1.2744 -3.4684  1.0316
   20MOL   H152 5510   8.113   0.628   2.904  0.1600  1.5196 -1.1564
   20MOL   H153 5511   8.126   0.432   2.675  1.1243 -0.7715  1.9296
   20MOL   H154 5512   0.166   0.661   3.023 -0.2760 -0.0465 -1.4509
   20MOL   H155 5513   0.400   0.616   3.067 -0.6056  1.4865 -1.1605
   20MOL   C156 5514   7.944   0.564   2.674 -0.0503  0.0034  0.6981
   20MOL   C157 5515   7.853   0.630   2.761  0.2370  0.8668 -0.4846
   20MOL   C158 5516   7.729   0.671   2.703  0.4729  0.3815 -0.1956
   20MOL   C159 5517   7.691   0.628   2.573 -0.3653  0.6228 -0.1348
   20MOL   C160 5518   7.554   0.657   2.522 -0.2645 -0.1392  0.4670
   20MOL   C161 5519   7.515   0.659   2.392  0.5146  0.4821 -0.0866
   20MOL   C162 5520   7.782   0.558   2.490 -0.1948  0.3822 -0.1948
   20MOL   C163 5521   7.913   0.530   2.543  0.2634 -0.0691 -0.0215
   20MOL   H164 5522   7.877   0.656   2.863 -2.1725  0.5877  0.1759
   20MOL   H165 5523   7.665   0.739   2.758  1.2185  1.1800 -0.2947
   20MOL   H166 5524   7.485   0.671   2.603  0.0568  1.1344  0.5328
   20MOL   H167 5525   7.591   0.644   2.316 -0.1597 -1.3372 -0.4225
   20MOL   H168 5526   7.765   0.525   2.388  0.2738  0.8126 -0.4163
   20MOL   H169 5527   7.993   0.482   2.486  0.9093 -1.8642  2.3229
   20MOL   C170 5528   7.373   0.661   2.337  0.2530 -0.5393 -0.3043
   20MOL   C171 5529   7.261   0.610   2.409 -0.6614  0.3905  0.1145
   20MOL   C172 5530   7.130   0.636   2.363 -0.0865 -0.3815 -0.0994
   20MOL   C173 5531   7.107   0.698   2.238 -0.3750  1.0756 -0.3654
   20MOL   C174 5532   6.972   0.723   2.179  0.2733  0.5499 -0.2138
   20MOL   C175 5533   6.943   0.839   2.121 -0.6973  0.4027  0.3068
   20MOL   C176 5534   7.222   0.730   2.161  0.2279 -0.0203  0.1751
   20MOL   C177 5535   7.354   0.719   2.206  0.8413 -0.6765  0.5645
   20MOL   H178 5536   7.281   0.560   2.503  1.5899 -1.1118 -1.1000
   20MOL   H179 5537   7.045   0.597   2.417  0.4584 -1.1454  0.2148
   20MOL   H180 5538   6.903   0.641   2.190 -0.4792  1.1085 -0.6973
   20MOL   H181 5539   7.019   0.915   2.127  0.4398 -0.5682 -1.1865
   20MOL   H182 5540   7.199   0.765   2.062 -1.1826  1.6786  1.0884
   20MOL   H183 5541   7.448   0.731   2.154  1.6709 -1.4632  1.8342
   20MOL   C184 5542   6.819   0.866   2.042 -0.4206 -0.9490  0.3532
   20MOL   C185 5543   6.785   1.000   2.007 -0.1124 -0.1692 -0.0290
   20MOL   C186 5544   6.683   1.027   1.912  0.0929 -0.1627 -0.5746
   20MOL   C187 5545   6.620   0.916   1.853  0.4056 -0.4690  0.0518
   20MOL   C188 5546   6.511   0.932   1.755  0.2190 -0.5136  0.0760
   20MOL   C189 5547   6.447   1.044   1.714  0.5311 -0.0244  0.2589
   20MOL   C190 5548   6.660   0.787   1.885  0.2528 -0.2046 -0.2032
   20MOL   C191 5549   6.759   0.760   1.972  0.1600  0.5872 -0.4261
   20MOL   H192 5550   6.837   1.087   2.044 -1.9101  0.2039  1.7131
   20MOL   H193 5551   6.666   1.130   1.884 -3.2903 -0.1333  1.2603
   20MOL   H194 5552   6.471   0.841   1.713  0.1644  0.1163 -1.2574
   20MOL   H195 5553   6.477   1.138   1.758  0.6814 -1.2656  2.9185
   20MOL   H196 5554   6.617   0.700   1.838 -1.0155 -0.2433  1.0137
   20MOL   H197 5555   6.791   0.658   1.987  3.3427  1.5496 -0.4249
   20MOL   C198 5556   6.328   1.051   1.623 -0.1841 -0.5192  0.2438
   20MOL   C199 5557   6.282   1.181   1.598  1.1479  0.0977 -0.7226
   20MOL   C200 5558   6.168   1.199   1.507 -0.2174 -0.1530 -0.8962
   20MOL   C201 5559   6.106   1.093   1.443  0.3715  0.0351 -0.2933
   20MOL   C202 5560   5.993   1.110   1.348  0.7525  0.0001  0.4717
   20MOL   C203 5561   5.937   1.224   1.297 -0.2747  0.0292 -0.0980
   20MOL   C204 5562   6.151   0.963   1.471  1.0140 -0.6362 -0.3992
   20MOL   C205 5563   6.263   0.943   1.559  0.6133  0.5909 -0.4838
   20MOL   H206 5564   6.323   1.270   1.643 -2.7619  1.8784 -0.4773
   20MOL   H207 5565   6.130   1.298   1.489  0.5946  0.2127 -0.6159
   20MOL   H208 5566   5.958   1.016   1.308 -0.9572  0.2226  1.3889
   20MOL   H209 5567   5.976   1.319   1.332 -2.1417  1.9607 -3.0844
   20MOL   H210 5568   6.108   0.874   1.426 -1.6618 -1.6499  3.8238
   20MOL   H211 5569   6.301   0.842   1.558  1.3796  0.8899 -2.3261
   20MOL   C212 5570   5.820   1.220   1.210 -0.2218  0.0880 -0.0919
   20MOL   C213 5571   5.740   1.108   1.197  0.0431 -0.3470  0.1457
   20MOL   C214 5572   5.635   1.108   1.105 -0.1152  1.1015 -0.3523
   20MOL   C215 5573   5.613   1.212   1.010 -0.9142 -0.6297  0.0244
   20MOL   C216 5574   5.514   1.211   0.902 -0.2026 -0.4735  0.6362
   20MOL   C217 5575   5.424   1.110   0.882 -0.6525 -0.0289  0.1086
   20MOL   C218 5576   5.706   1.321   1.012  0.0438  0.3422  0.6115
   20MOL   C219 5577   5.799   1.327   1.118  0.7112  0.4509 -0.1719
   20MOL   H220 5578   5.773   1.021   1.253  1.0284 -0.3465 -0.4369
   20MOL   H221 5579   5.571   1.021   1.112  2.0036 -0.4104  0.6849
   20MOL   H222 5580   5.530   1.296   0.838 -1.3070 -0.3951  0.4450
   20MOL   H223 5581   5.439   1.023   0.943 -0.1259 -0.6586 -0.9068
   20MOL   H224 5582   5.701   1.408   0.948 -0.4793 -0.0596  0.0918
   20MOL   H225 5583   5.867   1.410   1.111 -2.0801  2.8426  0.2366
   20MOL   C226 5584   5.311   1.103   0.786 -0.4588 -0.3868  0.1833
   20MOL   C227 5585   5.223   0.994   0.799  0.0434 -0.4364 -0.5310
   20MOL   C228 5586   5.121   0.966   0.706  0.0698  0.1802 -0.8124
   20MOL   C229 5587   5.093   1.070   0.609  0.0077 -0.4706  0.1809
   20MOL   C230 5588   4.985   1.065   0.505 -0.1286 -0.1172  0.0208
   20MOL   C231 5589   4.921   0.951   0.474 -0.3118  0.2565  0.3112
   20MOL   C232 5590   5.178   1.182   0.598 -0.2700 -0.3593 -0.6203
   20MOL   C233 5591   5.283   1.198   0.686  0.4791  0.2118  0.7260
   20MOL   H234 5592   5.239   0.923   0.878 -1.3283  0.5931  0.7005
   20MOL   H235 5593   5.055   0.880   0.714  2.9527 -2.0617 -0.1350
   20MOL   H236 5594   4.961   1.160   0.460 -1.1835 -0.5042 -0.2323
   20MOL   H237 5595   4.946   0.857   0.521  0.6119 -0.7366 -2.1323
   20MOL   H238 5596   5.171   1.272   0.539 -1.4033 -0.2466 -0.3210
   20MOL   H239 5597   5.347   1.283   0.668  0.3396 -0.1209 -1.4452
   20MOL   C240 5598   4.801   0.940   0.386 -0.1217 -0.0220  0.6206
   20MOL   C241 5599   4.734   1.056   0.339 -0.3399  0.2465  0.8011
   20MOL   C242 5600   4.614   1.038   0.265 -0.3956 -1.0578 -0.5944
   20MOL   C243 5601   4.570   0.910   0.222  0.6201 -0.4088 -0.6506
   20MOL   C244 5602   4.458   0.883   0.138 -0.0106  0.1897  0.1004
   20MOL   C245 5603   4.367   0.969   0.095 -0.4510 -0.0255 -0.2180
   20MOL   C246 5604   4.638   0.797   0.272 -0.6245  0.5460  0.6084
   20MOL   C247 5605   4.753   0.811   0.350  0.0840 -0.7907 -0.0679
   20MOL   H248 5606   4.761   1.159   0.359  0.3460  0.2559 -0.1330
   20MOL   H249 5607   4.561   1.128   0.242  0.9059 -0.0793  0.1348
   20MOL   H250 5608   4.442   0.778   0.120 -0.3088  0.0506  1.1561
   20MOL   H251 5609   4.392   1.074   0.100  1.1945 -0.3629 -0.8002
   20MOL   H252 5610   4.604   0.696   0.257  1.3551 -0.1679  0.7753
   20MOL   H253 5611   4.801   0.723   0.389  2.3292  0.4698  0.1181
   20MOL   C254 5612   4.249   0.931   0.022  0.5826  0.4193 -0.2947
   20MOL   C255 5613   4.214   0.800   8.139  0.8741  0.6342 -0.4215
   20MOL   C256 5614   4.103   0.771   8.057 -0.9111 -0.1674 -0.2884
   20MOL   C257 5615   4.018   0.878   8.012  0.3644 -0.4734  0.6904
   20MOL   C258 5616   3.894   0.855   7.935  0.2430 -0.1511  0.1726
   20MOL   C259 5617   3.880   0.760   7.835 -0.1178  0.9440 -0.1600
   20MOL   C260 5618   4.051   1.011   8.045  0.4044  0.6618 -0.1906
   20MOL   C261 5619   4.170   1.036   8.119  1.0152  0.0567 -0.2455
   20MOL   H262 5620   4.270   0.711   0.020  0.2554 -0.2876 -2.1770
   20MOL   H263 5621   4.081   0.671   8.021 -0.2600 -0.1389 -0.7706
   20MOL   H264 5622   3.812   0.914   7.974  1.9710  1.3970  1.5536
   20MOL   H265 5623   3.782   0.741   7.794  0.6190 -0.8916 -1.1373
   20MOL   H266 5624   3.993   1.096   8.011 -1.1782 -0.7360 -1.0074
   20MOL   H267 5625   4.204   1.138   8.134  0.0728 -0.0325  2.7656
   20MOL   C268 5626   3.988   0.684   7.772  0.6126  0.8429 -0.2902
   20MOL   C269 5627   3.979   0.548   7.728  0.1652  1.0133 -0.8290
   20MOL   C270 5628   4.092   0.484   7.676  0.1967 -0.0837  0.7369
   20MOL   C271 5629   4.211   0.551   7.665  0.3693 -0.2852 -0.4030
   20MOL   C272 5630   4.328   0.472   7.611 -0.0002  0.3585 -0.2409
   20MOL   C273 5631   4.453   0.515   7.586  0.1114 -0.1211  0.6510
   20MOL   C274 5632   4.228   0.679   7.705  0.1714  0.3925  0.6579
   20MOL   C275 5633   4.116   0.749   7.754 -0.3339 -0.1867 -0.1396
   20MOL   H276 5634   3.883   0.501   7.738 -0.6070  2.4635 -1.2993
   20MOL   H277 5635   4.069   0.384   7.641 -1.6197 -0.1378  1.9833
   20MOL   H278 5636   4.310   0.367   7.594  0.5774  0.1734  0.2678
   20MOL   H279 5637   4.484   0.616   7.607 -0.0952 -0.4900  2.8440
   20MOL   H280 5638   4.327   0.721   7.703  0.6584 -0.5957  2.8620
   20MOL   H281 5639   4.122   0.853   7.781  1.0299  0.2753 -2.1016
   20MOL   H282 5640   4.523   0.444   7.544  1.5757  0.6132  1.8291
   21MOL     C1 5641   3.248   3.901   6.098  0.1566 -0.5481  0.5133
   21MOL     C2 5642   3.248   3.780   6.168  0.0037 -0.0289  0.2435
   21MOL     C3 5643   3.134   3.700   6.180  0.7458  0.1098  0.4634
   21MOL     C4 5644   3.015   3.736   6.111  0.4940  0.1802  0.4372
   21MOL     C5 5645   2.899   3.648   6.130 -0.4828  0.2680 -0.5028
   21MOL     C6 5646   2.783   3.635   6.054  1.1231 -0.3784 -0.6934
   21MOL     C7 5647   3.022   3.844   6.018 -0.1631 -0.0865 -0.0975
   21MOL     C8 5648   3.136   3.929   6.019  0.6485  0.1899  0.2532
   21MOL     H9 5649   3.335   3.763   6.230 -1.5913  1.1932  2.8952
   21MOL    H10 5650   3.125   3.618   6.249 -0.8275  1.6519  2.1601
   21MOL    H11 5651   2.906   3.581   6.215 -1.2604  1.5698  0.5957
   21MOL    H12 5652   2.781   3.695   5.964 -2.8341  1.4295  0.4915
   21MOL    H13 5653   2.928   3.864   5.968 -0.8629  0.7172  1.5110
   21MOL    H14 5654   3.135   4.016   5.955  0.4912  0.1457  0.1936
   21MOL    H15 5655   3.342   3.952   6.083 -0.8809  0.9535 -1.1344
   21MOL    C16 5656   2.666   3.555   6.079 -0.1379 -0.5328  0.3626
   21MOL    C17 5657   2.563   3.567   5.988  0.0207  1.1590  0.2101
   21MOL    C18 5658   2.441   3.494   6.000  0.5831  0.6082 -0.3839
   21MOL    C19 5659   2.427   3.391   6.096  0.4034  0.0087 -0.7130
   21MOL    C20 5660   2.309   3.304   6.101 -0.0386  1.1671  0.6135
   21MOL    C21 5661   2.216   3.292   6.006  0.2519  0.2541  0.7456
   21MOL    C22 5662   2.535   3.385   6.194  0.6582 -0.2465  0.3528
   21MOL    C23 5663   2.656   3.458   6.178  0.2025 -0.3260  0.0723
   21MOL    H24 5664   2.557   3.640   5.908 -2.5709  0.8626  0.0850
   21MOL    H25 5665   2.374   3.506   5.917  3.0051  0.4559 -2.4216
   21MOL    H26 5666   2.293   3.252   6.194 -0.5470 -0.7779 -0.5322
   21MOL    H27 5667   2.237   3.353   5.920 -1.6721  0.1947  0.2002
   21MOL    H28 5668   2.519   3.318   6.277 -3.4554 -1.4636 -1.2794
   21MOL    H29 5669   2.733   3.445   6.252 -0.9845  3.9754  2.2308
   21MOL    C30 5670   2.093   3.208   6.022  0.0815 -0.5275 -0.1296
   21MOL    C31 5671   2.036   3.161   5.905  0.1207  0.4585  0.3035
   21MOL    C32 5672   1.927   3.071   5.914 -0.2266 -0.3082  0.2438
   21MOL    C33 5673   1.868   3.039   6.040 -0.3258  0.3090  0.0695
   21MOL    C34 5674   1.750   2.952   6.055 -0.3519  0.1841  0.5404
   21MOL    C35 5675   1.682   2.904   5.953  0.0590 -0.4746 -0.0566
   21MOL    C36 5676   1.926   3.094   6.154  0.6120  0.2044 -0.1475
   21MOL    C37 5677   2.040   3.171   6.147 -0.0923 -0.0441  0.5400
   21MOL    H38 5678   2.088   3.171   5.811  2.5131 -0.4776  1.5188
   21MOL    H39 5679   1.880   3.034   5.823  1.1203 -1.8639  0.1673
   21MOL    H40 5680   1.707   2.922   6.149  0.8394 -1.3407  0.6116
   21MOL    H41 5681   1.705   2.939   5.853 -1.1056 -0.8435 -0.4673
   21MOL    H42 5682   1.885   3.076   6.253  1.5334 -0.7364  0.0793
   21MOL    H43 5683   2.071   3.209   6.244  2.5411 -2.5877  0.7445
   21MOL    C44 5684   1.565   2.813   5.952  0.2509 -0.2506  0.2221
   21MOL    C45 5685   1.506   2.776   5.828  0.6012 -0.3397  0.0523
   21MOL    C46 5686   1.387   2.696   5.825  0.5857  0.1769 -0.7511
   21MOL    C47 5687   1.323   2.665   5.949  0.9355 -0.4116  0.8513
   21MOL    C48 5688   1.188   2.603   5.949 -0.7856  0.4023 -0.0185
   21MOL    C49 5689   1.147   2.511   5.859 -0.4901  0.2022  0.0380
   21MOL    C50 5690   1.387   2.694   6.068 -0.2496 -0.1701  0.0540
   21MOL    C51 5691   1.505   2.768   6.074 -0.8449 -0.6170 -0.0040
   21MOL    H52 5692   1.540   2.827   5.740 -0.9845  0.0065 -0.3825
   21MOL    H53 5693   1.337   2.681   5.730 -0.6999  2.3929 -0.4529
   21MOL    H54 5694   1.126   2.640   6.030 -0.6762  0.1968  0.1607
   21MOL    H55 5695   1.211   2.474   5.780  0.2074  4.9376 -1.7544
   21MOL    H56 5696   1.336   2.673   6.161 -4.8751 -0.0598 -2.2730
   21MOL    H57 5697   1.547   2.780   6.173  0.1705 -3.0392 -0.1106
   21MOL    C58 5698   1.016   2.452   5.852 -0.5140 -0.0066 -0.4569
   21MOL    C59 5699   1.003   2.323   5.792 -0.0007 -0.1661 -0.1104
   21MOL    C60 5700   0.873   2.272   5.777 -0.0137 -0.7409 -0.2750
   21MOL    C61 5701   0.761   2.351   5.821  0.2152  0.4268  0.3750
   21MOL    C62 5702   0.626   2.293   5.804 -0.3782 -0.1463  0.5408
   21MOL    C63 5703   0.507   2.345   5.831 -0.0585  0.1739  0.3255
   21MOL    C64 5704   0.776   2.470   5.887 -0.1271 -0.3537 -0.0487
   21MOL    C65 5705   0.905   2.521   5.911 -0.0315  0.0484  0.9831
   21MOL    H66 5706   1.094   2.282   5.750  0.2105 -0.6615  0.8179
   21MOL    H67 5707   0.852   2.180   5.724  0.6067  0.2732 -2.3290
   21MOL    H68 5708   0.636   2.199   5.752 -0.7637  0.4811 -0.6847
   21MOL    H69 5709   0.495   2.442   5.877 -1.6215  2.4542 -4.5010
   21MOL    H70 5710   0.692   2.518   5.936 -1.5852 -0.6431 -2.1921
   21MOL    H71 5711   0.925   2.616   5.958  2.2808  0.8954 -1.5532
   21MOL    C72 5712   0.381   2.270   5.810 -0.7205  0.7210 -0.0874
   21MOL    C73 5713   0.269   2.334   5.769 -0.1537  0.7840 -0.0272
   21MOL    C74 5714   0.151   2.261   5.744 -0.0176  0.2179  0.6745
   21MOL    C75 5715   0.144   2.124   5.750  0.5919  0.4682  0.1502
   21MOL    C76 5716   0.013   2.058   5.721  0.0546  0.5313 -0.0726
   21MOL    C77 5717   8.131   1.928   5.743 -0.3618  0.5032 -0.0613
   21MOL    C78 5718   0.263   2.058   5.791  0.3535 -0.0224  0.1521
   21MOL    C79 5719   0.378   2.127   5.812 -0.5846 -0.1507 -0.2236
   21MOL    H80 5720   0.266   2.441   5.755 -0.6173  0.8178  0.3213
   21MOL    H81 5721   0.067   2.325   5.725 -0.4044 -0.2746  0.7235
   21MOL    H82 5722   8.081   2.123   5.682 -1.0335  1.0414  2.7762
   21MOL    H83 5723   0.065   1.867   5.786  0.1468 -1.5398 -3.6567
   21MOL    H84 5724   0.260   1.951   5.811 -1.3061 -0.2273 -1.1078
   21MOL    H85 5725   0.456   2.058   5.843 -0.3332 -1.7410 -4.1260
   21MOL    C86 5726   8.005   1.863   5.711 -0.4336 -0.7169 -0.1600
   21MOL    C87 5727   7.917   1.911   5.615  0.0573 -0.2842  0.6684
   21MOL    C88 5728   7.792   1.849   5.591  0.6416 -0.5706 -0.2607
   21MOL    C89 5729   7.755   1.744   5.677  1.1019  0.4899  0.1822
   21MOL    C90 5730   7.629   1.664   5.660  0.9964  0.1627 -0.3359
   21MOL    C91 5731   7.536   1.679   5.564 -0.2352 -0.0179  0.3658
   21MOL    C92 5732   7.838   1.704   5.783  0.1554  0.2380 -0.3830
   21MOL    C93 5733   7.962   1.759   5.793 -0.1074  0.6088 -0.0608
   21MOL    H94 5734   7.946   1.995   5.554 -0.3020 -0.8117 -0.2324
   21MOL    H95 5735   7.722   1.886   5.518  0.3675  1.9427  1.2323
   21MOL    H96 5736   7.608   1.590   5.737  1.8999 -2.3599 -2.4320
   21MOL    H97 5737   7.561   1.750   5.487  0.2635 -1.7387 -1.0838
   21MOL    H98 5738   7.807   1.633   5.858 -1.4503 -0.0385 -1.2753
   21MOL    H99 5739   8.014   1.730   5.883 -0.7633  0.4622  0.2729
   21MOL   C100 5740   7.405   1.617   5.558  0.3485  0.8774 -0.7581
   21MOL   C101 5741   7.343   1.561   5.668 -0.0110  0.3791 -0.2841
   21MOL   C102 5742   7.206   1.521   5.661  0.5331 -0.0629  0.3444
   21MOL   C103 5743   7.145   1.517   5.530  0.5894  0.1723 -0.2265
   21MOL   C104 5744   7.003   1.464   5.520  0.2388 -0.6353 -0.5654
   21MOL   C105 5745   6.912   1.487   5.429 -0.7439 -0.1199 -0.1968
   21MOL   C106 5746   7.209   1.567   5.421  0.4998 -0.3710 -0.2621
   21MOL   C107 5747   7.338   1.616   5.433  0.9370  0.6598 -0.0620
   21MOL   H108 5748   7.384   1.566   5.768  0.8045 -3.3635 -0.3333
   21MOL   H109 5749   7.165   1.471   5.748 -0.1911 -1.9465 -1.0636
   21MOL   H110 5750   6.976   1.388   5.592 -1.1644 -1.9614 -2.4539
   21MOL   H111 5751   6.936   1.552   5.346  0.8448  2.3337  2.1280
   21MOL   H112 5752   7.147   1.564   5.332  0.3344  1.1977 -0.2232
   21MOL   H113 5753   7.387   1.645   5.341 -0.2002  1.6335 -0.3692
   21MOL   C114 5754   6.777   1.420   5.428  0.4304  0.5088  0.1385
   21MOL   C115 5755   6.723   1.337   5.529 -0.0270 -0.5414  0.4629
   21MOL   C116 5756   6.591   1.282   5.517  0.8702  0.3204  0.2727
   21MOL   C117 5757   6.525   1.280   5.398  0.5710 -0.6254 -0.1497
   21MOL   C118 5758   6.388   1.211   5.388  0.3107 -0.1006 -0.3714
   21MOL   C119 5759   6.293   1.213   5.292 -0.3923  0.0860 -0.3755
   21MOL   C120 5760   6.578   1.351   5.288 -0.0591  0.7030  0.5641
   21MOL   C121 5761   6.702   1.416   5.304  0.0818 -0.3040 -0.1769
   21MOL   H122 5762   6.773   1.332   5.624  0.7901  2.2891  0.2249
   21MOL   H123 5763   6.551   1.235   5.605  0.9067 -0.6917 -0.2414
   21MOL   H124 5764   6.376   1.144   5.472  2.9885  1.6402  1.4590
   21MOL   H125 5765   6.316   1.282   5.212  1.2847 -1.9856 -1.7288
   21MOL   H126 5766   6.518   1.355   5.199 -1.4069  3.8443  1.5575
   21MOL   H127 5767   6.725   1.484   5.223 -0.5232 -0.2324 -0.2992
   21MOL   C128 5768   6.171   1.127   5.292 -0.4056  0.5641  0.1393
   21MOL   C129 5769   6.117   1.077   5.173  0.1437 -0.0309  0.3805
   21MOL   C130 5770   6.004   0.993   5.182 -0.2280 -0.1242  0.8132
   21MOL   C131 5771   5.955   0.946   5.307 -0.2836  0.4495 -0.5327
   21MOL   C132 5772   5.856   0.837   5.319 -0.4776 -0.5310 -0.1934
   21MOL   C133 5773   5.815   0.745   5.228 -0.5606 -0.8150  0.4287
   21MOL   C134 5774   6.002   1.005   5.423  0.1038  0.6098 -0.0556
   21MOL   C135 5775   6.111   1.096   5.414  0.3389  0.4186 -0.4734
   21MOL   H136 5776   6.150   1.114   5.077 -0.0713  1.5440  0.8914
   21MOL   H137 5777   5.962   0.953   5.090  0.2140  2.4988 -0.5895
   21MOL   H138 5778   5.817   0.836   5.419  0.7593  0.9426  0.3156
   21MOL   H139 5779   5.853   0.751   5.127 -0.8718 -0.0115  0.3574
   21MOL   H140 5780   5.967   0.976   5.521  3.6118 -1.9325  0.5477
   21MOL   H141 5781   6.147   1.137   5.507  0.5186 -2.1723  0.6241
   21MOL   C142 5782   5.713   0.645   5.273  0.1743  0.5920 -0.1536
   21MOL   C143 5783   5.659   0.631   5.408 -0.2659 -0.1718  0.6241
   21MOL   C144 5784   5.563   0.530   5.438  0.1323  0.2842 -0.4410
   21MOL   C145 5785   5.530   0.433   5.346  0.3281  0.2865 -0.5779
   21MOL   C146 5786   5.448   0.317   5.384 -0.7030  1.1897 -0.1232
   21MOL   C147 5787   5.385   0.296   5.498  0.4411 -1.0724 -0.0224
   21MOL   C148 5788   5.583   0.452   5.217 -0.0855 -0.1094  0.1884
   21MOL   C149 5789   5.668   0.556   5.174  1.2659  0.4545 -0.5798
   21MOL   H150 5790   5.692   0.695   5.489 -0.4197 -1.3711  1.6486
   21MOL   H151 5791   5.517   0.544   5.535 -1.5645 -0.8201 -1.0546
   21MOL   H152 5792   5.438   0.243   5.305  0.3586 -0.9445  1.7010
   21MOL   H153 5793   5.380   0.375   5.571  1.6943 -0.6305 -0.4024
   21MOL   H154 5794   5.555   0.375   5.146  2.1116  0.4684 -1.3717
   21MOL   H155 5795   5.696   0.568   5.070 -2.3871 -0.7936 -1.7670
   21MOL   C156 5796   5.300   0.179   5.531 -0.6816 -0.2000  0.7606
   21MOL   C157 5797   5.282   0.068   5.449 -0.2735  0.3244  0.3972
   21MOL   C158 5798   5.194   8.108   5.482 -0.3435  0.0574 -0.2839
   21MOL   C159 5799   5.118   8.122   5.603  0.7527 -0.3672  0.2848
   21MOL   C160 5800   5.039   8.010   5.657 -0.6591 -0.3986 -0.5434
   21MOL   C161 5801   5.061   7.882   5.639 -0.2439  0.3493 -0.5809
   21MOL   C162 5802   5.142   0.089   5.686  0.1169 -0.2453 -0.4897
   21MOL   C163 5803   5.237   0.185   5.656 -0.1056  0.4539  0.0340
   21MOL   H164 5804   5.351   0.055   5.368  2.0484  3.1850  1.8094
   21MOL   H165 5805   5.171   8.023   5.420  0.5393 -1.2075  1.1177
   21MOL   H166 5806   4.966   8.044   5.729 -0.6421 -1.2758 -0.1179
   21MOL   H167 5807   5.140   7.861   5.568 -0.0680 -0.3654 -0.1675
   21MOL   H168 5808   5.088   0.098   5.779  1.9997 -1.6640  0.7742
   21MOL   H169 5809   5.237   0.269   5.724 -2.1128 -0.1168  0.7644
   21MOL   C170 5810   4.998   7.762   5.696  0.4692  0.5029 -0.4364
   21MOL   C171 5811   4.877   7.776   5.763  0.1697 -0.2466 -0.1183
   21MOL   C172 5812   4.822   7.670   5.829  0.0463  0.4456  0.0482
   21MOL   C173 5813   4.887   7.542   5.827 -0.4828  0.5088 -0.1201
   21MOL   C174 5814   4.829   7.434   5.917 -0.1866 -0.1599 -0.1039
   21MOL   C175 5815   4.890   7.324   5.967  0.8721 -0.2293 -0.5362
   21MOL   C176 5816   5.007   7.528   5.756  0.6282  0.1656  0.0979
   21MOL   C177 5817   5.066   7.644   5.696  0.1227 -0.0802 -0.1437
   21MOL   H178 5818   4.829   7.872   5.770  0.9986  0.1699 -0.1213
   21MOL   H179 5819   4.735   7.678   5.892 -0.5358  0.7515 -0.7862
   21MOL   H180 5820   4.725   7.444   5.944 -0.5596 -1.1066 -1.1589
   21MOL   H181 5821   4.994   7.314   5.938  1.3704  0.1849  1.0785
   21MOL   H182 5822   5.048   7.428   5.763 -0.0948  0.0455  3.3666
   21MOL   H183 5823   5.163   7.630   5.651  0.5399  1.9690  0.0678
   21MOL   C184 5824   4.834   7.223   6.056  0.0719  0.1840 -0.7875
   21MOL   C185 5825   4.699   7.229   6.100  0.0398  0.0631  0.1458
   21MOL   C186 5826   4.648   7.125   6.184  0.2219  0.2422  0.3487
   21MOL   C187 5827   4.727   7.013   6.215  0.5358  0.1655 -0.1693
   21MOL   C188 5828   4.671   6.896   6.273 -0.8559 -0.3893 -0.1957
   21MOL   C189 5829   4.547   6.872   6.301 -0.2997 -0.8495  0.0304
   21MOL   C190 5830   4.863   7.015   6.181  0.1304  0.1146  0.0707
   21MOL   C191 5831   4.917   7.125   6.108  0.0733 -0.1750 -1.0289
   21MOL   H192 5832   4.624   7.301   6.072 -1.4871 -1.9011 -0.9164
   21MOL   H193 5833   4.542   7.125   6.206  0.4599 -0.3089  1.5099
   21MOL   H194 5834   4.747   6.821   6.291 -0.1768  0.2507 -0.3685
   21MOL   H195 5835   4.472   6.945   6.273 -0.2242 -0.5623  0.5715
   21MOL   H196 5836   4.930   6.933   6.200 -0.0135 -0.1259 -0.4647
   21MOL   H197 5837   5.020   7.118   6.079  0.5317 -1.2946  0.7718
   21MOL   C198 5838   4.498   6.762   6.384 -0.8956  0.3206 -0.2823
   21MOL   C199 5839   4.364   6.734   6.392  0.0014 -0.0912  0.1372
   21MOL   C200 5840   4.308   6.626   6.464  0.9560 -0.4450  0.4260
   21MOL   C201 5841   4.388   6.545   6.546 -0.7942 -0.0132  0.1527
   21MOL   C202 5842   4.343   6.431   6.627  0.7439 -0.7333  0.2021
   21MOL   C203 5843   4.219   6.374   6.609  0.1396  0.4768  0.1945
   21MOL   C204 5844   4.526   6.575   6.547 -0.0906  0.2160  0.3571
   21MOL   C205 5845   4.579   6.682   6.466 -0.4162  0.2373  0.8329
   21MOL   H206 5846   4.294   6.792   6.335 -1.0254  0.7794  2.2056
   21MOL   H207 5847   4.209   6.588   6.441  0.6010  0.4001  0.5497
   21MOL   H208 5848   4.412   6.391   6.699 -2.6298 -4.6714  1.4328
   21MOL   H209 5849   4.147   6.411   6.538 -0.8414 -0.3102  0.7639
   21MOL   H210 5850   4.602   6.535   6.612  0.0883  1.4331  0.9117
   21MOL   H211 5851   4.686   6.689   6.471 -0.3063 -0.0684 -0.9880
   21MOL   C212 5852   4.176   6.249   6.677 -0.0230 -0.1583  0.2634
   21MOL   C213 5853   4.036   6.232   6.718 -0.2675 -0.1505 -0.6383
   21MOL   C214 5854   3.989   6.112   6.776 -0.1804  0.2281 -0.3136
   21MOL   C215 5855   4.080   6.013   6.812  0.5730 -0.6903 -0.1545
   21MOL   C216 5856   4.035   5.898   6.886 -0.0388 -0.0360  0.0087
   21MOL   C217 5857   4.118   5.819   6.960  0.4739 -0.3511  0.3539
   21MOL   C218 5858   4.217   6.024   6.780 -1.0245 -0.8379  0.2044
   21MOL   C219 5859   4.264   6.141   6.706 -0.0840 -0.2768  0.2088
   21MOL   H220 5860   3.972   6.318   6.711  0.5461  0.5805  0.6476
   21MOL   H221 5861   3.882   6.100   6.790 -0.2427  2.8364  1.7816
   21MOL   H222 5862   3.929   5.881   6.873 -0.7301  3.4977  0.5728
   21MOL   H223 5863   4.222   5.847   6.973  0.2455  0.3012  0.7579
   21MOL   H224 5864   4.288   5.944   6.794 -1.4600 -0.9559  1.8795
   21MOL   H225 5865   4.367   6.138   6.675 -0.2653 -1.9119 -0.2832
   21MOL   C226 5866   4.078   5.692   7.024 -0.4235 -0.4463  0.3698
   21MOL   C227 5867   4.175   5.616   7.092  0.3148 -0.3998 -0.8207
   21MOL   C228 5868   4.132   5.502   7.167 -0.4415 -0.1245  0.0982
   21MOL   C229 5869   3.993   5.464   7.170  0.5354  0.2044 -0.1100
   21MOL   C230 5870   3.940   5.345   7.244  0.1306  0.3588  0.1200
   21MOL   C231 5871   4.005   5.245   7.315 -0.0227 -0.1790  0.0160
   21MOL   C232 5872   3.902   5.534   7.096 -0.6345  0.2795  1.0468
   21MOL   C233 5873   3.944   5.639   7.020 -0.6628 -0.5239  0.3719
   21MOL   H234 5874   4.279   5.644   7.080 -0.0102  1.8494  1.4169
   21MOL   H235 5875   4.212   5.449   7.216 -0.1636  0.8673  0.7254
   21MOL   H236 5876   3.834   5.332   7.236  0.5062 -2.0211 -1.2182
   21MOL   H237 5877   4.110   5.239   7.339 -0.3482 -1.8793  1.0909
   21MOL   H238 5878   3.799   5.507   7.083 -0.5526  0.2587  0.4043
   21MOL   H239 5879   3.869   5.688   6.960  0.5703  0.6581 -0.2378
   21MOL   C240 5880   3.934   5.126   7.373  0.3582 -0.5253  0.2547
   21MOL   C241 5881   4.008   5.039   7.454  0.4580  0.4389  1.1814
   21MOL   C242 5882   3.953   4.923   7.515  0.2286 -0.0901 -0.0718
   21MOL   C243 5883   3.816   4.900   7.503  0.7786 -0.4865  0.2054
   21MOL   C244 5884   3.755   4.792   7.575 -0.2926 -0.2264 -0.5479
   21MOL   C245 5885   3.629   4.752   7.576  0.1096  0.2412 -0.4726
   21MOL   C246 5886   3.737   4.990   7.427 -0.4646  0.3698 -0.4895
   21MOL   C247 5887   3.796   5.102   7.368  0.3441 -1.1160 -0.4956
   21MOL   H248 5888   4.114   5.058   7.464  0.5229  0.2135  0.9142
   21MOL   H249 5889   4.013   4.866   7.584  1.0947 -1.1740 -1.6792
   21MOL   H250 5890   3.827   4.739   7.636 -0.2386 -1.5286 -1.7199
   21MOL   H251 5891   3.558   4.807   7.515 -1.1513 -0.7266  0.1043
   21MOL   H252 5892   3.630   4.988   7.410 -0.2214  0.9032 -2.0911
   21MOL   H253 5893   3.722   5.165   7.321  0.3298 -0.4685  0.3868
   21MOL   C254 5894   3.570   4.649   7.664 -0.1049  0.1417  0.9195
   21MOL   C255 5895   3.639   4.575   7.761  0.3904 -0.8674 -0.5223
   21MOL   C256 5896   3.565   4.486   7.849 -0.3817 -0.1313 -0.5589
   21MOL   C257 5897   3.426   4.463   7.826 -0.8191 -0.4860  0.9612
   21MOL   C258 5898   3.355   4.378   7.920 -0.7140 -0.5047  0.6944
   21MOL   C259 5899   3.237   4.393   7.979 -0.5384 -0.6116  0.1024
   21MOL   C260 5900   3.355   4.529   7.717 -0.5699  0.6703  0.7164
   21MOL   C261 5901   3.429   4.621   7.639  0.5230 -0.5091 -0.5088
   21MOL   H262 5902   3.744   4.595   7.768  0.4740 -1.8997  1.2922
   21MOL   H263 5903   3.616   4.438   7.931 -0.4162 -0.8258 -0.9402
   21MOL   H264 5904   3.406   4.285   7.938 -1.0642 -0.8162  0.0950
   21MOL   H265 5905   3.202   4.315   8.046 -1.2655 -0.0835  0.3467
   21MOL   H266 5906   3.252   4.500   7.701 -1.0446  1.2451  2.5539
   21MOL   H267 5907   3.376   4.680   7.566  0.1789  1.6588  1.4468
   21MOL   C268 5908   3.150   4.511   7.979  0.8410  0.1679 -0.5685
   21MOL   C269 5909   3.197   4.641   7.950  0.0318  0.1865 -0.3298
   21MOL   C270 5910   3.103   4.748   7.935  0.3990  0.2689  0.9780
   21MOL   C271 5911   2.965   4.739   7.962  0.5085 -0.1523  0.3970
   21MOL   C272 5912   2.872   4.851   7.928  0.4108 -0.2482 -0.3221
   21MOL   C273 5913   2.735   4.841   7.924  0.1507  0.6787 -1.0824
   21MOL   C274 5914   2.921   4.607   7.988 -0.5606 -0.5896 -0.4633
   21MOL   C275 5915   3.013   4.497   8.004 -0.5649 -0.1473  0.7629
   21MOL   H276 5916   3.301   4.667   7.937 -0.1067  1.1835  0.4703
   21MOL   H277 5917   3.143   4.842   7.898  0.5069 -0.2016 -0.1201
   21MOL   H278 5918   2.919   4.940   7.888 -1.5331  0.6190 -0.7388
   21MOL   H279 5919   2.684   4.751   7.955  0.6716  0.2234 -1.5508
   21MOL   H280 5920   2.820   4.577   8.009 -0.4446 -0.8957 -0.3329
   21MOL   H281 5921   2.964   4.403   8.021  0.3495 -1.2514 -2.3613
   21MOL   H282 5922   2.666   4.913   7.882 -0.8662  0.7768  0.6897
   22MOL     C1 5923   4.691   6.564   0.879 -0.7084  0.1014 -0.7166
   22MOL     C2 5924   4.802   6.592   0.792 -0.1765 -0.5690 -0.3527
   22MOL     C3 5925   4.933   6.551   0.825 -0.2160  0.2076  0.0469
   22MOL     C4 5926   4.954   6.484   0.950 -0.2414 -0.2962  0.1427
   22MOL     C5 5927   5.087   6.437   0.988  0.3296 -0.9564  0.2084
   22MOL     C6 5928   5.199   6.462   0.918  0.1584 -0.2229  0.2483
   22MOL     C7 5929   4.848   6.459   1.038 -0.2610 -0.0037  0.1086
   22MOL     C8 5930   4.716   6.488   0.998  0.0599  0.4214 -0.5428
   22MOL     H9 5931   4.778   6.636   0.696  1.7407 -0.5020 -0.8295
   22MOL    H10 5932   5.012   6.583   0.758 -1.5736  2.5293 -0.4930
   22MOL    H11 5933   5.081   6.362   1.066 -1.2441 -0.9435  0.1183
   22MOL    H12 5934   5.186   6.525   0.832  0.0956  0.1994  0.5625
   22MOL    H13 5935   4.859   6.403   1.129  0.3597  0.2697  0.2067
   22MOL    H14 5936   4.630   6.452   1.054  0.7812 -0.2427  0.1462
   22MOL    H15 5937   4.587   6.583   0.858 -1.1313 -1.8547 -0.4561
   22MOL    C16 5938   5.335   6.418   0.936  0.1198 -0.4480 -0.6739
   22MOL    C17 5939   5.374   6.351   1.051 -0.4367  0.4327 -0.1379
   22MOL    C18 5940   5.513   6.324   1.069  0.7102  0.0818  0.1885
   22MOL    C19 5941   5.607   6.363   0.971  0.2339 -0.2443  0.3738
   22MOL    C20 5942   5.759   6.355   0.991  0.8212  0.0176 -0.2762
   22MOL    C21 5943   5.825   6.294   1.095  0.3685  0.0396 -0.1991
   22MOL    C22 5944   5.562   6.417   0.849  0.1600  0.3841 -0.6725
   22MOL    C23 5945   5.426   6.445   0.831 -0.5283  0.1029  0.5710
   22MOL    H24 5946   5.307   6.324   1.132 -1.0232 -3.0886 -1.7199
   22MOL    H25 5947   5.541   6.270   1.159  2.4927  1.2457  0.3510
   22MOL    H26 5948   5.804   6.400   0.904  0.1610  2.9731  0.8445
   22MOL    H27 5949   5.767   6.263   1.181 -0.5750  0.8185 -0.5441
   22MOL    H28 5950   5.634   6.450   0.776 -0.2486  1.7107 -0.4940
   22MOL    H29 5951   5.397   6.489   0.737 -1.4742  1.1115  1.3180
   22MOL    C30 5952   5.973   6.291   1.110 -0.4142  0.3733  0.0448
   22MOL    C31 5953   6.064   6.339   1.011 -0.2887  0.8871  0.4687
   22MOL    C32 5954   6.206   6.325   1.026 -0.0482  0.3588  0.6660
   22MOL    C33 5955   6.256   6.251   1.137 -0.1511 -0.3294 -0.7009
   22MOL    C34 5956   6.400   6.228   1.143 -0.8919 -0.6945 -0.1450
   22MOL    C35 5957   6.455   6.205   1.262 -0.6107 -0.1244 -0.1758
   22MOL    C36 5958   6.170   6.197   1.231 -0.0327 -0.0983  0.3440
   22MOL    C37 5959   6.030   6.213   1.216  0.3071  0.1740 -0.3315
   22MOL    H38 5960   6.025   6.385   0.921 -1.6403 -2.3850 -0.7007
   22MOL    H39 5961   6.279   6.358   0.953  0.4042  0.4097  1.1398
   22MOL    H40 5962   6.462   6.234   1.055 -0.2987  0.4746  0.3326
   22MOL    H41 5963   6.403   6.200   1.357  0.7341  2.0676  0.7044
   22MOL    H42 5964   6.206   6.128   1.306  1.8669  0.9068  0.3748
   22MOL    H43 5965   5.958   6.174   1.287 -1.1958  0.8162 -1.4603
   22MOL    C44 5966   6.602   6.183   1.280  0.1667 -0.5209  0.1100
   22MOL    C45 5967   6.698   6.213   1.183 -0.6143 -0.2870 -0.0687
   22MOL    C46 5968   6.833   6.205   1.215 -0.6731 -0.0640  0.0691
   22MOL    C47 5969   6.875   6.146   1.337 -0.2065  0.1847  0.2805
   22MOL    C48 5970   7.025   6.129   1.370  0.5185  0.0749  0.0490
   22MOL    C49 5971   7.079   6.078   1.481 -0.5802 -0.4911 -0.0811
   22MOL    C50 5972   6.779   6.112   1.434  0.1258 -0.4851 -0.3009
   22MOL    C51 5973   6.644   6.134   1.408  0.1976 -0.9763  0.1436
   22MOL    H52 5974   6.666   6.245   1.086  0.1351 -1.1620 -0.6165
   22MOL    H53 5975   6.908   6.234   1.143 -0.2238  0.1922  0.6333
   22MOL    H54 5976   7.084   6.172   1.291  0.8011 -0.2464  0.0819
   22MOL    H55 5977   7.006   6.038   1.550  1.3221  1.4771  3.1969
   22MOL    H56 5978   6.813   6.080   1.531  0.2566 -1.0361 -0.5232
   22MOL    H57 5979   6.575   6.107   1.486  0.9244  1.5030  1.6885
   22MOL    C58 5980   7.220   6.059   1.520 -0.0638 -0.0883  0.8028
   22MOL    C59 5981   7.245   6.032   1.653  0.1414 -0.1774  0.1572
   22MOL    C60 5982   7.379   6.021   1.696 -0.2566  0.3823  0.1021
   22MOL    C61 5983   7.491   6.017   1.609  0.0310  0.2386 -0.0990
   22MOL    C62 5984   7.617   5.978   1.668  0.7418 -0.0160  0.6093
   22MOL    C63 5985   7.731   5.966   1.601  0.8361 -0.3071 -0.0253
   22MOL    C64 5986   7.462   6.042   1.473  0.4686  0.3241 -0.1701
   22MOL    C65 5987   7.330   6.076   1.431 -0.9076  0.2258  0.7933
   22MOL    H66 5988   7.164   6.025   1.723 -1.8848  0.6533 -2.0305
   22MOL    H67 5989   7.393   6.007   1.802 -1.2648 -0.3118  0.1428
   22MOL    H68 5990   7.615   5.950   1.773 -2.0691  0.0099  0.6022
   22MOL    H69 5991   7.729   5.993   1.497  0.2869  0.0618  0.0784
   22MOL    H70 5992   7.539   6.044   1.398 -1.5943 -2.0324 -2.4559
   22MOL    H71 5993   7.312   6.100   1.327 -1.1777 -2.2255  0.2305
   22MOL    C72 5994   7.858   5.902   1.649 -0.1460 -0.0026  0.6627
   22MOL    C73 5995   7.974   5.896   1.571  0.9882  0.2713  0.2389
   22MOL    C74 5996   8.093   5.831   1.617  0.1710  0.2638  0.1340
   22MOL    C75 5997   8.104   5.774   1.746  0.0834  0.1653 -0.1790
   22MOL    C76 5998   0.083   5.703   1.798  0.4082 -0.0372 -0.2775
   22MOL    C77 5999   0.208   5.721   1.751  0.2686 -0.5228  0.0913
   22MOL    C78 6000   7.985   5.771   1.825 -0.2785 -0.5728  0.1600
   22MOL    C79 6001   7.869   5.836   1.775  0.2731  0.2813 -0.0531
   22MOL    H80 6002   7.974   5.931   1.469 -0.7471 -0.0441  0.1123
   22MOL    H81 6003   0.027   5.829   1.542  0.4839  0.8650  0.4476
   22MOL    H82 6004   0.057   5.628   1.871 -0.4423  0.6824  0.1683
   22MOL    H83 6005   0.242   5.788   1.674 -0.9434 -0.7696 -0.6811
   22MOL    H84 6006   7.977   5.726   1.923 -0.1517 -0.0858  0.3985
   22MOL    H85 6007   7.782   5.840   1.839 -1.4734 -1.5400 -2.2350
   22MOL    C86 6008   0.315   5.643   1.809 -0.3738  0.1039  0.1504
   22MOL    C87 6009   0.292   5.579   1.935  0.4416 -0.1482  0.2736
   22MOL    C88 6010   0.399   5.503   1.989  0.2527 -0.5122 -0.2188
   22MOL    C89 6011   0.527   5.483   1.918  0.2257 -0.3402 -0.2787
   22MOL    C90 6012   0.638   5.406   1.974  0.0711  0.3020 -0.4964
   22MOL    C91 6013   0.619   5.311   2.069  0.3732  0.0504  0.1327
   22MOL    C92 6014   0.535   5.545   1.792  0.2731  0.5579  0.2623
   22MOL    C93 6015   0.436   5.631   1.742 -0.4882  0.4967  0.1303
   22MOL    H94 6016   0.209   5.605   1.999 -0.9045 -1.2339 -0.9963
   22MOL    H95 6017   0.392   5.472   2.092 -0.2593  0.8338  0.1643
   22MOL    H96 6018   0.739   5.427   1.942  0.5825 -0.4984  0.5537
   22MOL    H97 6019   0.516   5.300   2.101  0.2478 -0.9119 -0.5808
   22MOL    H98 6020   0.630   5.542   1.741 -0.7472 -1.6034 -1.5926
   22MOL    H99 6021   0.444   5.685   1.649  1.6681  1.1284  0.6603
   22MOL   C100 6022   0.721   5.225   2.123 -0.1606 -0.4582  0.1736
   22MOL   C101 6023   0.682   5.140   2.228  0.4198 -0.2776  0.1473
   22MOL   C102 6024   0.773   5.051   2.285  0.0351  0.1057  0.0484
   22MOL   C103 6025   0.908   5.046   2.243  0.3829 -0.0724 -0.1409
   22MOL   C104 6026   1.000   4.942   2.290  0.7488  0.3550 -0.0441
   22MOL   C105 6027   0.962   4.815   2.319  0.8306 -0.3465  0.2182
   22MOL   C106 6028   0.951   5.138   2.145  0.2597 -0.6940 -0.4096
   22MOL   C107 6029   0.858   5.224   2.090  0.4591 -0.7920 -1.0247
   22MOL   H108 6030   0.578   5.140   2.256  0.5214 -2.3471  0.6386
   22MOL   H109 6031   0.745   4.986   2.367  0.0255 -0.6223 -0.5351
   22MOL   H110 6032   1.104   4.970   2.297  1.0672 -1.1439  1.9662
   22MOL   H111 6033   0.860   4.791   2.296  0.8979 -1.1131  0.6758
   22MOL   H112 6034   1.052   5.132   2.108  0.1636  2.5128 -1.3584
   22MOL   H113 6035   0.892   5.292   2.013  0.4011  0.6941  0.2418
   22MOL   C114 6036   1.047   4.708   2.364 -0.2127 -0.1999 -0.2308
   22MOL   C115 6037   1.178   4.736   2.409 -0.2335 -0.0967  0.3792
   22MOL   C116 6038   1.258   4.633   2.458  0.1444 -0.1829  0.5430
   22MOL   C117 6039   1.216   4.496   2.452  0.3411 -1.2173  0.0565
   22MOL   C118 6040   1.297   4.396   2.510  0.6829 -0.2055 -0.8860
   22MOL   C119 6041   1.390   4.420   2.606 -0.3208 -0.0206 -0.5229
   22MOL   C120 6042   1.083   4.469   2.404 -0.0799 -0.0424 -0.4823
   22MOL   C121 6043   1.002   4.571   2.358  0.7168  0.7293  0.0117
   22MOL   H122 6044   1.210   4.838   2.416  1.0990 -0.2939 -2.2955
   22MOL   H123 6045   1.352   4.660   2.504 -0.7832  4.1953  0.1135
   22MOL   H124 6046   1.275   4.298   2.470  0.5432 -1.3625  1.9295
   22MOL   H125 6047   1.397   4.524   2.634 -0.8310 -0.2110  0.3449
   22MOL   H126 6048   1.047   4.368   2.393 -2.8926  1.0258 -1.6133
   22MOL   H127 6049   0.909   4.530   2.324  1.1410  1.9188 -2.7110
   22MOL   C128 6050   1.463   4.324   2.674 -0.1209 -0.0243 -0.1834
   22MOL   C129 6051   1.555   4.365   2.777  0.1837  0.2063 -0.4341
   22MOL   C130 6052   1.604   4.266   2.863 -0.9292 -0.0813 -0.4153
   22MOL   C131 6053   1.575   4.128   2.852 -0.0549 -0.4008  0.5004
   22MOL   C132 6054   1.610   4.036   2.961  0.0897  0.0230 -0.6729
   22MOL   C133 6055   1.611   3.906   2.943  0.3346  0.0376 -0.2296
   22MOL   C134 6056   1.499   4.086   2.739  0.5253 -0.1946 -0.3781
   22MOL   C135 6057   1.442   4.182   2.658 -0.3687  0.4490 -0.0888
   22MOL   H136 6058   1.577   4.468   2.800  0.4387 -0.1796  1.1059
   22MOL   H137 6059   1.667   4.295   2.946 -0.4743  0.1461 -0.8363
   22MOL   H138 6060   1.636   4.074   3.058  1.7060 -2.0368 -0.2855
   22MOL   H139 6061   1.602   3.861   2.845  0.2239  1.4670 -0.8912
   22MOL   H140 6062   1.486   3.981   2.717  0.7255  0.0091 -1.4900
   22MOL   H141 6063   1.366   4.139   2.595  1.7345 -2.4712 -0.7034
   22MOL   C142 6064   1.627   3.799   3.043  0.0730  0.4653  0.2690
   22MOL   C143 6065   1.675   3.831   3.171  0.4505  0.2213  0.0292
   22MOL   C144 6066   1.648   3.743   3.280  0.2430 -0.1977  0.3200
   22MOL   C145 6067   1.559   3.635   3.266 -0.9485  0.3717  0.7064
   22MOL   C146 6068   1.476   3.591   3.381  0.3131  0.2639 -0.2537
   22MOL   C147 6069   1.351   3.541   3.370  0.3979 -0.5289  0.3751
   22MOL   C148 6070   1.523   3.597   3.132 -1.0826 -0.1087  0.2742
   22MOL   C149 6071   1.559   3.675   3.023  0.0461  0.0316 -0.7686
   22MOL   H150 6072   1.731   3.920   3.198  0.2930  0.4116 -0.2675
   22MOL   H151 6073   1.678   3.773   3.379 -1.4005 -0.1127  0.8053
   22MOL   H152 6074   1.522   3.607   3.478  0.5211  2.4785 -0.6949
   22MOL   H153 6075   1.318   3.521   3.269 -0.3365  2.7754 -0.1040
   22MOL   H154 6076   1.456   3.517   3.102 -0.5693 -0.4191 -0.0366
   22MOL   H155 6077   1.529   3.650   2.922  1.0699 -0.6646 -0.9070
   22MOL   C156 6078   1.250   3.526   3.475  0.3441  0.4014 -0.3738
   22MOL   C157 6079   1.280   3.579   3.607  0.7685 -0.3999  0.7298
   22MOL   C158 6080   1.175   3.588   3.703  0.6912 -0.9917 -0.7747
   22MOL   C159 6081   1.047   3.520   3.681 -0.4174  0.1765 -0.5085
   22MOL   C160 6082   0.932   3.513   3.769 -0.2115  0.1464  0.7170
   22MOL   C161 6083   0.910   3.594   3.871  0.0713 -0.1538 -0.9559
   22MOL   C162 6084   1.024   3.469   3.549  0.1376 -0.0247 -0.2519
   22MOL   C163 6085   1.127   3.473   3.449  0.4111  0.7414  0.2001
   22MOL   H164 6086   1.379   3.607   3.638  0.3316  1.3636  0.5833
   22MOL   H165 6087   1.193   3.644   3.794 -0.4690 -3.3212  0.9342
   22MOL   H166 6088   0.869   3.431   3.739 -1.6367  0.8864  1.6588
   22MOL   H167 6089   0.987   3.664   3.900 -1.6379  1.1990  0.3739
   22MOL   H168 6090   0.928   3.427   3.528  1.2481 -2.6891 -0.1398
   22MOL   H169 6091   1.105   3.442   3.348 -3.3424  0.6465  0.9466
   22MOL   C170 6092   0.793   3.597   3.964  0.9394 -0.3699  0.1247
   22MOL   C171 6093   0.769   3.712   4.045 -0.0216  0.3056 -0.3658
   22MOL   C172 6094   0.669   3.716   4.142 -0.0674  0.0123 -0.6422
   22MOL   C173 6095   0.585   3.603   4.163 -0.4376 -0.0623  0.5702
   22MOL   C174 6096   0.453   3.616   4.228 -0.7852 -0.2085  0.1137
   22MOL   C175 6097   0.336   3.553   4.197  0.3935  0.7820  0.1359
   22MOL   C176 6098   0.612   3.487   4.087  0.2902 -0.2083 -0.5954
   22MOL   C177 6099   0.712   3.484   3.987  0.1688 -0.1274  0.1416
   22MOL   H178 6100   0.830   3.801   4.050 -1.2522  1.1047  1.2570
   22MOL   H179 6101   0.662   3.814   4.187 -0.0192  0.6200 -1.9243
   22MOL   H180 6102   0.441   3.691   4.305  0.4052 -0.2061  0.3061
   22MOL   H181 6103   0.326   3.470   4.129  2.7287  0.6062 -0.0555
   22MOL   H182 6104   0.552   3.398   4.099 -1.0530  1.0311  2.0165
   22MOL   H183 6105   0.733   3.392   3.935 -0.3864 -0.4646  0.5030
   22MOL   C184 6106   0.203   3.575   4.251  0.4478 -0.2770 -0.1634
   22MOL   C185 6107   0.172   3.691   4.327 -0.2062  0.0866  0.6298
   22MOL   C186 6108   0.035   3.717   4.360 -0.2308  0.4102  0.1430
   22MOL   C187 6109   8.076   3.626   4.330  0.6589 -0.1241  0.0101
   22MOL   C188 6110   7.934   3.638   4.362  0.4790 -0.3224  0.0302
   22MOL   C189 6111   7.870   3.749   4.400  0.1031  0.1394 -0.3081
   22MOL   C190 6112   8.112   3.506   4.263  0.3782 -0.6435  0.2381
   22MOL   C191 6113   0.102   3.477   4.230 -0.0098  0.1501 -0.4476
   22MOL   H192 6114   0.249   3.761   4.352 -0.0415 -0.8169  2.7663
   22MOL   H193 6115   0.008   3.805   4.416 -1.8771  2.6679 -4.0501
   22MOL   H194 6116   7.875   3.548   4.352 -5.2201  3.1283  0.8569
   22MOL   H195 6117   7.928   3.837   4.423 -0.4842  0.8032 -1.3175
   22MOL   H196 6118   8.050   3.419   4.249 -0.9249  0.4413 -0.8303
   22MOL   H197 6119   0.138   3.385   4.186 -2.3429 -0.3414 -1.4052
   22MOL   C198 6120   7.725   3.762   4.411 -0.6269 -0.1681  0.1071
   22MOL   C199 6121   7.670   3.892   4.428  0.1729  0.5013 -0.6451
   22MOL   C200 6122   7.526   3.903   4.439 -0.3317  0.1963 -1.1013
   22MOL   C201 6123   7.437   3.797   4.428  0.1616 -0.0313  0.7540
   22MOL   C202 6124   7.290   3.815   4.417  0.5136  0.1272 -0.1005
   22MOL   C203 6125   7.222   3.926   4.377 -0.3272 -0.3584 -0.4520
   22MOL   C204 6126   7.494   3.670   4.405 -0.0601 -0.1540  0.0178
   22MOL   C205 6127   7.633   3.654   4.394 -0.6768  0.5356 -0.0682
   22MOL   H206 6128   7.731   3.980   4.437  0.7184  0.1467 -0.8444
   22MOL   H207 6129   7.484   4.001   4.458 -1.3314 -0.8833  2.5631
   22MOL   H208 6130   7.221   3.735   4.440  0.8476 -0.6876 -1.8066
   22MOL   H209 6131   7.281   4.013   4.353  0.5476 -1.2404 -1.5532
   22MOL   H210 6132   7.434   3.583   4.382 -1.0419  0.6233 -0.4011
   22MOL   H211 6133   7.659   3.553   4.368  0.0474 -0.1594  3.0953
   22MOL   C212 6134   7.079   3.938   4.349 -0.3508 -0.0965  0.6138
   22MOL   C213 6135   7.001   3.825   4.329  0.0584  0.0355  0.6637
   22MOL   C214 6136   6.863   3.833   4.303  0.6419 -0.0247  0.1030
   22MOL   C215 6137   6.794   3.957   4.306  0.0439  0.4188  0.0573
   22MOL   C216 6138   6.652   3.971   4.272  0.1373  0.1529 -0.1310
   22MOL   C217 6139   6.587   4.093   4.253  0.7272  0.5705  0.5030
   22MOL   C218 6140   6.871   4.069   4.322 -0.1858 -0.7633  0.1883
   22MOL   C219 6141   7.010   4.061   4.347  0.3632  0.2015 -0.0144
   22MOL   H220 6142   7.049   3.728   4.323  0.4328  0.3514 -2.4240
   22MOL   H221 6143   6.808   3.749   4.264 -0.5469  0.7037  0.1867
   22MOL   H222 6144   6.604   3.875   4.263 -0.7165  0.6805 -1.4843
   22MOL   H223 6145   6.645   4.184   4.262  1.8053  0.0703 -1.0180
   22MOL   H224 6146   6.829   4.169   4.330  0.9913 -0.3793  1.6997
   22MOL   H225 6147   7.064   4.148   4.380  1.4892  0.1823 -1.7211
   22MOL   C226 6148   6.450   4.108   4.228 -0.9093 -0.0657  0.3055
   22MOL   C227 6149   6.405   4.235   4.197 -0.0301  0.1564 -0.0731
   22MOL   C228 6150   6.265   4.266   4.175 -0.3718  0.2914  0.1356
   22MOL   C229 6151   6.174   4.158   4.178  0.1280 -0.0332  0.2578
   22MOL   C230 6152   6.035   4.202   4.147 -0.0224 -0.1749  0.2976
   22MOL   C231 6153   5.930   4.119   4.138  0.2257  0.6143 -0.1169
   22MOL   C232 6154   6.215   4.032   4.218 -0.4202  0.0776 -0.0206
   22MOL   C233 6155   6.353   4.006   4.236 -0.0175 -0.0120 -0.3713
   22MOL   H234 6156   6.484   4.309   4.197  1.5630 -1.4677  2.6907
   22MOL   H235 6157   6.233   4.367   4.153 -1.4647  0.1620  1.0794
   22MOL   H236 6158   6.031   4.307   4.125  1.1245 -0.6477 -2.3396
   22MOL   H237 6159   5.939   4.015   4.163  0.9453  1.3080  2.6770
   22MOL   H238 6160   6.148   3.946   4.221 -0.3565 -0.0266 -1.3000
   22MOL   H239 6161   6.380   3.908   4.273  0.1050  0.0905 -0.1877
   22MOL   C240 6162   5.796   4.156   4.090 -0.8427  0.7345  0.7425
   22MOL   C241 6163   5.775   4.280   4.029 -0.0336  0.4672 -0.1447
   22MOL   C242 6164   5.646   4.314   3.983  0.1094  0.1156 -0.7843
   22MOL   C243 6165   5.537   4.230   4.009 -0.1228 -0.4587 -0.6046
   22MOL   C244 6166   5.393   4.288   3.993  0.6497  0.2254 -0.0099
   22MOL   C245 6167   5.278   4.242   4.039  0.2685  0.4258  0.4582
   22MOL   C246 6168   5.557   4.105   4.078  0.2474 -0.4787 -0.0627
   22MOL   C247 6169   5.687   4.069   4.121  0.3869 -0.2301 -0.1664
   22MOL   H248 6170   5.863   4.336   4.001 -0.8573  1.1101 -1.5037
   22MOL   H249 6171   5.632   4.403   3.923  0.6023  0.1149 -0.9004
   22MOL   H250 6172   5.390   4.375   3.928 -0.1576  2.1971  2.5725
   22MOL   H251 6173   5.273   4.149   4.094  0.3928 -1.0160 -1.8896
   22MOL   H252 6174   5.465   4.064   4.117  0.3766  0.6252  1.4203
   22MOL   H253 6175   5.705   3.986   4.187 -0.0151 -0.2563 -0.0846
   22MOL   C254 6176   5.141   4.301   4.022 -0.1242 -0.5235  0.6467
   22MOL   C255 6177   5.126   4.425   3.959  0.2668  0.7448 -0.0900
   22MOL   C256 6178   5.000   4.485   3.945 -0.3315 -0.5343  0.8289
   22MOL   C257 6179   4.884   4.422   3.985 -0.1097  1.3546  0.3566
   22MOL   C258 6180   4.755   4.492   3.972 -0.7136 -0.1227 -0.4684
   22MOL   C259 6181   4.708   4.527   3.851  0.7300 -0.3417  0.6080
   22MOL   C260 6182   4.898   4.290   4.043 -0.2876 -0.2611 -0.4561
   22MOL   C261 6183   5.027   4.231   4.064 -0.1276 -0.2565 -0.6909
   22MOL   H262 6184   5.213   4.478   3.921 -0.9105  1.2123 -2.1867
   22MOL   H263 6185   4.989   4.585   3.906 -2.3517 -1.2093 -0.3703
   22MOL   H264 6186   4.709   4.512   4.067 -0.3916  2.1170 -0.7564
   22MOL   H265 6187   4.613   4.578   3.853  1.3992  0.9481  0.1881
   22MOL   H266 6188   4.809   4.248   4.087 -0.4909  0.4225 -0.2039
   22MOL   H267 6189   5.038   4.142   4.124  0.0313  1.1279  1.3813
   22MOL   C268 6190   4.774   4.511   3.715 -0.4432 -0.1091  0.2778
   22MOL   C269 6191   4.812   4.628   3.643 -0.1726  0.1973  0.0530
   22MOL   C270 6192   4.860   4.614   3.515 -0.0389  0.0966 -0.1250
   22MOL   C271 6193   4.849   4.495   3.445 -0.4700  0.1570  0.4706
   22MOL   C272 6194   4.890   4.493   3.308  0.4816 -0.3166 -0.9790
   22MOL   C273 6195   4.877   4.392   3.222 -0.1570  0.4324 -0.0796
   22MOL   C274 6196   4.803   4.382   3.511 -0.3880  0.1423  0.1563
   22MOL   C275 6197   4.759   4.392   3.643 -0.6196 -0.7357  0.2440
   22MOL   H276 6198   4.809   4.729   3.682  0.6962 -0.3677  1.6034
   22MOL   H277 6199   4.880   4.709   3.467 -1.1015 -0.1226 -1.0222
   22MOL   H278 6200   4.931   4.585   3.268 -1.5783  0.5592 -1.1713
   22MOL   H279 6201   4.823   4.301   3.248  2.2100 -0.1841  2.8763
   22MOL   H280 6202   4.794   4.286   3.462 -1.7698  1.5090 -2.3269
   22MOL   H281 6203   4.728   4.300   3.691  0.9657 -0.8381  1.1384
   22MOL   H282 6204   4.903   4.403   3.118  2.0403  1.9955  0.6242
   23MOL     C1 6205   6.115   8.033   1.588  0.6412 -0.2058 -0.1536
   23MOL     C2 6206   6.149   7.981   1.717 -0.0306 -0.5039 -0.8774
   23MOL     C3 6207   6.278   7.996   1.771  0.0769 -0.4308  0.4362
   23MOL     C4 6208   6.373   8.042   1.682  0.4741  0.1574  0.3854
   23MOL     C5 6209   6.519   8.025   1.713  0.3009  0.1462 -0.5906
   23MOL     C6 6210   6.574   7.997   1.830  0.6067 -0.5059  0.1066
   23MOL     C7 6211   6.346   8.094   1.557 -0.6106 -0.2470 -0.0421
   23MOL     C8 6212   6.213   8.091   1.509  0.7987 -0.9159 -0.3011
   23MOL     H9 6213   6.069   7.956   1.786 -0.4851  2.1059 -0.4256
   23MOL    H10 6214   6.304   7.971   1.873 -1.4944  1.6000  1.3751
   23MOL    H11 6215   6.582   8.033   1.625  0.6858  0.4845 -0.2877
   23MOL    H12 6216   6.509   7.981   1.915  1.8472  2.5221  1.7008
   23MOL    H13 6217   6.427   8.126   1.493 -2.0928  1.9234 -0.8767
   23MOL    H14 6218   6.193   8.133   1.412 -0.2984  0.8476  0.6643
   23MOL    H15 6219   6.012   8.026   1.558  0.1800  0.8947  1.1257
   23MOL    C16 6220   6.718   7.986   1.859  0.3124 -0.2347 -0.2146
   23MOL    C17 6221   6.819   8.010   1.761 -0.9313 -0.8885 -0.8835
   23MOL    C18 6222   6.951   7.987   1.796  0.0578  0.7182 -0.8220
   23MOL    C19 6223   6.990   7.948   1.929  0.0191 -0.6699  0.8794
   23MOL    C20 6224   7.136   7.941   1.958  0.5866  0.6050  0.0032
   23MOL    C21 6225   7.186   7.910   2.080  0.2531 -0.1566  0.3835
   23MOL    C22 6226   6.890   7.925   2.021 -0.4876  0.0531  0.2218
   23MOL    C23 6227   6.757   7.943   1.987  0.0796  0.2007  0.3542
   23MOL    H24 6228   6.791   8.030   1.659  0.6837 -0.2927 -1.2294
   23MOL    H25 6229   7.030   7.999   1.723 -0.1478 -0.2947 -1.2090
   23MOL    H26 6230   7.197   7.967   1.872  2.2208 -2.7940  0.0501
   23MOL    H27 6231   7.106   7.907   2.152  0.5313  1.6493  0.7825
   23MOL    H28 6232   6.905   7.878   2.118 -1.1861 -1.4800 -0.4008
   23MOL    H29 6233   6.699   7.914   2.074 -3.4317 -1.5395 -2.4149
   23MOL    C30 6234   7.327   7.895   2.114  0.5741  0.4099 -0.4418
   23MOL    C31 6235   7.360   7.808   2.221  0.1432 -0.6133  0.4875
   23MOL    C32 6236   7.494   7.791   2.257  0.0474  0.3195 -0.3621
   23MOL    C33 6237   7.595   7.854   2.180  0.4204  0.4728 -0.8012
   23MOL    C34 6238   7.733   7.820   2.195 -0.5942 -0.4541 -0.7565
   23MOL    C35 6239   7.794   7.761   2.302 -0.1294  0.1158  0.7168
   23MOL    C36 6240   7.556   7.934   2.072 -0.2805  0.2431 -0.2573
   23MOL    C37 6241   7.425   7.963   2.041 -0.4461 -0.3819  0.1066
   23MOL    H38 6242   7.285   7.748   2.271 -0.7295  0.5208  0.5485
   23MOL    H39 6243   7.520   7.715   2.329 -0.3238  0.0737 -0.4861
   23MOL    H40 6244   7.792   7.843   2.108 -0.8431 -0.3689 -0.9039
   23MOL    H41 6245   7.736   7.734   2.388 -0.7649 -2.7252 -0.5358
   23MOL    H42 6246   7.634   7.979   2.012 -0.4641  0.4274 -0.3607
   23MOL    H43 6247   7.400   8.039   1.968 -0.2021 -2.1122 -1.8225
   23MOL    C44 6248   7.936   7.727   2.306 -0.2779  1.0333  0.0737
   23MOL    C45 6249   7.988   7.677   2.429  0.8218 -0.8713 -0.5645
   23MOL    C46 6250   8.126   7.651   2.442  0.4363 -0.2346  0.0296
   23MOL    C47 6251   0.060   7.655   2.328 -0.2672 -0.2418  0.6922
   23MOL    C48 6252   0.199   7.612   2.328  0.2218  0.2962  0.1921
   23MOL    C49 6253   0.262   7.549   2.423 -0.6149  0.5302 -0.0165
   23MOL    C50 6254   0.017   7.719   2.212 -0.2233  0.3191 -0.1837
   23MOL    C51 6255   8.025   7.745   2.199 -0.0491 -0.6530 -0.2131
   23MOL    H52 6256   7.929   7.662   2.518  0.5510 -0.5570 -0.6882
   23MOL    H53 6257   0.029   7.621   2.534 -1.5875 -1.5708  0.6775
   23MOL    H54 6258   0.248   7.634   2.234 -1.8986  0.6111 -0.8755
   23MOL    H55 6259   0.210   7.523   2.514  0.2088  1.1419  0.6394
   23MOL    H56 6260   0.084   7.751   2.134  0.2940 -1.6292 -0.5864
   23MOL    H57 6261   8.003   7.802   2.109  2.2201 -0.9574 -0.9870
   23MOL    C58 6262   0.411   7.506   2.419 -0.3244 -0.0766 -0.1602
   23MOL    C59 6263   0.457   7.452   2.537  0.7895 -0.1081 -0.3547
   23MOL    C60 6264   0.582   7.404   2.552 -1.1193  0.4055  0.2134
   23MOL    C61 6265   0.674   7.416   2.446  0.4561  0.3885  0.1341
   23MOL    C62 6266   0.813   7.373   2.460  0.3385  0.3055 -0.5157
   23MOL    C63 6267   0.878   7.333   2.572  0.0480  0.8001  0.4673
   23MOL    C64 6268   0.630   7.471   2.325  0.2935 -0.5957  0.4772
   23MOL    C65 6269   0.499   7.516   2.308  0.4418  0.6086 -0.0796
   23MOL    H66 6270   0.394   7.440   2.624  1.2405  3.3212  0.5566
   23MOL    H67 6271   0.609   7.348   2.641  1.8197  0.7422 -0.4142
   23MOL    H68 6272   0.865   7.380   2.365 -1.1488 -2.9082 -1.6627
   23MOL    H69 6273   0.837   7.331   2.673 -0.8027 -1.2558  0.1149
   23MOL    H70 6274   0.691   7.490   2.238 -1.1203  1.8659 -0.0092
   23MOL    H71 6275   0.473   7.557   2.212  1.0900  1.1438 -0.0244
   23MOL    C72 6276   1.019   7.283   2.573  0.0915  0.2509 -0.0923
   23MOL    C73 6277   1.108   7.276   2.460 -0.1668 -0.4418 -0.3845
   23MOL    C74 6278   1.242   7.231   2.474 -0.3487  0.1533 -0.5220
   23MOL    C75 6279   1.282   7.177   2.593  0.9446  0.1327 -0.1039
   23MOL    C76 6280   1.419   7.120   2.599 -0.0434 -0.0057  0.0585
   23MOL    C77 6281   1.482   7.053   2.696  0.0156 -0.1057 -0.1563
   23MOL    C78 6282   1.192   7.178   2.700  0.0343 -0.3923  0.4634
   23MOL    C79 6283   1.065   7.230   2.692 -0.7428  0.1449 -0.1611
   23MOL    H80 6284   1.078   7.314   2.363 -1.0191 -0.4702 -0.1340
   23MOL    H81 6285   1.301   7.221   2.384 -2.1666  0.1853 -1.7531
   23MOL    H82 6286   1.484   7.132   2.513 -2.2886  0.0004 -1.6648
   23MOL    H83 6287   1.430   7.032   2.788 -0.2911 -0.2530 -0.3638
   23MOL    H84 6288   1.230   7.153   2.798  0.3532 -2.2354 -0.0918
   23MOL    H85 6289   1.009   7.230   2.784 -1.7810  0.5567 -0.7771
   23MOL    C86 6290   1.622   7.008   2.694  0.2045  1.1286 -0.0857
   23MOL    C87 6291   1.659   6.925   2.799 -0.3703 -0.6219  0.6026
   23MOL    C88 6292   1.797   6.893   2.822 -0.6466 -0.4096  0.1365
   23MOL    C89 6293   1.890   6.924   2.730 -0.4277 -0.6453  0.5419
   23MOL    C90 6294   2.031   6.893   2.747 -0.4182  0.7739  0.4398
   23MOL    C91 6295   2.093   6.860   2.863  0.0552  0.6209 -0.1432
   23MOL    C92 6296   1.852   7.003   2.621 -0.1455 -0.6349  1.1247
   23MOL    C93 6297   1.720   7.038   2.600 -0.0909 -0.2718 -0.4537
   23MOL    H94 6298   1.585   6.896   2.872 -0.5966 -0.8727  0.2741
   23MOL    H95 6299   1.826   6.827   2.902  1.6515  1.1092  0.6074
   23MOL    H96 6300   2.085   6.890   2.654  1.5073 -0.7548  1.5512
   23MOL    H97 6301   2.044   6.853   2.959  0.5264 -2.1053 -0.0787
   23MOL    H98 6302   1.923   7.028   2.544 -0.9574  1.0263  0.8888
   23MOL    H99 6303   1.710   7.103   2.515  2.9262  1.0339  0.1334
   23MOL   C100 6304   2.237   6.829   2.874  0.2723 -0.2599  0.5218
   23MOL   C101 6305   2.285   6.778   2.999 -0.3595 -0.1859 -0.3196
   23MOL   C102 6306   2.419   6.730   3.006  0.0244 -1.0164 -0.4784
   23MOL   C103 6307   2.504   6.730   2.893  0.4702  0.3222  1.0385
   23MOL   C104 6308   2.641   6.684   2.902  0.0394 -0.5347 -0.8898
   23MOL   C105 6309   2.699   6.625   3.004 -0.5431  0.7600  0.6858
   23MOL   C106 6310   2.455   6.787   2.772 -0.4293 -0.4243 -0.3290
   23MOL   C107 6311   2.322   6.840   2.769 -0.4251  0.0345  0.9165
   23MOL   H108 6312   2.219   6.767   3.083  0.6861  0.5587  0.6103
   23MOL   H109 6313   2.456   6.685   3.098 -0.1366 -2.8007 -1.2738
   23MOL   H110 6314   2.692   6.701   2.808 -1.4371  1.9022 -1.2900
   23MOL   H111 6315   2.652   6.606   3.099  2.3213 -3.3788  1.3975
   23MOL   H112 6316   2.517   6.793   2.684 -0.5451  1.5124 -0.2989
   23MOL   H113 6317   2.285   6.873   2.673  3.2721 -1.2142 -1.0290
   23MOL   C114 6318   2.833   6.571   3.003 -0.6041 -0.4232  0.0158
   23MOL   C115 6319   2.871   6.485   3.107  0.2804 -0.1843 -0.1697
   23MOL   C116 6320   3.000   6.434   3.116  0.3375 -0.2779  0.0130
   23MOL   C117 6321   3.099   6.459   3.018 -0.8374 -0.3442  0.3024
   23MOL   C118 6322   3.236   6.403   3.037 -0.0434 -0.2488  1.5632
   23MOL   C119 6323   3.344   6.421   2.958 -0.2177 -0.0757  0.7958
   23MOL   C120 6324   3.059   6.535   2.903  0.0834  0.1170 -0.1281
   23MOL   C121 6325   2.933   6.588   2.899 -0.8700 -0.0788  0.1396
   23MOL   H122 6326   2.797   6.465   3.184  0.1223  0.8087 -0.0559
   23MOL   H123 6327   3.027   6.378   3.204  0.9165 -2.0250 -1.2383
   23MOL   H124 6328   3.246   6.333   3.118 -3.8995 -1.2184  1.3131
   23MOL   H125 6329   3.337   6.489   2.874 -0.8985 -0.7962  0.2631
   23MOL   H126 6330   3.122   6.568   2.821  0.6476 -2.2519 -0.6980
   23MOL   H127 6331   2.912   6.662   2.823 -1.0227  1.2042  1.4058
   23MOL   C128 6332   3.478   6.357   2.984 -0.9097 -0.1228 -0.1063
   23MOL   C129 6333   3.559   6.323   2.876 -0.4471 -0.8329  0.5228
   23MOL   C130 6334   3.689   6.274   2.893 -0.8191  0.2715  0.1134
   23MOL   C131 6335   3.736   6.244   3.024 -0.3706  0.5126  0.0514
   23MOL   C132 6336   3.862   6.178   3.058  0.1172 -0.1819  0.4387
   23MOL   C133 6337   3.972   6.181   2.985  0.0999  0.8027 -0.9145
   23MOL   C134 6338   3.649   6.266   3.133 -0.3395 -0.4583 -0.0009
   23MOL   C135 6339   3.524   6.326   3.114  0.7181 -0.4647 -0.1528
   23MOL   H136 6340   3.529   6.355   2.777 -2.8884  0.9075  1.7811
   23MOL   H137 6341   3.743   6.246   2.804  0.4069 -1.7208  1.4233
   23MOL   H138 6342   3.864   6.112   3.143  0.8300  0.1028  0.6489
   23MOL   H139 6343   3.982   6.237   2.893  1.1596  0.7982 -0.8072
   23MOL   H140 6344   3.683   6.242   3.232  0.5969  1.1161  0.0933
   23MOL   H141 6345   3.461   6.349   3.198 -0.5726 -0.2931 -1.1589
   23MOL   C142 6346   4.096   6.107   3.021 -0.3674 -0.0602 -0.0926
   23MOL   C143 6347   4.166   6.046   2.922  0.6081 -0.2568  0.4355
   23MOL   C144 6348   4.287   5.972   2.942  0.3291  0.5355 -0.6196
   23MOL   C145 6349   4.340   5.969   3.068  0.1421 -0.0246  0.3394
   23MOL   C146 6350   4.478   5.915   3.079  0.6038 -0.1283  0.0232
   23MOL   C147 6351   4.548   5.894   3.191 -0.1462  0.5602  0.2446
   23MOL   C148 6352   4.268   6.026   3.173 -0.2771  0.4598 -0.0317
   23MOL   C149 6353   4.146   6.092   3.148 -0.3737 -0.3987 -0.4323
   23MOL   H150 6354   4.135   6.053   2.819 -0.6593  0.6924  0.8648
   23MOL   H151 6355   4.343   5.930   2.859 -1.7138  1.3327 -2.4187
   23MOL   H152 6356   4.520   5.896   2.982 -0.4619 -0.2040 -0.4302
   23MOL   H153 6357   4.503   5.921   3.286 -1.7392 -1.2106  0.0053
   23MOL   H154 6358   4.305   6.025   3.275  0.4533  0.3707 -0.2998
   23MOL   H155 6359   4.090   6.134   3.231  1.6534 -3.2062  2.4836
   23MOL   C156 6360   4.693   5.861   3.204 -0.4197 -0.4364  0.0607
   23MOL   C157 6361   4.738   5.773   3.295  0.9568  0.7652 -0.0331
   23MOL   C158 6362   4.874   5.738   3.301 -0.7045  0.3570  0.7779
   23MOL   C159 6363   4.969   5.792   3.214 -0.1611 -0.0962  0.2182
   23MOL   C160 6364   5.104   5.754   3.212 -0.1751 -0.5480  0.7684
   23MOL   C161 6365   5.168   5.683   3.310 -0.1756 -0.4447 -0.4791
   23MOL   C162 6366   4.923   5.878   3.118  0.2247 -0.5476  0.0941
   23MOL   C163 6367   4.784   5.908   3.113 -0.0372 -0.1076  0.4112
   23MOL   H164 6368   4.675   5.720   3.365  0.8150 -0.0724 -0.7876
   23MOL   H165 6369   4.907   5.670   3.378  1.8642 -0.9014 -1.4060
   23MOL   H166 6370   5.158   5.779   3.121 -1.4972 -1.1167 -0.1781
   23MOL   H167 6371   5.105   5.660   3.395 -2.2977  0.4004 -1.8018
   23MOL   H168 6372   4.977   5.924   3.038 -0.0038 -0.0608  0.2182
   23MOL   H169 6373   4.754   5.977   3.034 -1.6460 -2.8667 -1.4661
   23MOL   C170 6374   5.309   5.633   3.321 -0.4539 -0.2901  0.7838
   23MOL   C171 6375   5.329   5.539   3.419 -1.6583  0.1576 -0.6705
   23MOL   C172 6376   5.463   5.497   3.449 -0.0831 -0.3407  1.0782
   23MOL   C173 6377   5.567   5.559   3.375  0.0176 -1.2679 -0.8107
   23MOL   C174 6378   5.701   5.507   3.413 -0.6149  0.3095  0.2905
   23MOL   C175 6379   5.811   5.507   3.338 -0.3018  0.4699 -0.5746
   23MOL   C176 6380   5.544   5.649   3.265  0.1663  1.1041  0.2254
   23MOL   C177 6381   5.410   5.680   3.238  0.3667 -0.1350 -0.5078
   23MOL   H178 6382   5.252   5.503   3.486 -0.8874 -0.0829  0.1016
   23MOL   H179 6383   5.477   5.422   3.526 -0.5727 -0.6626  0.8625
   23MOL   H180 6384   5.705   5.463   3.511  0.2133 -0.6315 -0.1548
   23MOL   H181 6385   5.819   5.552   3.240  1.7700  0.6045 -0.3664
   23MOL   H182 6386   5.624   5.700   3.214  2.1015 -1.2264  0.8727
   23MOL   H183 6387   5.385   5.741   3.153 -1.0718 -0.0703 -0.0597
   23MOL   C184 6388   5.944   5.448   3.372 -0.2833  0.0402 -0.2787
   23MOL   C185 6389   5.965   5.343   3.471 -0.4626  0.2558  0.1671
   23MOL   C186 6390   6.094   5.314   3.519  1.0295  0.2689  0.2932
   23MOL   C187 6391   6.203   5.378   3.458 -1.0803 -0.9882 -0.1704
   23MOL   C188 6392   6.335   5.329   3.517  0.0345  0.1601 -0.5476
   23MOL   C189 6393   6.461   5.371   3.488 -0.1776 -0.1626  0.2319
   23MOL   C190 6394   6.184   5.472   3.359  0.3465  0.1606 -0.3274
   23MOL   C191 6395   6.057   5.505   3.315 -0.8079  0.0687  0.2916
   23MOL   H192 6396   5.883   5.295   3.521  0.7472 -0.1094  1.8456
   23MOL   H193 6397   6.096   5.238   3.596 -0.2251 -0.4971 -0.4053
   23MOL   H194 6398   6.321   5.247   3.586 -1.2551 -1.0533 -2.2198
   23MOL   H195 6399   6.481   5.445   3.412 -0.3403 -0.2512  0.1031
   23MOL   H196 6400   6.266   5.533   3.322  1.3770 -1.9078 -1.5580
   23MOL   H197 6401   6.057   5.588   3.247  1.6173 -0.3304 -0.2666
   23MOL   C198 6402   6.583   5.309   3.548  0.0133  0.1399  0.6535
   23MOL   C199 6403   6.704   5.307   3.480 -0.3058  0.2119  0.7899
   23MOL   C200 6404   6.826   5.251   3.538  0.1295  0.1481  0.2835
   23MOL   C201 6405   6.822   5.190   3.662  0.6599  0.3919  0.2265
   23MOL   C202 6406   6.944   5.149   3.740 -0.0633  0.0814  0.4672
   23MOL   C203 6407   7.065   5.191   3.705  0.0572  1.0489 -0.0962
   23MOL   C204 6408   6.694   5.192   3.734 -0.1594  0.7947 -0.2612
   23MOL   C205 6409   6.576   5.249   3.676  0.1039 -0.1031 -0.3631
   23MOL   H206 6410   6.710   5.347   3.380  0.7416  0.8679  1.1086
   23MOL   H207 6411   6.917   5.252   3.480 -0.1455 -2.1523 -0.2076
   23MOL   H208 6412   6.930   5.087   3.828 -2.1199  0.0829  0.1691
   23MOL   H209 6413   7.091   5.252   3.620 -1.7142 -0.6224 -1.8626
   23MOL   H210 6414   6.679   5.153   3.834  0.4519  1.6919  0.1928
   23MOL   H211 6415   6.490   5.251   3.742  0.7356  0.2193  0.4618
   23MOL   C212 6416   7.192   5.156   3.779 -0.1560 -0.2358 -1.0251
   23MOL   C213 6417   7.310   5.148   3.703  0.5844  0.3468 -0.7781
   23MOL   C214 6418   7.434   5.135   3.765  0.8170  0.3519 -0.5289
   23MOL   C215 6419   7.442   5.116   3.904  0.8500 -0.3952 -0.0593
   23MOL   C216 6420   7.570   5.101   3.966  0.2795 -0.0060  0.5715
   23MOL   C217 6421   7.688   5.072   3.907 -0.4974  0.7680 -0.4308
   23MOL   C218 6422   7.323   5.116   3.977 -0.1984  1.0319  0.8599
   23MOL   C219 6423   7.197   5.146   3.922  0.6682  0.2607 -1.0383
   23MOL   H220 6424   7.305   5.159   3.596  0.3798  1.0701 -0.6960
   23MOL   H221 6425   7.526   5.142   3.709  0.4485  1.0115 -1.0690
   23MOL   H222 6426   7.567   5.123   4.071 -0.5088  0.8601  0.3685
   23MOL   H223 6427   7.706   5.060   3.801 -0.5644 -1.8545 -0.1810
   23MOL   H224 6428   7.315   5.099   4.084  0.7770 -1.7263  0.5266
   23MOL   H225 6429   7.112   5.151   3.988  1.6414 -0.5136  0.3007
   23MOL   C226 6430   7.817   5.067   3.989  0.0871  0.0925 -0.9051
   23MOL   C227 6431   7.827   5.100   4.124 -0.3456  0.2851  0.3285
   23MOL   C228 6432   7.951   5.095   4.192 -1.0235 -0.5359  0.1744
   23MOL   C229 6433   8.066   5.057   4.126 -1.0472  0.1025  0.1206
   23MOL   C230 6434   0.056   5.047   4.189 -0.0900 -0.0562 -0.5355
   23MOL   C231 6435   0.097   5.104   4.301 -0.7582  0.2863 -0.1041
   23MOL   C232 6436   8.058   5.016   3.993 -0.4778 -0.1403 -0.0718
   23MOL   C233 6437   7.936   5.018   3.927  0.3119 -0.6847 -0.6616
   23MOL   H234 6438   7.736   5.124   4.177 -0.4777 -0.4776  0.4632
   23MOL   H235 6439   7.953   5.121   4.297 -0.3973 -2.4204  0.6470
   23MOL   H236 6440   0.138   5.002   4.135  0.2450 -1.0460  0.7725
   23MOL   H237 6441   0.038   5.161   4.373 -1.0800  0.7750 -0.7476
   23MOL   H238 6442   0.008   4.986   3.949 -0.4281 -1.1165  0.6721
   23MOL   H239 6443   7.935   4.979   3.826 -0.5852  1.0910 -1.3507
   23MOL   C240 6444   0.241   5.094   4.351  0.6556  0.2953  0.0665
   23MOL   C241 6445   0.326   4.992   4.308  0.0807 -0.1899  0.1941
   23MOL   C242 6446   0.452   4.979   4.365 -0.2651  0.3365  0.0662
   23MOL   C243 6447   0.500   5.072   4.460 -0.1228 -0.2417 -0.2392
   23MOL   C244 6448   0.637   5.054   4.515  1.0015 -0.3265  0.0143
   23MOL   C245 6449   0.708   5.159   4.564  0.8312  0.1786 -0.2154
   23MOL   C246 6450   0.411   5.171   4.507  0.0436 -0.2258 -0.3348
   23MOL   C247 6451   0.280   5.183   4.457  0.4293  1.1333 -0.2730
   23MOL   H248 6452   0.293   4.919   4.235  1.4204  0.7020 -1.3484
   23MOL   H249 6453   0.508   4.893   4.333 -0.1244  0.5990 -0.3918
   23MOL   H250 6454   0.678   4.955   4.520  0.1839 -0.6921 -0.4118
   23MOL   H251 6455   0.664   5.257   4.557  1.1914  0.4979  1.9442
   23MOL   H252 6456   0.448   5.241   4.580  2.0992 -0.5813 -1.0216
   23MOL   H253 6457   0.215   5.265   4.482 -0.1827 -0.3507  3.3257
   23MOL   C254 6458   0.840   5.156   4.620  1.4076 -0.5332  0.1775
   23MOL   C255 6459   0.889   5.268   4.688  0.1028 -0.4542 -0.0452
   23MOL   C256 6460   1.020   5.267   4.751  0.0867 -0.4323  0.7924
   23MOL   C257 6461   1.100   5.156   4.734  0.8878 -0.3392 -0.4986
   23MOL   C258 6462   1.223   5.150   4.804  0.0660 -0.4098 -1.1681
   23MOL   C259 6463   1.268   5.060   4.892  0.1054  0.1058 -0.2747
   23MOL   C260 6464   1.054   5.049   4.653 -0.5138 -0.7929 -0.2169
   23MOL   C261 6465   0.926   5.046   4.603 -0.6873  1.0999  0.2301
   23MOL   H262 6466   0.829   5.356   4.706  1.9834  1.0884 -1.1795
   23MOL   H263 6467   1.062   5.348   4.808  0.1036  0.9244 -1.0849
   23MOL   H264 6468   1.287   5.236   4.790  0.3425 -0.5449 -0.7621
   23MOL   H265 6469   1.365   5.080   4.935  0.6337 -1.2294 -0.8215
   23MOL   H266 6470   1.118   4.964   4.638  3.2211  1.7720  0.5538
   23MOL   H267 6471   0.897   4.957   4.548 -1.5657  0.8495  1.0816
   23MOL   C268 6472   1.213   4.929   4.942  0.1586 -0.3418 -0.2965
   23MOL   C269 6473   1.074   4.898   4.962 -0.4938  0.5930 -0.6022
   23MOL   C270 6474   1.041   4.764   5.007 -0.0203  0.8459  0.0582
   23MOL   C271 6475   1.140   4.671   5.037 -1.0471 -0.2778  0.1498
   23MOL   C272 6476   1.108   4.541   5.090 -0.2404  0.2519 -0.7650
   23MOL   C273 6477   0.998   4.492   5.138  0.0313 -0.5654 -0.3382
   23MOL   C274 6478   1.277   4.703   5.009  0.7402 -0.0173  0.2257
   23MOL   C275 6479   1.311   4.826   4.957 -0.4549 -0.3733  0.1303
   23MOL   H276 6480   1.006   4.976   4.932  1.0459  1.4837 -1.8430
   23MOL   H277 6481   0.936   4.742   5.015  0.5371 -1.7754  0.4354
   23MOL   H278 6482   1.194   4.476   5.095  0.4872  1.2943  0.4262
   23MOL   H279 6483   0.909   4.553   5.143  0.0721 -0.6175  1.7575
   23MOL   H280 6484   1.351   4.629   5.036 -1.2342 -1.6197  1.3704
   23MOL   H281 6485   1.409   4.847   4.919 -0.5504  1.1787  0.7172
   23MOL   H282 6486   0.981   4.393   5.177 -1.3560 -1.2384 -2.5677
   24MOL     C1 6487   1.910   7.849   6.185 -0.7834  0.1660 -1.2832
   24MOL     C2 6488   1.911   7.746   6.287 -0.7370 -0.0120 -0.3003
   24MOL     C3 6489   1.943   7.613   6.262  0.7186  0.4478  0.7065
   24MOL     C4 6490   1.960   7.578   6.123  1.1148 -0.0636 -0.5636
   24MOL     C5 6491   1.981   7.432   6.099  0.7911  0.3457  0.5865
   24MOL     C6 6492   2.015   7.379   5.976 -0.1112 -0.2503  0.1411
   24MOL     C7 6493   1.965   7.676   6.019 -0.2822 -0.0318 -0.0059
   24MOL     C8 6494   1.939   7.812   6.050 -0.2774  0.6516 -0.5981
   24MOL     H9 6495   1.868   7.768   6.383 -0.7435 -0.6614 -0.1542
   24MOL    H10 6496   1.941   7.543   6.344 -3.6894  0.7993  1.0094
   24MOL    H11 6497   1.966   7.364   6.183 -1.2211 -0.7264 -0.5913
   24MOL    H12 6498   2.019   7.447   5.891  0.5968 -3.1761 -2.2643
   24MOL    H13 6499   1.991   7.648   5.918  0.7664 -1.0162  0.5271
   24MOL    H14 6500   1.944   7.889   5.974 -0.6125  0.9356 -0.3338
   24MOL    H15 6501   1.892   7.955   6.202  2.2603  0.7137 -1.2261
   24MOL    C16 6502   2.019   7.237   5.938  0.0920 -0.4130  0.1484
   24MOL    C17 6503   1.955   7.145   6.017  0.6301 -0.9025 -0.7715
   24MOL    C18 6504   1.972   7.009   5.985 -0.8054  1.0261  0.5302
   24MOL    C19 6505   2.044   6.963   5.876 -0.8745 -0.3173 -0.4136
   24MOL    C20 6506   2.071   6.821   5.859  0.1485  0.8300 -0.3073
   24MOL    C21 6507   2.183   6.777   5.795 -0.5098  0.2996 -0.4517
   24MOL    C22 6508   2.098   7.060   5.789 -0.0478  0.4388 -0.6372
   24MOL    C23 6509   2.091   7.196   5.822 -0.2166 -1.3415  0.9252
   24MOL    H24 6510   1.902   7.179   6.104  1.4387  0.7319 -0.9050
   24MOL    H25 6511   1.934   6.941   6.059  0.2575  0.6613  0.7492
   24MOL    H26 6512   2.002   6.753   5.906  0.6278  0.3065 -0.3665
   24MOL    H27 6513   2.253   6.852   5.759  0.4688 -0.3020  0.1733
   24MOL    H28 6514   2.150   7.039   5.697  1.6232  4.0164 -0.5837
   24MOL    H29 6515   2.129   7.269   5.752 -1.1917 -2.1747 -0.5063
   24MOL    C30 6516   2.216   6.634   5.766 -0.1337 -0.2044  0.3200
   24MOL    C31 6517   2.325   6.617   5.676 -0.0731  0.2131 -0.3127
   24MOL    C32 6518   2.370   6.488   5.653  0.3826  0.6434  0.6245
   24MOL    C33 6519   2.299   6.374   5.703 -0.0130  0.0944 -0.0279
   24MOL    C34 6520   2.347   6.241   5.668 -0.3569 -0.0008 -0.4663
   24MOL    C35 6521   2.306   6.120   5.721  0.9826 -1.0191 -0.3620
   24MOL    C36 6522   2.188   6.398   5.787 -0.3459  0.2496 -0.4557
   24MOL    C37 6523   2.143   6.525   5.824 -0.2158  0.1377  0.3603
   24MOL    H38 6524   2.371   6.706   5.637 -0.4457  0.9052  0.8367
   24MOL    H39 6525   2.458   6.472   5.593 -1.2107 -2.8470 -0.8914
   24MOL    H40 6526   2.431   6.236   5.601 -0.6532  0.5249 -0.8807
   24MOL    H41 6527   2.224   6.113   5.791  0.6839 -0.8921 -0.6965
   24MOL    H42 6528   2.136   6.310   5.822  2.9132 -1.9399 -0.9950
   24MOL    H43 6529   2.062   6.532   5.895 -0.7884 -0.6759 -0.2102
   24MOL    C44 6530   2.373   5.988   5.684 -0.0327  0.6876  0.5736
   24MOL    C45 6531   2.507   5.980   5.633  0.5403 -0.1607  0.5169
   24MOL    C46 6532   2.560   5.849   5.600  0.0724  0.1160 -0.9802
   24MOL    C47 6533   2.485   5.737   5.615 -0.4202 -0.1890  0.0859
   24MOL    C48 6534   2.537   5.598   5.586  0.5471 -0.6154  0.3734
   24MOL    C49 6535   2.664   5.560   5.592 -0.6771 -0.3260 -0.8571
   24MOL    C50 6536   2.356   5.745   5.671 -0.2942  0.0381 -0.1883
   24MOL    C51 6537   2.299   5.872   5.693 -0.1997 -1.1115 -0.3700
   24MOL    H52 6538   2.576   6.061   5.619  0.2403 -0.2948 -2.0409
   24MOL    H53 6539   2.655   5.855   5.549  1.0452  0.4451  0.8231
   24MOL    H54 6540   2.466   5.523   5.555  1.6965 -1.3714 -0.4813
   24MOL    H55 6541   2.746   5.623   5.624  1.4064 -2.1058 -2.5738
   24MOL    H56 6542   2.303   5.654   5.696  0.7558 -0.7548 -0.7885
   24MOL    H57 6543   2.200   5.883   5.735  0.9265 -1.4655  2.4770
   24MOL    C58 6544   2.713   5.436   5.540 -0.8013  0.7943 -0.1260
   24MOL    C59 6545   2.805   5.351   5.596 -0.2746 -0.2039 -0.1801
   24MOL    C60 6546   2.836   5.222   5.549 -0.8290  0.3158  0.1096
   24MOL    C61 6547   2.762   5.177   5.436  0.9879  0.1178  0.2439
   24MOL    C62 6548   2.793   5.043   5.381  1.2287  0.3794 -0.1405
   24MOL    C63 6549   2.886   4.954   5.410  0.1061  0.0204  0.0610
   24MOL    C64 6550   2.676   5.262   5.369 -0.6240  0.5554  0.1121
   24MOL    C65 6551   2.649   5.389   5.424 -0.4675  0.4135 -0.5936
   24MOL    H66 6552   2.846   5.370   5.695 -1.7956 -1.6998  0.7669
   24MOL    H67 6553   2.908   5.157   5.595  1.5229  2.0383 -1.0185
   24MOL    H68 6554   2.733   5.020   5.294 -0.6279 -0.7824  1.3888
   24MOL    H69 6555   2.954   4.966   5.494  0.9845  1.1517 -0.8008
   24MOL    H70 6556   2.624   5.237   5.277  2.3084  1.7109 -1.9698
   24MOL    H71 6557   2.571   5.452   5.384  0.0286  0.0000 -2.2590
   24MOL    C72 6558   2.894   4.830   5.331 -0.5870 -0.2444  0.4800
   24MOL    C73 6559   3.013   4.759   5.314  0.4381 -0.0452  0.0443
   24MOL    C74 6560   3.026   4.651   5.227 -0.6730 -0.2150 -0.5742
   24MOL    C75 6561   2.915   4.604   5.153  0.0187  0.5314  1.0431
   24MOL    C76 6562   2.913   4.486   5.066  0.2116  0.1013 -0.3773
   24MOL    C77 6563   3.006   4.391   5.048 -0.2174  0.5491 -0.0234
   24MOL    C78 6564   2.794   4.676   5.164  0.2132  0.3731  0.8165
   24MOL    C79 6565   2.783   4.787   5.250  0.0213 -0.2235 -1.1877
   24MOL    H80 6566   3.102   4.784   5.370  1.1717 -0.1885 -1.0400
   24MOL    H81 6567   3.123   4.603   5.230 -0.1749  0.8311  1.1980
   24MOL    H82 6568   2.815   4.471   5.023 -0.1505  0.8632  0.1748
   24MOL    H83 6569   3.093   4.404   5.110  0.2172 -2.6539  0.0815
   24MOL    H84 6570   2.709   4.652   5.101  0.3952  1.4787  0.1356
   24MOL    H85 6571   2.689   4.839   5.259 -0.4098 -1.3138  1.0135
   24MOL    C86 6572   2.981   4.271   4.969  0.0339 -0.3994 -0.6312
   24MOL    C87 6573   3.030   4.150   5.019  0.4220  0.0550  0.2696
   24MOL    C88 6574   2.989   4.027   4.962 -0.3834  0.6552  0.1969
   24MOL    C89 6575   2.888   4.027   4.860 -0.1319 -0.5377 -0.0384
   24MOL    C90 6576   2.823   3.904   4.815 -0.1934 -0.4645 -0.0757
   24MOL    C91 6577   2.765   3.886   4.698 -0.7020  0.4999  0.0859
   24MOL    C92 6578   2.851   4.149   4.804  0.4411 -0.1816  0.0634
   24MOL    C93 6579   2.899   4.273   4.853 -0.3602  0.8951  0.3108
   24MOL    H94 6580   3.097   4.141   5.103 -2.0005  0.3157  2.3056
   24MOL    H95 6581   3.031   3.935   4.999 -0.7965  0.5363  0.3685
   24MOL    H96 6582   2.816   3.826   4.890 -1.1268  0.8591  1.2641
   24MOL    H97 6583   2.774   3.964   4.624 -0.5012  0.9050  0.5282
   24MOL    H98 6584   2.773   4.157   4.730  1.4426  2.7458 -0.7361
   24MOL    H99 6585   2.855   4.363   4.811 -2.0975  0.8091  1.8592
   24MOL   C100 6586   2.687   3.770   4.664  0.5790  0.6533  0.0450
   24MOL   C101 6587   2.617   3.691   4.759  0.8931 -0.5014 -0.8414
   24MOL   C102 6588   2.532   3.589   4.711  0.1531  0.6355  0.3240
   24MOL   C103 6589   2.529   3.552   4.575  0.5374 -0.5555 -0.4206
   24MOL   C104 6590   2.430   3.455   4.533 -0.1771  0.4136  0.0316
   24MOL   C105 6591   2.415   3.332   4.590  0.3954  0.0516  0.4383
   24MOL   C106 6592   2.608   3.626   4.482  0.2599  0.2272 -0.6694
   24MOL   C107 6593   2.690   3.732   4.528 -0.1990  0.3530  0.4156
   24MOL   H108 6594   2.610   3.711   4.865  0.2389  0.0934 -0.9959
   24MOL   H109 6595   2.460   3.545   4.779 -0.1779 -3.0765 -2.2969
   24MOL   H110 6596   2.362   3.487   4.456 -1.2765  0.2320  0.9234
   24MOL   H111 6597   2.486   3.295   4.662  0.0784 -2.4253 -0.4708
   24MOL   H112 6598   2.604   3.606   4.376  3.0295  1.5558 -1.0594
   24MOL   H113 6599   2.763   3.782   4.466 -0.5244 -0.3177 -0.5152
   24MOL   C114 6600   2.295   3.247   4.565 -0.2897  0.2958  0.1394
   24MOL   C115 6601   2.173   3.296   4.521 -0.0554  1.1371 -0.1692
   24MOL   C116 6602   2.062   3.216   4.485 -0.8913 -0.5511 -0.2631
   24MOL   C117 6603   2.070   3.081   4.513 -0.7259 -0.2301  0.2424
   24MOL   C118 6604   1.961   2.987   4.470 -0.0025  0.0255  0.0607
   24MOL   C119 6605   1.831   3.019   4.438  0.7373 -0.0292  0.1304
   24MOL   C120 6606   2.186   3.024   4.570 -0.6284 -0.2996 -0.2730
   24MOL   C121 6607   2.296   3.109   4.593 -0.1893  0.4691  0.2862
   24MOL   H122 6608   2.164   3.402   4.501 -0.1591  1.0537 -0.5730
   24MOL   H123 6609   1.969   3.259   4.450  0.2178 -0.0067 -2.5968
   24MOL   H124 6610   1.996   2.885   4.464 -0.5448 -0.0360 -2.8422
   24MOL   H125 6611   1.800   3.122   4.448 -0.6614 -0.4185 -0.1500
   24MOL   H126 6612   2.199   2.917   4.572 -3.8257 -0.7909 -2.1381
   24MOL   H127 6613   2.388   3.067   4.632 -1.3200 -1.7597  0.6751
   24MOL   C128 6614   1.731   2.928   4.394  0.0993  1.1133 -0.8013
   24MOL   C129 6615   1.604   2.978   4.362 -0.1620 -0.5268  0.1007
   24MOL   C130 6616   1.504   2.887   4.323  0.2212  0.2037  0.3514
   24MOL   C131 6617   1.530   2.747   4.302  0.4724 -0.0146  0.3986
   24MOL   C132 6618   1.430   2.647   4.256 -0.8996 -0.2078 -0.7811
   24MOL   C133 6619   1.299   2.672   4.271  0.1958  0.4646  0.1245
   24MOL   C134 6620   1.657   2.697   4.335 -0.3340  0.0925 -0.0288
   24MOL   C135 6621   1.755   2.788   4.386  0.1954 -0.1547 -0.0452
   24MOL   H136 6622   1.570   3.081   4.365 -1.8981 -1.1093  1.2546
   24MOL   H137 6623   1.408   2.929   4.298 -0.9163 -2.3000  0.3173
   24MOL   H138 6624   1.468   2.553   4.221  1.8790  1.3309 -2.0761
   24MOL   H139 6625   1.268   2.766   4.314  1.1917  0.8861 -0.0701
   24MOL   H140 6626   1.674   2.591   4.321  1.7435  0.7150 -2.4485
   24MOL   H141 6627   1.849   2.740   4.407  0.8045  0.0885 -2.1033
   24MOL   C142 6628   1.198   2.580   4.222  0.5084 -0.1941 -0.1158
   24MOL   C143 6629   1.068   2.630   4.231 -0.8040 -0.4907  0.1345
   24MOL   C144 6630   0.964   2.555   4.174  0.3398 -0.2217  0.4105
   24MOL   C145 6631   0.982   2.436   4.102 -0.1059 -0.2197 -0.9088
   24MOL   C146 6632   0.855   2.377   4.046 -0.2580  0.0913 -0.5874
   24MOL   C147 6633   0.839   2.276   3.959 -0.2606 -0.2536 -0.3254
   24MOL   C148 6634   1.110   2.375   4.099  0.7105 -0.6422  0.7827
   24MOL   C149 6635   1.213   2.450   4.165 -0.8893  0.0165  0.6369
   24MOL   H150 6636   1.035   2.722   4.276  0.3535  0.3231 -0.6599
   24MOL   H151 6637   0.865   2.598   4.183  1.1654  1.6996  0.5375
   24MOL   H152 6638   0.769   2.420   4.095  0.6943  0.0802  1.1395
   24MOL   H153 6639   0.925   2.226   3.916  0.3154 -0.3725  0.9229
   24MOL   H154 6640   1.131   2.278   4.056  3.6697 -0.1251  0.9807
   24MOL   H155 6641   1.315   2.413   4.174 -0.1059  1.7568 -0.7579
   24MOL   C156 6642   0.714   2.223   3.926  0.8022  0.6133  0.4998
   24MOL   C157 6643   0.708   2.119   3.828 -0.2545  0.5018  0.4879
   24MOL   C158 6644   0.592   2.084   3.760 -0.6608 -0.2007  0.3039
   24MOL   C159 6645   0.473   2.151   3.789  0.7539  0.6136 -0.4584
   24MOL   C160 6646   0.351   2.131   3.707  0.1481  0.0665 -0.1493
   24MOL   C161 6647   0.234   2.197   3.724 -0.2346 -0.1892  0.0505
   24MOL   C162 6648   0.465   2.231   3.907 -0.1043 -0.3054  0.3692
   24MOL   C163 6649   0.586   2.275   3.963 -0.2831  0.3391  0.5730
   24MOL   H164 6650   0.795   2.065   3.794 -0.6966 -0.4691  0.8892
   24MOL   H165 6651   0.600   2.024   3.670  0.8821  1.0909 -0.4504
   24MOL   H166 6652   0.362   2.055   3.631  1.3716 -0.2433  0.3290
   24MOL   H167 6653   0.219   2.275   3.797 -0.2268 -0.5427  0.4352
   24MOL   H168 6654   0.376   2.275   3.947  0.4317  1.5857 -0.4719
   24MOL   H169 6655   0.584   2.344   4.046  0.8058 -0.8943  1.6516
   24MOL   C170 6656   0.118   2.173   3.632  0.1703  0.5940  0.4100
   24MOL   C171 6657   0.001   2.253   3.645 -0.1129  0.0747 -0.9746
   24MOL   C172 6658   8.034   2.242   3.567  0.1922 -0.3478  0.1570
   24MOL   C173 6659   8.033   2.149   3.465 -0.3758 -0.0411  0.3413
   24MOL   C174 6660   7.919   2.128   3.379  0.3711 -0.0620 -0.7409
   24MOL   C175 6661   7.817   2.212   3.351  0.2449  0.4943 -0.2391
   24MOL   C176 6662   0.002   2.066   3.444 -0.1906 -0.2645 -0.0309
   24MOL   C177 6663   0.116   2.078   3.530  0.1970 -0.0147 -0.1418
   24MOL   H178 6664   0.009   2.327   3.723  1.5884 -3.2409  2.1732
   24MOL   H179 6665   7.954   2.314   3.574 -0.2782 -0.7622 -0.8864
   24MOL   H180 6666   7.928   2.039   3.319  1.5861 -0.8799  0.6354
   24MOL   H181 6667   7.821   2.310   3.397 -1.1197  0.4438  0.0172
   24MOL   H182 6668   0.002   1.992   3.365  1.6628 -0.9857  0.6174
   24MOL   H183 6669   0.204   2.017   3.514  0.4004  0.5782 -1.3525
   24MOL   C184 6670   7.704   2.184   3.258  0.2747  0.7151 -0.7657
   24MOL   C185 6671   7.592   2.258   3.288  0.5608  0.0910  0.4013
   24MOL   C186 6672   7.473   2.238   3.215 -0.3985  1.0311 -0.9112
   24MOL   C187 6673   7.476   2.146   3.109 -0.8105  0.2944 -0.1460
   24MOL   C188 6674   7.366   2.136   3.012 -0.3091  0.2403 -0.5842
   24MOL   C189 6675   7.245   2.196   3.032 -0.8936 -0.2289 -0.0591
   24MOL   C190 6676   7.584   2.054   3.093  0.1952  0.1828  0.6275
   24MOL   C191 6677   7.696   2.071   3.174 -0.0025  0.1675 -0.7047
   24MOL   H192 6678   7.596   2.340   3.358  2.2252  2.0955 -1.9671
   24MOL   H193 6679   7.390   2.305   3.227 -1.1599  0.0650 -0.6906
   24MOL   H194 6680   7.379   2.079   2.921  0.8808 -2.4896  1.2375
   24MOL   H195 6681   7.226   2.255   3.121  2.6906 -0.6077  1.0532
   24MOL   H196 6682   7.581   1.981   3.013 -0.2417 -0.8900  1.6007
   24MOL   H197 6683   7.778   2.002   3.168 -0.3731 -0.2562 -0.9211
   24MOL   C198 6684   7.134   2.186   2.940  0.0210  0.3838  0.3175
   24MOL   C199 6685   7.030   2.275   2.942  0.6357 -0.5745 -0.5179
   24MOL   C200 6686   6.921   2.259   2.860 -0.5095 -0.2476  0.5959
   24MOL   C201 6687   6.911   2.154   2.764  0.2944 -0.6729  0.0520
   24MOL   C202 6688   6.804   2.139   2.664  0.5504  0.1682 -0.2348
   24MOL   C203 6689   6.694   2.214   2.663 -0.8178 -0.4362 -0.7421
   24MOL   C204 6690   7.019   2.065   2.759  0.2708  1.3087 -0.1872
   24MOL   C205 6691   7.126   2.071   2.848  0.5894 -1.2856  0.0050
   24MOL   H206 6692   7.041   2.355   3.014 -0.7014  0.9228 -1.9248
   24MOL   H207 6693   6.840   2.330   2.868  0.2875  0.5735  1.3614
   24MOL   H208 6694   6.816   2.065   2.586  1.7118  0.0872  0.0074
   24MOL   H209 6695   6.674   2.291   2.737  1.0467 -1.0346  0.4305
   24MOL   H210 6696   7.025   1.987   2.685  0.3134 -0.8258  1.9938
   24MOL   H211 6697   7.206   1.998   2.843 -1.0975 -3.2158  0.9745
   24MOL   C212 6698   6.579   2.211   2.566 -0.4490  0.2261 -0.0646
   24MOL   C213 6699   6.466   2.289   2.599  0.2150  0.0616 -0.4020
   24MOL   C214 6700   6.348   2.286   2.522 -0.5346  0.6917 -0.7445
   24MOL   C215 6701   6.345   2.204   2.403  0.1707  0.1932  0.1985
   24MOL   C216 6702   6.227   2.202   2.321  0.7612  0.3559 -0.9288
   24MOL   C217 6703   6.141   2.302   2.308 -0.1619  0.6332  0.3643
   24MOL   C218 6704   6.459   2.127   2.364  0.6016  0.2183  0.2914
   24MOL   C219 6705   6.572   2.125   2.452  1.2699  0.4870  0.2168
   24MOL   H220 6706   6.469   2.350   2.689 -0.5603  0.5447 -0.7043
   24MOL   H221 6707   6.264   2.349   2.546 -0.7768  0.3968 -0.8129
   24MOL   H222 6708   6.208   2.107   2.273  0.4558  0.0405 -0.1886
   24MOL   H223 6709   6.165   2.394   2.361  1.6280  0.9959 -1.0154
   24MOL   H224 6710   6.461   2.078   2.268  0.1762 -0.8518  0.8204
   24MOL   H225 6711   6.659   2.064   2.431 -0.2890 -1.8111  0.3430
   24MOL   C226 6712   6.021   2.311   2.225 -1.0489  0.3165  0.3887
   24MOL   C227 6713   5.916   2.408   2.250 -0.0225  0.9058  0.1462
   24MOL   C228 6714   5.801   2.416   2.170 -0.7225  0.0177 -0.2490
   24MOL   C229 6715   5.786   2.328   2.062  0.2030 -0.1245 -0.3338
   24MOL   C230 6716   5.657   2.322   1.986  0.0630 -0.4590  0.6359
   24MOL   C231 6717   5.582   2.432   1.975  0.1709 -0.1173 -0.8153
   24MOL   C232 6718   5.890   2.244   2.031  0.1525  0.4069 -0.4888
   24MOL   C233 6719   6.011   2.234   2.109  0.8807  0.2999 -1.1392
   24MOL   H234 6720   5.915   2.473   2.337  2.9483 -2.3047  2.7169
   24MOL   H235 6721   5.723   2.482   2.205 -0.1324  0.3785  0.4146
   24MOL   H236 6722   5.635   2.229   1.936 -1.6076  1.2998 -2.0729
   24MOL   H237 6723   5.610   2.523   2.026  0.0300 -0.8427  0.5928
   24MOL   H238 6724   5.879   2.176   1.947  0.4077 -1.3533  0.8691
   24MOL   H239 6725   6.083   2.154   2.095  1.0277  0.3222 -0.5154
   24MOL   C240 6726   5.456   2.438   1.906  0.6152  0.1354  0.0384
   24MOL   C241 6727   5.385   2.563   1.905  0.4038  0.7102 -0.4841
   24MOL   C242 6728   5.268   2.568   1.824 -0.8059 -0.3682  0.3768
   24MOL   C243 6729   5.213   2.461   1.752  0.0120  0.1805 -0.4174
   24MOL   C244 6730   5.093   2.478   1.674  0.1641  0.0571  0.4770
   24MOL   C245 6731   5.053   2.388   1.583 -0.4465 -0.0712  0.3394
   24MOL   C246 6732   5.288   2.344   1.753 -0.0324  0.2849  0.8139
   24MOL   C247 6733   5.399   2.325   1.834 -1.2059 -0.6001  0.1794
   24MOL   H248 6734   5.419   2.647   1.964 -1.0309  2.4839 -2.1103
   24MOL   H249 6735   5.217   2.663   1.817  2.1222  1.0637 -3.3605
   24MOL   H250 6736   5.024   2.559   1.695  0.7460  0.7211 -0.1161
   24MOL   H251 6737   5.122   2.306   1.568 -0.0024  0.1682  1.0237
   24MOL   H252 6738   5.261   2.256   1.696  1.9269  0.8351 -1.0101
   24MOL   H253 6739   5.461   2.237   1.824 -0.0984  0.1099  0.6480
   24MOL   C254 6740   4.937   2.387   1.486 -0.6009  0.3888  0.2921
   24MOL   C255 6741   4.861   2.504   1.461  0.7662 -0.4420 -0.1481
   24MOL   C256 6742   4.765   2.498   1.361  0.3372  0.3640 -0.3734
   24MOL   C257 6743   4.718   2.375   1.306 -0.4569 -0.0557  0.2365
   24MOL   C258 6744   4.615   2.374   1.205 -0.3891  0.3341  0.0314
   24MOL   C259 6745   4.515   2.284   1.194  0.4398 -0.3826 -0.6499
   24MOL   C260 6746   4.785   2.255   1.348  0.6802  0.2870  0.3935
   24MOL   C261 6747   4.893   2.268   1.435  0.3748 -0.0116 -0.0916
   24MOL   H262 6748   4.888   2.602   1.498  0.0073 -0.5191  0.6260
   24MOL   H263 6749   4.730   2.594   1.326  1.7058  1.1695  0.4548
   24MOL   H264 6750   4.616   2.439   1.119 -1.3265  0.1916 -0.0925
   24MOL   H265 6751   4.453   2.279   1.106 -3.7175  0.7380  2.0931
   24MOL   H266 6752   4.753   2.157   1.317 -1.4228  1.2803 -0.7086
   24MOL   H267 6753   4.930   2.176   1.478  1.7538 -0.4837 -2.2293
   24MOL   C268 6754   4.474   2.178   1.294  0.5150 -0.0741  0.1966
   24MOL   C269 6755   4.484   2.205   1.431  0.3092  0.3120 -0.3188
   24MOL   C270 6756   4.464   2.097   1.523 -0.2086 -0.4077 -0.1681
   24MOL   C271 6757   4.393   1.985   1.486 -0.6421  0.2245  0.4112
   24MOL   C272 6758   4.355   1.875   1.574 -0.4264 -0.1566 -0.1297
   24MOL   C273 6759   4.387   1.870   1.700  0.4744  0.2289 -0.5708
   24MOL   C274 6760   4.377   1.962   1.352  0.5913  0.0464 -0.6504
   24MOL   C275 6761   4.416   2.053   1.252  1.2730  0.6533  0.1072
   24MOL   H276 6762   4.523   2.299   1.466  0.8410  0.1117 -0.3632
   24MOL   H277 6763   4.491   2.120   1.625 -0.3585 -1.0860  0.0234
   24MOL   H278 6764   4.288   1.803   1.531 -2.2127  0.2870  1.7865
   24MOL   H279 6765   4.457   1.944   1.734  0.5950 -0.2873  0.2983
   24MOL   H280 6766   4.323   1.877   1.315  0.6618  1.3265 -3.8284
   24MOL   H281 6767   4.401   2.028   1.148  1.9560 -0.2033  0.2043
   24MOL   H282 6768   4.359   1.790   1.766  1.4288  0.2997 -0.0823
   25MOL     C1 6769   6.615   2.694   7.964  0.1473 -0.0276  0.1178
   25MOL     C2 6770   6.586   2.777   7.851  0.8006 -0.1739 -0.3719
   25MOL     C3 6771   6.677   2.868   7.798  0.5106  0.4620 -0.2141
   25MOL     C4 6772   6.806   2.875   7.857  0.2017 -0.5576  0.3007
   25MOL     C5 6773   6.907   2.964   7.785  0.0726 -0.1836 -0.1606
   25MOL     C6 6774   6.914   2.983   7.655  0.4720 -0.0125  0.5119
   25MOL     C7 6775   6.841   2.793   7.967 -0.4027 -0.0534 -0.2280
   25MOL     C8 6776   6.743   2.702   8.022 -0.1303 -0.0968 -0.1453
   25MOL     H9 6777   6.491   2.766   7.801 -0.6125 -1.8241  2.5474
   25MOL    H10 6778   6.655   2.928   7.712  1.3866 -0.2400 -0.9296
   25MOL    H11 6779   6.979   3.018   7.844 -0.0791  1.0662 -1.0875
   25MOL    H12 6780   6.847   2.936   7.584 -1.5436 -0.0184  2.3611
   25MOL    H13 6781   6.940   2.791   8.009 -1.1710 -2.7867  1.5603
   25MOL    H14 6782   6.781   2.642   8.103 -0.7189  1.0267  0.9784
   25MOL    H15 6783   6.542   2.625   8.002 -0.0987  0.2898  0.2289
   25MOL    C16 6784   7.007   3.075   7.588 -0.6969  0.2768 -0.3158
   25MOL    C17 6785   7.002   3.078   7.447  0.4272  0.0127  0.2293
   25MOL    C18 6786   7.087   3.168   7.381 -0.1112  0.5865  0.4288
   25MOL    C19 6787   7.179   3.251   7.446 -0.3969  0.1326 -0.2895
   25MOL    C20 6788   7.265   3.338   7.359 -0.8004 -0.2885  0.0187
   25MOL    C21 6789   7.344   3.436   7.402  0.1718 -0.2185 -0.5026
   25MOL    C22 6790   7.189   3.241   7.583 -0.4143 -0.6197 -0.4404
   25MOL    C23 6791   7.103   3.155   7.653 -0.2107 -0.0831 -0.1645
   25MOL    H24 6792   6.929   3.022   7.390 -1.2156  2.9145 -0.6333
   25MOL    H25 6793   7.079   3.180   7.274  1.7536 -1.2687  0.0352
   25MOL    H26 6794   7.266   3.304   7.256 -1.2425 -0.1514 -0.0328
   25MOL    H27 6795   7.344   3.472   7.504 -0.2455 -1.4732 -0.0525
   25MOL    H28 6796   7.248   3.305   7.647 -1.0570 -1.0174  0.5644
   25MOL    H29 6797   7.118   3.155   7.760  0.8979  1.1700 -0.3076
   25MOL    C30 6798   7.439   3.506   7.312 -0.1289 -0.1082  0.0885
   25MOL    C31 6799   7.437   3.497   7.174  0.0229 -0.2507  0.5058
   25MOL    C32 6800   7.539   3.552   7.097  0.5044 -0.4989  0.6318
   25MOL    C33 6801   7.656   3.598   7.154  0.3129  0.1687  0.4142
   25MOL    C34 6802   7.768   3.665   7.075 -0.2965  0.4743 -0.8842
   25MOL    C35 6803   7.774   3.688   6.940  0.1952  0.7320  0.0188
   25MOL    C36 6804   7.662   3.595   7.287 -0.5755 -0.5641 -0.3240
   25MOL    C37 6805   7.555   3.562   7.372  0.2026 -0.2210  0.8166
   25MOL    H38 6806   7.351   3.455   7.124 -1.7623  2.9903  0.6956
   25MOL    H39 6807   7.533   3.553   6.989  1.3663 -4.3649  0.4756
   25MOL    H40 6808   7.854   3.692   7.136  0.0687 -1.2857 -0.5901
   25MOL    H41 6809   7.693   3.656   6.876  1.5068 -1.4940 -0.5887
   25MOL    H42 6810   7.747   3.636   7.339 -1.2662  0.2248  0.1856
   25MOL    H43 6811   7.561   3.577   7.479 -0.8843 -0.5612  0.9387
   25MOL    C44 6812   7.893   3.745   6.875  0.1230  0.7087  0.3513
   25MOL    C45 6813   8.025   3.736   6.934  0.3231 -0.8032  0.2863
   25MOL    C46 6814   8.127   3.820   6.890  0.9288 -0.0345  0.5665
   25MOL    C47 6815   8.118   3.910   6.780 -0.7040 -0.2650  0.2380
   25MOL    C48 6816   0.083   4.010   6.749 -0.1365  0.0914  0.3679
   25MOL    C49 6817   0.065   4.127   6.685  0.2480  0.0755 -0.2455
   25MOL    C50 6818   7.986   3.915   6.721 -0.8032  0.7838  0.0680
   25MOL    C51 6819   7.879   3.835   6.769 -0.1048 -0.5122 -0.8492
   25MOL    H52 6820   8.040   3.667   7.016 -0.0652 -1.3074 -0.0619
   25MOL    H53 6821   0.079   3.823   6.939 -0.2480  2.7187  2.8889
   25MOL    H54 6822   0.179   3.985   6.790  0.0328  1.9066  1.1286
   25MOL    H55 6823   8.106   4.136   6.655 -0.1434 -1.5391  0.5597
   25MOL    H56 6824   7.974   3.973   6.630  1.1527  0.5356 -0.3732
   25MOL    H57 6825   7.780   3.852   6.730 -0.5861 -0.7786  0.2174
   25MOL    C58 6826   0.166   4.227   6.662 -0.0591 -0.1137 -0.4079
   25MOL    C59 6827   0.304   4.208   6.700  0.7032 -0.4666 -1.0589
   25MOL    C60 6828   0.394   4.307   6.667  0.2222  0.2810 -0.3779
   25MOL    C61 6829   0.359   4.434   6.610  0.3471  0.7332  0.0594
   25MOL    C62 6830   0.455   4.534   6.585 -0.3706  0.5754 -0.0677
   25MOL    C63 6831   0.585   4.520   6.611  0.5573 -0.0030 -0.3684
   25MOL    C64 6832   0.224   4.455   6.580 -0.2731  0.0416  0.4372
   25MOL    C65 6833   0.133   4.350   6.603 -0.1177  0.3224 -0.1020
   25MOL    H66 6834   0.342   4.113   6.735 -1.9055 -1.4255 -0.6862
   25MOL    H67 6835   0.496   4.285   6.696  0.2920  0.1096 -0.7423
   25MOL    H68 6836   0.417   4.626   6.544  1.1250  1.3139  0.1712
   25MOL    H69 6837   0.627   4.425   6.641  0.3009 -0.3902 -1.2232
   25MOL    H70 6838   0.195   4.548   6.534 -0.5857 -0.2355  0.0800
   25MOL    H71 6839   0.031   4.381   6.587 -0.4858 -0.3612  0.8416
   25MOL    C72 6840   0.677   4.636   6.596  0.7925  0.1260 -0.1813
   25MOL    C73 6841   0.631   4.766   6.573 -0.1034  0.6760  0.9510
   25MOL    C74 6842   0.722   4.875   6.559  0.4384  0.7753 -0.5415
   25MOL    C75 6843   0.860   4.854   6.575  0.7114 -0.0291 -0.2241
   25MOL    C76 6844   0.957   4.959   6.578 -0.0550 -0.3229 -0.4889
   25MOL    C77 6845   0.941   5.073   6.651  0.4485  0.8211  0.5023
   25MOL    C78 6846   0.903   4.723   6.589 -0.6339  0.0231 -0.0183
   25MOL    C79 6847   0.816   4.618   6.594  0.3364 -0.6147  0.6296
   25MOL    H80 6848   0.527   4.791   6.563 -0.2595 -0.7205 -1.2021
   25MOL    H81 6849   0.684   4.976   6.548 -1.6349  0.1068  0.1892
   25MOL    H82 6850   1.048   4.954   6.520  0.1681  1.2065 -0.3106
   25MOL    H83 6851   0.847   5.069   6.705 -1.1883  0.4405 -2.3102
   25MOL    H84 6852   1.010   4.712   6.585 -0.5704  0.7752 -0.3789
   25MOL    H85 6853   0.847   4.516   6.610 -4.3394 -2.6047 -1.6973
   25MOL    C86 6854   1.023   5.184   6.665  1.0576 -0.4442 -0.0918
   25MOL    C87 6855   1.139   5.205   6.593 -0.2318 -0.2360 -0.0530
   25MOL    C88 6856   1.204   5.329   6.596  0.5006 -1.0082 -0.3731
   25MOL    C89 6857   1.155   5.437   6.671  0.2688 -0.3347 -0.7146
   25MOL    C90 6858   1.231   5.564   6.666  0.2843 -0.5716  0.4982
   25MOL    C91 6859   1.216   5.671   6.739  0.1828 -0.2319 -0.0565
   25MOL    C92 6860   1.042   5.420   6.754  0.1265 -0.4110  0.0609
   25MOL    C93 6861   0.977   5.288   6.752  0.2827 -0.7563 -0.0067
   25MOL    H94 6862   1.184   5.132   6.527  1.9685  1.4130 -0.4224
   25MOL    H95 6863   1.286   5.344   6.526  0.4232  0.0372 -0.2550
   25MOL    H96 6864   1.304   5.573   6.588 -1.1922  0.0022 -0.8318
   25MOL    H97 6865   1.131   5.672   6.806 -1.7361 -0.0953 -2.4041
   25MOL    H98 6866   1.005   5.501   6.815 -0.1581 -0.6448  0.1947
   25MOL    H99 6867   0.891   5.286   6.817  1.4111  0.8047  1.6072
   25MOL   C100 6868   1.297   5.793   6.740 -0.1887 -0.5293 -0.0217
   25MOL   C101 6869   1.409   5.820   6.662 -0.0641 -0.8219  0.2507
   25MOL   C102 6870   1.471   5.947   6.665  0.3612  1.1709 -0.3295
   25MOL   C103 6871   1.432   6.050   6.758  0.1736  0.1385 -0.2799
   25MOL   C104 6872   1.518   6.171   6.772 -0.0407 -0.1431 -0.2381
   25MOL   C105 6873   1.487   6.266   6.856  0.6407  0.0344  0.2776
   25MOL   C106 6874   1.329   6.016   6.843 -0.3808 -0.4826 -0.3645
   25MOL   C107 6875   1.260   5.897   6.832  1.0335  0.3556 -0.1352
   25MOL   H108 6876   1.452   5.750   6.590 -0.3781  0.3532 -1.1067
   25MOL   H109 6877   1.557   5.973   6.605  0.4716 -2.4038 -1.8456
   25MOL   H110 6878   1.603   6.182   6.707 -0.3838 -1.6330 -0.9771
   25MOL   H111 6879   1.399   6.253   6.917  1.3504  1.3721  1.6306
   25MOL   H112 6880   1.295   6.084   6.920 -2.0222 -1.2201 -0.4172
   25MOL   H113 6881   1.177   5.877   6.898 -0.4362  3.0016 -1.0921
   25MOL   C114 6882   1.553   6.392   6.905  0.1633 -0.0350 -0.1163
   25MOL   C115 6883   1.496   6.470   7.003 -0.1278 -0.1170 -0.1375
   25MOL   C116 6884   1.552   6.594   7.039 -0.6454  0.0463  0.2758
   25MOL   C117 6885   1.669   6.637   6.987 -0.2125  0.0108 -0.2113
   25MOL   C118 6886   1.722   6.768   7.030 -0.4531  0.5005 -0.6658
   25MOL   C119 6887   1.797   6.846   6.951  0.3734  0.0454 -0.4560
   25MOL   C120 6888   1.723   6.567   6.880  0.8756 -0.7859  0.2706
   25MOL   C121 6889   1.668   6.437   6.843  0.5821  0.9336 -0.3752
   25MOL   H122 6890   1.401   6.440   7.044 -1.0686  1.8677 -0.8058
   25MOL   H123 6891   1.505   6.647   7.121 -0.9842  0.9594 -0.4991
   25MOL   H124 6892   1.715   6.787   7.136  0.1277 -1.7285 -0.2039
   25MOL   H125 6893   1.810   6.822   6.847 -0.0708 -0.4953 -0.3900
   25MOL   H126 6894   1.805   6.604   6.821  0.3449  2.4187  1.4215
   25MOL   H127 6895   1.722   6.376   6.772 -1.0245 -0.8077 -0.1299
   25MOL   C128 6896   1.864   6.967   6.996 -0.4332 -0.2616 -0.2328
   25MOL   C129 6897   1.890   7.072   6.906  0.0715 -0.1031 -0.3301
   25MOL   C130 6898   1.953   7.193   6.947 -0.2912 -0.3486 -0.1605
   25MOL   C131 6899   1.977   7.211   7.085  0.4559  0.7992 -0.1631
   25MOL   C132 6900   2.024   7.342   7.132  0.0035  0.4746 -0.3038
   25MOL   C133 6901   2.029   7.387   7.259 -0.5301  0.3804 -0.3315
   25MOL   C134 6902   1.944   7.104   7.177 -0.5849 -0.2192  0.9918
   25MOL   C135 6903   1.892   6.984   7.128 -0.2524  0.5007 -0.4406
   25MOL   H136 6904   1.864   7.057   6.803 -1.3124  2.2336 -0.3547
   25MOL   H137 6905   1.973   7.271   6.874  3.1419 -0.3050  0.7512
   25MOL   H138 6906   2.053   7.417   7.060  1.8827  2.6201  2.5662
   25MOL   H139 6907   1.995   7.324   7.340  0.8080 -0.9496 -0.7968
   25MOL   H140 6908   1.983   7.111   7.277  1.1415  3.1914  0.1624
   25MOL   H141 6909   1.898   6.893   7.186 -0.2120 -0.1244 -1.4068
   25MOL   C142 6910   2.086   7.517   7.310  0.0278 -0.3112 -0.1573
   25MOL   C143 6911   2.117   7.622   7.220 -0.2830  0.3376  0.2914
   25MOL   C144 6912   2.158   7.748   7.266  0.6403  0.4641 -0.3216
   25MOL   C145 6913   2.174   7.773   7.406  0.1870 -0.2582 -0.5397
   25MOL   C146 6914   2.228   7.905   7.443 -1.2916  0.0072  0.3678
   25MOL   C147 6915   2.286   7.914   7.563  1.0332  0.1284  0.5601
   25MOL   C148 6916   2.136   7.672   7.495  0.1996 -0.3948 -0.2742
   25MOL   C149 6917   2.096   7.544   7.448  0.1590 -0.3667  0.7953
   25MOL   H150 6918   2.090   7.617   7.115 -1.9031 -1.5201  0.7647
   25MOL   H151 6919   2.173   7.828   7.196 -0.4232 -0.0951 -1.2013
   25MOL   H152 6920   2.215   7.992   7.380 -1.2819  0.0535  0.4291
   25MOL   H153 6921   2.293   7.829   7.629  2.5415 -1.0697 -1.0973
   25MOL   H154 6922   2.123   7.693   7.600  0.3482  0.2408 -0.3821
   25MOL   H155 6923   2.042   7.477   7.513 -1.9490  0.3166 -0.1947
   25MOL   C156 6924   2.350   8.026   7.635 -0.6774 -0.0549  0.2417
   25MOL   C157 6925   2.342   0.015   7.596  0.1822 -1.2718  0.2054
   25MOL   C158 6926   2.397   0.106   7.689 -0.0109  0.3352  0.8577
   25MOL   C159 6927   2.458   0.072   7.815  0.4566  0.0148  0.1492
   25MOL   C160 6928   2.506   0.166   7.921 -0.3167  0.0208  0.2981
   25MOL   C161 6929   2.425   0.267   7.962 -0.4005  1.0226 -0.1390
   25MOL   C162 6930   2.465   8.080   7.851  0.4680  1.0980  0.2332
   25MOL   C163 6931   2.409   7.985   7.762 -0.1590 -0.2647 -0.2359
   25MOL   H164 6932   2.287   0.047   7.509 -1.7809  2.3442  2.6517
   25MOL   H165 6933   2.408   0.201   7.639 -1.9294  0.2194  0.2026
   25MOL   H166 6934   2.609   0.149   7.949  0.7968  1.9018 -2.4702
   25MOL   H167 6935   2.329   0.277   7.914  0.0931  0.4215 -1.2531
   25MOL   H168 6936   2.498   8.048   7.949 -2.0972  0.8191  1.0309
   25MOL   H169 6937   2.412   7.881   7.792  1.0718  0.1672  1.2003
   25MOL   C170 6938   2.458   0.370   8.067 -0.0819 -0.2402  1.0944
   25MOL   C171 6939   2.573   0.353   8.141  0.3855  0.1394 -0.2763
   25MOL   C172 6940   2.604   0.438   0.107 -0.4285 -0.5495 -0.5600
   25MOL   C173 6941   2.512   0.534   0.152  0.2834 -0.6549 -0.0542
   25MOL   C174 6942   2.526   0.608   0.281  0.1628 -0.7486 -0.3210
   25MOL   C175 6943   2.611   0.574   0.378 -0.1280  1.0240  0.0291
   25MOL   C176 6944   2.397   0.549   0.072  0.0655  0.2130  0.2346
   25MOL   C177 6945   2.375   0.472   8.097 -0.7940 -0.4185  0.2693
   25MOL   H178 6946   2.645   0.275   8.120 -0.9242 -0.8616 -1.1218
   25MOL   H179 6947   2.698   0.410   0.153 -1.5049 -2.1167  0.7129
   25MOL   H180 6948   2.460   0.693   0.293  3.1464  1.8025 -1.2418
   25MOL   H181 6949   2.676   0.490   0.361 -1.5037 -0.2312  0.7738
   25MOL   H182 6950   2.322   0.619   0.103 -1.7197 -0.2469 -2.8278
   25MOL   H183 6951   2.278   0.480   8.050 -0.8574 -0.3477  0.4104
   25MOL   C184 6952   2.629   0.635   0.508  0.1337  0.3406  0.1498
   25MOL   C185 6953   2.572   0.758   0.550  0.9349 -0.3258  0.0153
   25MOL   C186 6954   2.568   0.799   0.681  0.4810 -0.0829  0.2848
   25MOL   C187 6955   2.642   0.724   0.773 -0.2682  0.3651  0.4081
   25MOL   C188 6956   2.652   0.773   0.909 -0.5119 -0.0475  0.6057
   25MOL   C189 6957   2.751   0.745   0.997  0.7893  0.5369  0.7257
   25MOL   C190 6958   2.715   0.611   0.735  0.1442 -0.2983  0.3157
   25MOL   C191 6959   2.712   0.562   0.599 -0.0600 -0.1011 -0.2566
   25MOL   H192 6960   2.514   0.811   0.477 -1.0567 -1.5963  0.6396
   25MOL   H193 6961   2.511   0.887   0.708  1.2656  0.1127  1.3469
   25MOL   H194 6962   2.574   0.838   0.947  0.5061  1.3444  0.3734
   25MOL   H195 6963   2.843   0.695   0.969  1.2004  0.1855  2.5870
   25MOL   H196 6964   2.773   0.555   0.807 -0.5197 -1.7379 -0.2323
   25MOL   H197 6965   2.766   0.473   0.571  0.7986  0.8749 -1.8034
   25MOL   C198 6966   2.757   0.774   1.142  0.2376  0.6982  0.3503
   25MOL   C199 6967   2.821   0.674   1.216 -0.5030 -0.2731  0.6996
   25MOL   C200 6968   2.831   0.679   1.356  0.0385  0.2533 -0.1111
   25MOL   C201 6969   2.778   0.787   1.425  0.3586 -0.4088  0.3472
   25MOL   C202 6970   2.807   0.807   1.567 -0.0375  0.1417  0.9569
   25MOL   C203 6971   2.910   0.757   1.632 -0.2232  0.1726 -0.1442
   25MOL   C204 6972   2.703   0.886   1.351 -0.5927 -0.6401 -0.2485
   25MOL   C205 6973   2.695   0.882   1.211 -0.0441  0.4080  0.3060
   25MOL   H206 6974   2.861   0.585   1.169 -0.5112  0.7178 -1.2514
   25MOL   H207 6975   2.879   0.596   1.406 -0.0115 -0.3812 -1.1101
   25MOL   H208 6976   2.732   0.865   1.618  0.5397  0.3942  1.5271
   25MOL   H209 6977   2.978   0.700   1.571  0.8334  1.6110 -0.3356
   25MOL   H210 6978   2.664   0.972   1.404  2.0242  0.7678 -0.5396
   25MOL   H211 6979   2.661   0.964   1.150  0.2290 -2.1741 -3.4528
   25MOL   C212 6980   2.925   0.776   1.777  0.4509 -0.4434  0.1302
   25MOL   C213 6981   2.828   0.840   1.859 -0.3982 -0.4836  0.4993
   25MOL   C214 6982   2.855   0.836   1.997 -0.0360  0.2242  0.2575
   25MOL   C215 6983   2.976   0.789   2.053  0.3506 -0.1712 -0.0448
   25MOL   C216 6984   2.995   0.789   2.197  0.2990 -0.4129  0.2611
   25MOL   C217 6985   3.107   0.748   2.264  0.4371  0.2534  1.2353
   25MOL   C218 6986   3.072   0.737   1.962  0.2830 -0.2649  0.3793
   25MOL   C219 6987   3.046   0.729   1.828 -0.0490 -1.1618  0.1827
   25MOL   H220 6988   2.727   0.866   1.830 -0.2082 -0.5101 -0.1710
   25MOL   H221 6989   2.775   0.871   2.061 -0.2384 -2.4425  1.5730
   25MOL   H222 6990   2.913   0.830   2.254 -0.4395 -0.1084 -0.9961
   25MOL   H223 6991   3.186   0.705   2.204 -2.1043 -1.2877 -1.1048
   25MOL   H224 6992   3.162   0.693   2.001  0.0620 -1.6576 -0.6632
   25MOL   H225 6993   3.126   0.692   1.764  0.9619 -0.9115  1.2816
   25MOL   C226 6994   3.140   0.757   2.413 -0.1684  0.2398 -0.1107
   25MOL   C227 6995   3.069   0.854   2.494  0.1159 -0.7049 -0.3971
   25MOL   C228 6996   3.088   0.858   2.634 -0.0319  0.1901  0.0912
   25MOL   C229 6997   3.182   0.772   2.689 -0.6374  0.6090  0.7081
   25MOL   C230 6998   3.207   0.784   2.836  0.4993 -0.6268  0.8219
   25MOL   C231 6999   3.328   0.756   2.883 -0.4128  0.0925 -0.7205
   25MOL   C232 7000   3.252   0.678   2.614 -0.0203 -0.4001  0.1766
   25MOL   C233 7001   3.232   0.672   2.476 -0.5633  0.5743  0.0155
   25MOL   H234 7002   2.996   0.913   2.440  1.5488  0.3147 -1.2613
   25MOL   H235 7003   3.038   0.929   2.698  0.5955 -0.4897  1.3464
   25MOL   H236 7004   3.128   0.815   2.903  0.1760  1.6617 -0.5871
   25MOL   H237 7005   3.413   0.742   2.819  1.6199  2.7075  1.2977
   25MOL   H238 7006   3.319   0.605   2.657  1.2673  1.1481  0.8853
   25MOL   H239 7007   3.278   0.595   2.416  0.9117  2.6436 -1.5531
   25MOL   C240 7008   3.361   0.751   3.028 -0.4188 -0.1132  0.3557
   25MOL   C241 7009   3.259   0.752   3.119  0.0082  0.4934  0.5781
   25MOL   C242 7010   3.285   0.759   3.257  0.4094  0.4336  0.1502
   25MOL   C243 7011   3.419   0.773   3.298 -0.2898  0.8461 -0.1814
   25MOL   C244 7012   3.450   0.789   3.437 -0.3700  0.0220 -0.0777
   25MOL   C245 7013   3.363   0.805   3.539 -0.7235 -0.1605 -0.2183
   25MOL   C246 7014   3.529   0.771   3.207 -0.1489 -0.0822 -0.0001
   25MOL   C247 7015   3.495   0.771   3.070 -0.3350  0.2110 -0.3691
   25MOL   H248 7016   3.153   0.756   3.098  0.0949  2.4382  0.4034
   25MOL   H249 7017   3.199   0.753   3.322 -1.5113 -2.1045 -2.4693
   25MOL   H250 7018   3.553   0.802   3.467 -0.5513 -1.0714  1.0810
   25MOL   H251 7019   3.258   0.790   3.521 -0.4573 -1.5519 -0.6285
   25MOL   H252 7020   3.630   0.772   3.244 -0.5441 -0.1301  1.0758
   25MOL   H253 7021   3.575   0.780   2.998  1.3271 -1.1442  1.2410
   25MOL   C254 7022   3.404   0.827   3.673  0.3535 -0.1951 -0.4839
   25MOL   C255 7023   3.506   0.915   3.699 -0.9873  0.2998 -0.0257
   25MOL   C256 7024   3.532   0.943   3.835  0.0328 -0.0179  0.0419
   25MOL   C257 7025   3.458   0.885   3.934 -0.9394 -0.2287  0.3468
   25MOL   C258 7026   3.468   0.926   4.084  0.5061 -0.2771  0.4145
   25MOL   C259 7027   3.576   0.954   4.160  0.1619  0.7561  0.1253
   25MOL   C260 7028   3.361   0.789   3.903  0.2726  0.3297  0.4265
   25MOL   C261 7029   3.331   0.758   3.772  0.0594  0.3540 -0.2656
   25MOL   H262 7030   3.566   0.954   3.618 -1.1010  0.7349  0.0972
   25MOL   H263 7031   3.619   1.004   3.857 -0.9526  0.6783  2.0736
   25MOL   H264 7032   3.380   0.934   4.145  0.8432 -1.2116  1.0319
   25MOL   H265 7033   3.556   0.980   4.263  0.0020  0.1796  0.2452
   25MOL   H266 7034   3.303   0.740   3.980 -1.0280 -0.3324 -0.9507
   25MOL   H267 7035   3.260   0.682   3.742  0.3726  0.4381 -1.2246
   25MOL   C268 7036   3.715   0.932   4.130  0.2468  0.9745  0.8794
   25MOL   C269 7037   3.769   0.841   4.038 -0.6924 -0.4295  0.8973
   25MOL   C270 7038   3.908   0.819   4.018 -0.2647  0.0629  0.2070
   25MOL   C271 7039   3.996   0.896   4.092  1.3134 -0.8121 -0.3225
   25MOL   C272 7040   4.135   0.887   4.064 -0.2319 -0.0348 -0.0111
   25MOL   C273 7041   4.193   0.830   3.958  0.7715 -0.5932 -0.1609
   25MOL   C274 7042   3.949   0.984   4.191 -0.5936  0.1337 -0.4089
   25MOL   C275 7043   3.806   1.011   4.204  0.0415  0.2576  0.2246
   25MOL   H276 7044   3.697   0.783   3.984 -1.1819  0.0693  1.0087
   25MOL   H277 7045   3.944   0.756   3.938  1.6692 -0.9684  1.8430
   25MOL   H278 7046   4.198   0.930   4.140  0.1959  1.6669 -1.2919
   25MOL   H279 7047   4.144   0.792   3.869  1.2484 -0.2404 -0.5743
   25MOL   H280 7048   4.025   1.040   4.244  0.6824 -0.9757 -1.0187
   25MOL   H281 7049   3.777   1.087   4.274  1.8238  0.3460  0.9089
   25MOL   H282 7050   4.301   0.830   3.957  0.8879  3.6857  1.3529
   26MOL     C1 7051   1.806   1.301   4.920  0.7867 -0.1084 -0.0816
   26MOL     C2 7052   1.821   1.439   4.938  1.0872 -0.2948  0.0736
   26MOL     C3 7053   1.941   1.486   5.004 -0.3915  0.5352  0.2339
   26MOL     C4 7054   2.042   1.391   5.033 -0.5576  0.0650 -0.2430
   26MOL     C5 7055   2.176   1.442   5.087  0.2266 -0.5808 -0.0163
   26MOL     C6 7056   2.200   1.564   5.140  0.2494  0.3658 -0.0382
   26MOL     C7 7057   2.030   1.257   5.001  0.3568  1.0163  0.0065
   26MOL     C8 7058   1.905   1.212   4.960 -0.9094  0.0087 -0.2149
   26MOL     H9 7059   1.738   1.506   4.917  0.1063 -0.5115  3.0651
   26MOL    H10 7060   1.950   1.593   5.017 -3.6370  1.2642 -2.5855
   26MOL    H11 7061   2.258   1.374   5.071  0.1437 -0.3022 -1.6766
   26MOL    H12 7062   2.119   1.635   5.147 -0.4424 -0.4816  0.4738
   26MOL    H13 7063   2.108   1.182   5.002  0.3632  1.0086 -0.7611
   26MOL    H14 7064   1.895   1.112   4.922 -0.3226  0.1899 -0.8536
   26MOL    H15 7065   1.714   1.266   4.874  0.7748 -0.5385  0.2674
   26MOL    C16 7066   2.339   1.616   5.174  0.2287  0.4731  0.2590
   26MOL    C17 7067   2.462   1.560   5.131  0.7103 -0.0660  0.5144
   26MOL    C18 7068   2.579   1.625   5.167 -0.3336  0.7056 -0.9515
   26MOL    C19 7069   2.586   1.739   5.251  0.0474 -0.1432 -0.0375
   26MOL    C20 7070   2.713   1.806   5.287  0.3950 -0.5958 -0.8700
   26MOL    C21 7071   2.834   1.758   5.263 -0.0109  0.6979 -0.1502
   26MOL    C22 7072   2.466   1.789   5.301  0.3694  1.0317 -0.3292
   26MOL    C23 7073   2.348   1.731   5.255  0.4337  0.1170  0.1874
   26MOL    H24 7074   2.461   1.472   5.069 -1.4230  0.3964 -0.1441
   26MOL    H25 7075   2.671   1.584   5.128 -0.6625  0.1459 -1.1392
   26MOL    H26 7076   2.713   1.905   5.330  1.1494 -2.0713  2.6588
   26MOL    H27 7077   2.844   1.667   5.204  0.1882  0.5460  0.1168
   26MOL    H28 7078   2.460   1.877   5.363  1.8510  1.5242 -0.8742
   26MOL    H29 7079   2.256   1.771   5.296  0.6439 -0.0360  0.8144
   26MOL    C30 7080   2.960   1.814   5.314  0.3048  0.9905  0.3380
   26MOL    C31 7081   3.075   1.736   5.337  0.2828  0.1684  0.2099
   26MOL    C32 7082   3.194   1.803   5.376  0.4911  0.0903  0.1023
   26MOL    C33 7083   3.201   1.945   5.382  0.1197 -0.4387 -0.4161
   26MOL    C34 7084   3.322   2.015   5.413  0.1111 -0.5019  0.3833
   26MOL    C35 7085   3.446   1.964   5.434 -0.2212 -0.2292 -0.4107
   26MOL    C36 7086   3.079   2.015   5.365 -0.6461 -1.1414  0.1488
   26MOL    C37 7087   2.963   1.948   5.334 -0.0147  0.2985  0.2255
   26MOL    H38 7088   3.073   1.628   5.338  1.8200  0.1294  1.6321
   26MOL    H39 7089   3.275   1.735   5.398  0.7245  0.0886 -0.7545
   26MOL    H40 7090   3.323   2.122   5.428 -0.2399 -0.3947 -0.3409
   26MOL    H41 7091   3.456   1.856   5.426 -2.3511 -0.5131  0.3540
   26MOL    H42 7092   3.081   2.123   5.371 -1.5286 -1.1978  1.9879
   26MOL    H43 7093   2.884   2.015   5.305 -0.0331  0.6326  1.0289
   26MOL    C44 7094   3.570   2.041   5.462  0.1196 -0.8712  1.0193
   26MOL    C45 7095   3.573   2.183   5.447 -0.2531 -0.0011  0.8035
   26MOL    C46 7096   3.693   2.251   5.483  0.2867  0.7100 -0.7485
   26MOL    C47 7097   3.811   2.175   5.515  0.1712  0.5376 -0.0813
   26MOL    C48 7098   3.932   2.250   5.560  0.0338 -0.4469  0.0971
   26MOL    C49 7099   4.008   2.213   5.659  0.1951  0.8692  0.1280
   26MOL    C50 7100   3.806   2.035   5.524  0.4492 -0.7528 -0.8009
   26MOL    C51 7101   3.690   1.971   5.494 -0.3492  0.3716  0.0134
   26MOL    H52 7102   3.492   2.242   5.407  1.0503  1.0863 -0.2863
   26MOL    H53 7103   3.682   2.358   5.477  1.9669  0.8759 -1.1228
   26MOL    H54 7104   3.964   2.333   5.500 -0.3253 -0.0930  0.3915
   26MOL    H55 7105   3.983   2.129   5.722 -0.1605  0.1797 -0.9176
   26MOL    H56 7106   3.896   1.980   5.548  1.2076  0.9376  0.3838
   26MOL    H57 7107   3.686   1.863   5.499  0.9263  0.1312 -2.8790
   26MOL    C58 7108   4.139   2.278   5.687  0.1544  0.4390 -1.2348
   26MOL    C59 7109   4.208   2.241   5.805  0.2885 -0.0802  0.0862
   26MOL    C60 7110   4.334   2.296   5.823  0.0295  0.3420 -1.0360
   26MOL    C61 7111   4.400   2.379   5.727 -0.3090 -0.1985 -0.5797
   26MOL    C62 7112   4.538   2.417   5.743  0.0359  0.5886 -0.0283
   26MOL    C63 7113   4.613   2.398   5.853 -0.0242 -0.4269  0.1017
   26MOL    C64 7114   4.326   2.418   5.613  0.2423 -0.3757  0.4893
   26MOL    C65 7115   4.197   2.364   5.598 -0.1845  0.4985  0.3902
   26MOL    H66 7116   4.154   2.173   5.869  1.3515 -2.0989 -1.1111
   26MOL    H67 7117   4.381   2.273   5.918 -2.4299  0.0399  0.1416
   26MOL    H68 7118   4.576   2.477   5.662  1.1342  0.5906  0.4830
   26MOL    H69 7119   4.570   2.344   5.936  2.1994 -1.6143  0.5204
   26MOL    H70 7120   4.365   2.493   5.546 -0.9296 -0.4238 -0.2618
   26MOL    H71 7121   4.144   2.397   5.510  0.9937 -1.8731 -1.2979
   26MOL    C72 7122   4.748   2.451   5.870  0.7919 -0.1858 -0.2280
   26MOL    C73 7123   4.829   2.392   5.968 -1.0529  0.1030  1.2465
   26MOL    C74 7124   4.958   2.437   5.979  0.3326 -0.0926 -0.6812
   26MOL    C75 7125   5.010   2.551   5.919  0.6545 -0.4584 -0.2546
   26MOL    C76 7126   5.149   2.590   5.945 -0.0109  0.2142  0.4033
   26MOL    C77 7127   5.192   2.713   5.931  0.1311 -0.6760  0.7295
   26MOL    C78 7128   4.922   2.629   5.842  0.4089 -0.1363  0.3741
   26MOL    C79 7129   4.795   2.572   5.803 -0.4840 -0.0381  0.2447
   26MOL    H80 7130   4.801   2.297   6.010 -1.5656  0.4958  1.7924
   26MOL    H81 7131   5.022   2.373   6.039  2.3199 -0.0189 -2.6584
   26MOL    H82 7132   5.215   2.508   5.971  0.2569  0.4111  0.3432
   26MOL    H83 7133   5.126   2.791   5.893  1.6351 -0.0122 -0.6019
   26MOL    H84 7134   4.953   2.724   5.802 -0.6522  0.2336  0.4200
   26MOL    H85 7135   4.731   2.627   5.736  0.0857  0.2490 -0.0707
   26MOL    C86 7136   5.331   2.759   5.948 -0.4067 -0.3026  0.4650
   26MOL    C87 7137   5.357   2.895   5.948 -0.0203  0.0843 -0.4876
   26MOL    C88 7138   5.482   2.949   5.980 -0.0949  0.0897  0.0308
   26MOL    C89 7139   5.586   2.860   6.009 -0.5513 -0.3226  0.6074
   26MOL    C90 7140   5.721   2.902   6.041 -0.8145 -0.2032 -0.5875
   26MOL    C91 7141   5.768   3.031   6.031 -0.1359  0.1197  0.2782
   26MOL    C92 7142   5.563   2.721   6.010 -0.0683  0.3502 -0.3286
   26MOL    C93 7143   5.437   2.669   5.980 -0.1925 -0.1638  0.1618
   26MOL    H94 7144   5.267   2.951   5.928  0.0263  0.2064 -0.3542
   26MOL    H95 7145   5.493   3.056   5.977  0.1380  0.0763  0.3801
   26MOL    H96 7146   5.793   2.829   6.075  0.3296  0.6353 -1.1927
   26MOL    H97 7147   5.710   3.114   5.994  2.9024  1.9787 -0.4817
   26MOL    H98 7148   5.637   2.654   6.050  0.3986  0.6743 -0.6481
   26MOL    H99 7149   5.416   2.564   5.996  0.7539 -0.5211 -0.8815
   26MOL   C100 7150   5.909   3.064   6.070 -0.8577  0.2462 -0.5751
   26MOL   C101 7151   6.011   2.963   6.077 -0.5840 -0.3333  0.0336
   26MOL   C102 7152   6.144   3.001   6.107  0.0663 -0.3963  0.2614
   26MOL   C103 7153   6.177   3.139   6.124 -0.3252 -0.4081  0.0236
   26MOL   C104 7154   6.319   3.169   6.147  0.4484 -0.1526  0.1710
   26MOL   C105 7155   6.382   3.287   6.136  0.0375 -0.3199  0.0018
   26MOL   C106 7156   6.077   3.233   6.107 -0.1049 -0.2074  0.0187
   26MOL   C107 7157   5.944   3.200   6.070 -0.5735  0.4900  0.1262
   26MOL   H108 7158   6.000   2.866   6.032  0.9601 -1.5985  2.3033
   26MOL   H109 7159   6.220   2.926   6.123  0.5937 -0.2979 -1.6120
   26MOL   H110 7160   6.365   3.079   6.187  0.7342 -1.2366 -2.5393
   26MOL   H111 7161   6.323   3.365   6.091 -1.2295 -1.3721 -0.1744
   26MOL   H112 7162   6.105   3.337   6.116 -0.7358 -0.1288  1.2290
   26MOL   H113 7163   5.869   3.277   6.061 -1.7693 -0.6119  0.5750
   26MOL   C114 7164   6.514   3.323   6.177 -0.2082  0.6786 -0.1469
   26MOL   C115 7165   6.558   3.455   6.170  0.0155 -0.2266  0.6327
   26MOL   C116 7166   6.687   3.499   6.200  0.0965  0.5052  0.5138
   26MOL   C117 7167   6.786   3.398   6.232 -0.0096  0.3384 -0.4272
   26MOL   C118 7168   6.917   3.443   6.260  0.4148 -0.7198  0.0771
   26MOL   C119 7169   7.011   3.387   6.343  0.2732  0.1691  0.4421
   26MOL   C120 7170   6.742   3.257   6.244 -0.1747 -0.2330  0.9432
   26MOL   C121 7171   6.610   3.223   6.210 -0.8103  0.0931 -0.2828
   26MOL   H122 7172   6.487   3.526   6.132  0.5638  1.2634  2.3389
   26MOL   H123 7173   6.709   3.604   6.188  0.8435  0.4978  1.7175
   26MOL   H124 7174   6.949   3.536   6.214 -0.2093 -0.2865  0.5047
   26MOL   H125 7175   6.985   3.295   6.393  1.4156  1.1253  2.8926
   26MOL   H126 7176   6.810   3.178   6.274 -0.4569  0.6880  4.2363
   26MOL   H127 7177   6.579   3.119   6.214  0.3611 -0.2865 -1.0167
   26MOL   C128 7178   7.143   3.439   6.353  0.0216  0.0014  0.1194
   26MOL   C129 7179   7.175   3.576   6.335 -0.1354 -0.3521  0.9453
   26MOL   C130 7180   7.309   3.624   6.340 -0.1738  0.3110 -0.1308
   26MOL   C131 7181   7.416   3.529   6.373  0.5379 -0.2207  0.0089
   26MOL   C132 7182   7.555   3.574   6.384  0.2106  0.3670  0.5933
   26MOL   C133 7183   7.599   3.684   6.317  0.2645 -0.0908  0.0643
   26MOL   C134 7184   7.385   3.390   6.381 -0.1348 -0.0899 -0.5141
   26MOL   C135 7185   7.253   3.350   6.373  1.2016 -0.3667 -0.0335
   26MOL   H136 7186   7.093   3.645   6.320 -1.0372 -1.8179 -1.0813
   26MOL   H137 7187   7.330   3.727   6.318  1.0076  0.6596  2.3836
   26MOL   H138 7188   7.620   3.519   6.450 -1.5625  0.1113  2.1558
   26MOL   H139 7189   7.532   3.736   6.252 -0.7157 -0.0650  1.0840
   26MOL   H140 7190   7.457   3.315   6.409  1.7898  0.8874 -2.6758
   26MOL   H141 7191   7.230   3.245   6.372  2.1344 -0.5870  1.1370
   26MOL   C142 7192   7.725   3.748   6.328  0.7990 -0.1870  0.1242
   26MOL   C143 7193   7.743   3.863   6.248 -0.5724 -0.2183 -0.0782
   26MOL   C144 7194   7.860   3.936   6.250 -0.6870 -0.2236  0.3727
   26MOL   C145 7195   7.970   3.892   6.321  0.5795  0.0431 -0.1581
   26MOL   C146 7196   8.101   3.966   6.338 -0.1560 -0.3009 -0.5363
   26MOL   C147 7197   8.140   4.057   6.253  0.4770 -1.3885  0.1394
   26MOL   C148 7198   7.956   3.775   6.400 -0.2933 -0.4379 -0.1597
   26MOL   C149 7199   7.831   3.707   6.412 -0.2262  0.2815 -0.6999
   26MOL   H150 7200   7.666   3.898   6.181  1.1363  0.7637 -1.5704
   26MOL   H151 7201   7.864   4.033   6.203  0.0643 -0.3644  0.1448
   26MOL   H152 7202   0.017   3.937   6.422 -0.1593  1.4995  0.1102
   26MOL   H153 7203   8.071   4.079   6.173 -0.5191  0.3779  1.4351
   26MOL   H154 7204   8.045   3.747   6.454 -0.7176  0.8111  1.2079
   26MOL   H155 7205   7.831   3.619   6.475  0.8135  0.3455 -0.6070
   26MOL   C156 7206   0.117   4.132   6.238 -0.0585 -0.2588 -0.0382
   26MOL   C157 7207   0.119   4.246   6.161 -0.2321 -0.4332 -0.4049
   26MOL   C158 7208   0.224   4.337   6.168 -1.0103  0.2881 -0.5693
   26MOL   C159 7209   0.337   4.316   6.250 -0.7500  0.2057 -0.5859
   26MOL   C160 7210   0.454   4.409   6.240 -0.1830  0.4965  0.4328
   26MOL   C161 7211   0.436   4.537   6.208 -0.0368 -0.7584  0.1571
   26MOL   C162 7212   0.335   4.208   6.343  0.1383 -0.5082  0.1920
   26MOL   C163 7213   0.223   4.122   6.336  0.0987  0.2657  0.2127
   26MOL   H164 7214   0.039   4.272   6.093  1.6500 -0.2635 -2.6214
   26MOL   H165 7215   0.232   4.427   6.108  0.6026 -1.1688 -2.5908
   26MOL   H166 7216   0.550   4.365   6.261  0.0499  0.5046 -0.5797
   26MOL   H167 7217   0.341   4.583   6.185 -0.2052 -1.2838 -0.1980
   26MOL   H168 7218   0.416   4.184   6.409 -0.5063  1.0513  1.5690
   26MOL   H169 7219   0.220   4.044   6.411  0.0921 -0.1204 -0.1877
   26MOL   C170 7220   0.535   4.644   6.204  1.0113  0.2214  0.1466
   26MOL   C171 7221   0.497   4.778   6.178  0.3012 -0.0074 -0.2169
   26MOL   C172 7222   0.594   4.876   6.178 -0.0300 -0.4999  0.0488
   26MOL   C173 7223   0.728   4.856   6.217 -0.2053 -0.3509 -0.3137
   26MOL   C174 7224   0.809   4.975   6.221 -0.4924 -0.1019 -0.4015
   26MOL   C175 7225   0.939   4.986   6.237 -0.1525 -0.0169  0.4313
   26MOL   C176 7226   0.766   4.719   6.235 -0.1723  0.4055 -0.2498
   26MOL   C177 7227   0.670   4.617   6.225 -0.1439 -0.1632 -0.5189
   26MOL   H178 7228   0.395   4.807   6.156 -0.5335 -2.2567  0.5527
   26MOL   H179 7229   0.563   4.980   6.172  2.7154  0.3430 -0.5351
   26MOL   H180 7230   0.751   5.066   6.211 -0.5923  0.0161  1.0070
   26MOL   H181 7231   1.004   4.900   6.244 -0.5256 -0.1091  4.4209
   26MOL   H182 7232   0.869   4.695   6.257 -0.2017 -1.7460 -2.2772
   26MOL   H183 7233   0.703   4.515   6.242  2.4753  0.7468 -0.0489
   26MOL   C184 7234   1.000   5.123   6.260 -0.0831  0.7652  0.7490
   26MOL   C185 7235   0.932   5.243   6.274 -0.2063 -0.2442  0.1645
   26MOL   C186 7236   0.998   5.368   6.273  0.4844  0.4772  0.0931
   26MOL   C187 7237   1.138   5.377   6.279  0.0619 -0.0833 -0.0303
   26MOL   C188 7238   1.206   5.506   6.291 -0.4133 -0.5836  0.8030
   26MOL   C189 7239   1.338   5.533   6.296  0.1225 -0.0576 -0.1483
   26MOL   C190 7240   1.205   5.254   6.269  0.4373  0.1896  0.2263
   26MOL   C191 7241   1.138   5.134   6.261 -0.0732  0.3708  0.2533
   26MOL   H192 7242   0.825   5.240   6.277 -0.3491  0.3293 -2.7157
   26MOL   H193 7243   0.938   5.458   6.272 -0.1491  0.1332 -4.6527
   26MOL   H194 7244   1.139   5.590   6.295 -2.6190 -2.3436  1.4666
   26MOL   H195 7245   1.409   5.452   6.301  2.0499  1.5785 -0.2589
   26MOL   H196 7246   1.312   5.254   6.282  0.2275 -0.0842  2.1736
   26MOL   H197 7247   1.196   5.043   6.267 -0.5144  0.0215 -0.5676
   26MOL   C198 7248   1.396   5.668   6.300 -0.6682  0.1525  0.4294
   26MOL   C199 7249   1.521   5.698   6.244  0.1539 -1.3088 -0.2685
   26MOL   C200 7250   1.570   5.833   6.250 -0.1232 -0.5988  0.0328
   26MOL   C201 7251   1.487   5.937   6.297 -0.0826  0.4188  0.7314
   26MOL   C202 7252   1.541   6.074   6.298 -0.5176 -0.2385  0.0707
   26MOL   C203 7253   1.497   6.174   6.380  0.2926  0.0723 -0.2497
   26MOL   C204 7254   1.361   5.906   6.354 -0.7225 -0.3924  0.0720
   26MOL   C205 7255   1.318   5.773   6.351  0.5176 -0.9016 -0.4114
   26MOL   H206 7256   1.589   5.620   6.213  2.1974  0.2724  0.1453
   26MOL   H207 7257   1.666   5.866   6.212 -0.6854  1.5060  0.3887
   26MOL   H208 7258   1.620   6.092   6.226  0.6414  1.1155  1.6256
   26MOL   H209 7259   1.419   6.139   6.446  1.1207 -0.2120  0.5860
   26MOL   H210 7260   1.292   5.986   6.378  0.6045  0.1340  2.2829
   26MOL   H211 7261   1.219   5.752   6.387  0.4643 -2.7570 -1.5766
   26MOL   C212 7262   1.531   6.317   6.385 -0.3108 -0.1113  0.0964
   26MOL   C213 7263   1.598   6.390   6.287 -0.3537  0.3809  0.0277
   26MOL   C214 7264   1.632   6.525   6.312  0.0182 -0.1941 -0.0972
   26MOL   C215 7265   1.586   6.592   6.429 -0.1087 -0.1065  0.4186
   26MOL   C216 7266   1.597   6.742   6.444  0.1478  0.4606  0.0063
   26MOL   C217 7267   1.631   6.831   6.348  0.3142  0.0784 -0.0038
   26MOL   C218 7268   1.515   6.520   6.526  0.3705  0.6703  0.2338
   26MOL   C219 7269   1.482   6.386   6.501  0.4249  0.2186  0.1787
   26MOL   H220 7270   1.633   6.336   6.200  0.7765  2.2809 -0.7355
   26MOL   H221 7271   1.690   6.573   6.234  0.2598 -2.0106 -1.0557
   26MOL   H222 7272   1.583   6.786   6.541  0.6460  1.8482 -0.5483
   26MOL   H223 7273   1.654   6.811   6.244  0.0425 -1.7727  0.2677
   26MOL   H224 7274   1.481   6.568   6.617  0.6423  2.2699 -0.5035
   26MOL   H225 7275   1.419   6.344   6.578  1.1242 -0.3961  0.4175
   26MOL   C226 7276   1.646   6.977   6.372 -0.0491  0.0391 -0.1900
   26MOL   C227 7277   1.647   7.036   6.503  0.4038 -0.5169  0.9379
   26MOL   C228 7278   1.624   7.172   6.521 -0.4000 -0.4258 -0.3623
   26MOL   C229 7279   1.612   7.258   6.411  0.0303  0.6811 -0.0206
   26MOL   C230 7280   1.589   7.399   6.434  0.0807  0.7246  0.0023
   26MOL   C231 7281   1.546   7.498   6.358 -0.4194  0.2640 -0.3587
   26MOL   C232 7282   1.614   7.206   6.277 -0.3578  0.8854  0.3995
   26MOL   C233 7283   1.630   7.065   6.265  0.2752 -0.4663 -0.1671
   26MOL   H234 7284   1.653   6.978   6.594  2.6676 -2.3739 -0.3320
   26MOL   H235 7285   1.628   7.208   6.623  0.3178 -2.6023  0.4057
   26MOL   H236 7286   1.620   7.438   6.530  0.3624  0.0450  0.1960
   26MOL   H237 7287   1.524   7.483   6.253 -1.2909 -0.0071 -0.1451
   26MOL   H238 7288   1.580   7.264   6.192  2.1271  1.2445 -0.3656
   26MOL   H239 7289   1.620   7.025   6.165 -1.1818  0.2826 -0.3347
   26MOL   C240 7290   1.534   7.640   6.398  0.9342  0.7714 -0.0647
   26MOL   C241 7291   1.599   7.737   6.319  0.7617 -0.5995 -0.1652
   26MOL   C242 7292   1.593   7.873   6.365  0.6250  0.0767 -0.0079
   26MOL   C243 7293   1.525   7.914   6.484 -0.2274 -0.1709  0.8316
   26MOL   C244 7294   1.514   8.058   6.530 -0.0188  0.3773 -0.5601
   26MOL   C245 7295   1.566   0.027   6.474  0.3163  0.1769 -0.2600
   26MOL   C246 7296   1.455   7.811   6.555 -0.4210  1.1411 -0.6686
   26MOL   C247 7297   1.461   7.679   6.510 -0.2537  0.5543 -0.5098
   26MOL   H248 7298   1.643   7.716   6.222 -0.8193 -0.5768 -0.9106
   26MOL   H249 7299   1.616   7.959   6.303  0.0942 -0.4426 -0.9329
   26MOL   H250 7300   1.460   8.066   6.623 -1.1982  2.9871 -1.4308
   26MOL   H251 7301   1.626   0.019   6.384  0.7782  0.1883  0.0443
   26MOL   H252 7302   1.391   7.818   6.642  2.5124  0.0247  1.6992
   26MOL   H253 7303   1.409   7.608   6.573  0.1580  2.1705  1.7458
   26MOL   C254 7304   1.538   0.167   6.525  0.1695 -0.7615  0.0506
   26MOL   C255 7305   1.618   0.276   6.488 -0.0511  0.1185 -0.3678
   26MOL   C256 7306   1.583   0.404   6.534  0.3778  0.2143 -0.1385
   26MOL   C257 7307   1.472   0.427   6.616  0.3136 -0.5836  0.0108
   26MOL   C258 7308   1.444   0.555   6.673  0.5294  0.1869  0.3234
   26MOL   C259 7309   1.422   0.584   6.803 -0.3999 -0.4790  0.5095
   26MOL   C260 7310   1.391   0.317   6.660  0.2650 -0.1009 -0.4381
   26MOL   C261 7311   1.437   0.189   6.622 -0.5794  0.5303 -0.6452
   26MOL   H262 7312   1.686   0.269   6.405  3.1097  0.4773  2.0749
   26MOL   H263 7313   1.649   0.485   6.504  0.1496  0.9681  1.3206
   26MOL   H264 7314   1.437   0.633   6.600 -2.0385  0.3023  0.6597
   26MOL   H265 7315   1.386   0.685   6.816  0.8018 -0.0705  0.7352
   26MOL   H266 7316   1.309   0.322   6.730  0.0338 -0.6095 -0.6717
   26MOL   H267 7317   1.380   0.110   6.669 -1.2798  0.7670 -1.0934
   26MOL   C268 7318   1.426   0.499   6.918 -0.1542 -0.1718  0.0838
   26MOL   C269 7319   1.336   0.536   7.028 -0.2050  0.2338  0.1880
   26MOL   C270 7320   1.334   0.458   7.150  0.4329  0.3154  0.0324
   26MOL   C271 7321   1.420   0.354   7.167  0.1383  0.3456  0.1919
   26MOL   C272 7322   1.419   0.273   7.289 -0.1995  0.1820  0.6800
   26MOL   C273 7323   1.464   0.146   7.293 -0.1346 -0.8338  0.0400
   26MOL   C274 7324   1.514   0.323   7.062 -0.1658 -0.4988  0.5124
   26MOL   C275 7325   1.514   0.391   6.935  0.4324  0.4535 -0.0712
   26MOL   H276 7326   1.280   0.627   7.009  2.2438  1.6647 -0.4935
   26MOL   H277 7327   1.271   0.502   7.225 -1.2341  0.0840 -1.1900
   26MOL   H278 7328   1.386   0.326   7.377  0.1906 -0.1103  1.0091
   26MOL   H279 7329   1.493   0.094   7.202 -0.5023 -0.8733 -0.0539
   26MOL   H280 7330   1.585   0.242   7.069  2.1242  1.1756 -1.9946
   26MOL   H281 7331   1.577   0.362   6.852  1.6405  1.1208  0.5967
   26MOL   H282 7332   1.469   0.092   7.386 -1.4448  1.0834  1.2528
   27MOL     C1 7333   0.959   0.729   2.028  0.5652  0.1999 -0.4045
   27MOL     C2 7334   1.067   0.821   2.035  0.9326  0.3341 -0.0255
   27MOL     C3 7335   1.188   0.796   1.971 -0.3223 -0.8001 -0.6095
   27MOL     C4 7336   1.206   0.673   1.909  0.0868  0.1329 -0.6656
   27MOL     C5 7337   1.331   0.644   1.834 -0.2350  0.7669  0.2422
   27MOL     C6 7338   1.441   0.721   1.811  0.2143 -0.1018 -0.2248
   27MOL     C7 7339   1.101   0.579   1.902 -0.3306  0.4869  0.0324
   27MOL     C8 7340   0.972   0.603   1.960 -0.0117  0.3436  0.0349
   27MOL     H9 7341   1.046   0.908   2.096 -1.1778 -1.1096  1.3688
   27MOL    H10 7342   1.268   0.867   1.985 -0.4191 -0.8394  0.1478
   27MOL    H11 7343   1.340   0.543   1.797  1.3587  0.2487  1.9486
   27MOL    H12 7344   1.446   0.817   1.860 -0.8353 -0.4219  0.5488
   27MOL    H13 7345   1.105   0.494   1.836 -2.7440 -0.4473  1.0302
   27MOL    H14 7346   0.891   0.533   1.948  1.2742 -1.1668 -0.0326
   27MOL    H15 7347   0.871   0.762   2.082  0.1715 -1.6100  0.0773
   27MOL    C16 7348   1.553   0.692   1.723 -0.7251  0.3133  0.6206
   27MOL    C17 7349   1.659   0.783   1.720 -0.0425  0.7203  0.9416
   27MOL    C18 7350   1.766   0.762   1.628 -0.7068 -0.2130  0.3192
   27MOL    C19 7351   1.761   0.656   1.532  0.4337 -0.6829  0.3053
   27MOL    C20 7352   1.874   0.618   1.441  0.3288  0.0632  0.0767
   27MOL    C21 7353   2.005   0.662   1.445 -0.1527 -0.4240 -0.1109
   27MOL    C22 7354   1.643   0.581   1.524 -0.5477  0.9801  0.4678
   27MOL    C23 7355   1.546   0.589   1.624 -0.9894 -0.4201  0.2394
   27MOL    H24 7356   1.663   0.868   1.787 -0.7493 -0.3597  2.3792
   27MOL    H25 7357   1.846   0.834   1.639  1.1396 -2.3199  1.1306
   27MOL    H26 7358   1.845   0.542   1.371 -1.2319  1.2009 -0.5261
   27MOL    H27 7359   2.031   0.738   1.516  1.1923 -0.4377 -0.5785
   27MOL    H28 7360   1.630   0.506   1.448 -0.4868  2.3028 -0.8871
   27MOL    H29 7361   1.464   0.518   1.621 -0.7829 -0.6815  0.6888
   27MOL    C30 7362   2.105   0.605   1.362  0.4090  0.8749 -0.5736
   27MOL    C31 7363   2.227   0.669   1.349 -0.0208  0.5506 -0.7693
   27MOL    C32 7364   2.334   0.618   1.266  0.5016 -0.0153  0.4810
   27MOL    C33 7365   2.304   0.506   1.192  0.1937  0.0061  0.4678
   27MOL    C34 7366   2.415   0.450   1.114 -0.1170 -0.1097 -0.7398
   27MOL    C35 7367   2.432   0.328   1.064 -0.3472 -0.3364 -0.4574
   27MOL    C36 7368   2.179   0.434   1.206  0.1249  0.2844 -0.1946
   27MOL    C37 7369   2.083   0.486   1.292  0.3884  0.7967 -0.4467
   27MOL    H38 7370   2.255   0.754   1.409 -2.0858  0.5794  0.1771
   27MOL    H39 7371   2.428   0.670   1.254 -1.0102  2.8534  0.5247
   27MOL    H40 7372   2.494   0.521   1.094  0.2229 -0.7039 -1.5376
   27MOL    H41 7373   2.353   0.258   1.082  0.6707 -1.4344 -0.2106
   27MOL    H42 7374   2.157   0.336   1.166  1.5706  0.7484 -2.1650
   27MOL    H43 7375   1.996   0.424   1.308  0.7643  0.2736 -0.3990
   27MOL    C44 7376   2.547   0.268   0.987 -0.1391 -0.6845 -0.1613
   27MOL    C45 7377   2.675   0.323   0.997 -0.5260  0.4894  0.2907
   27MOL    C46 7378   2.781   0.261   0.928  0.5178 -0.9265 -0.3857
   27MOL    C47 7379   2.758   0.153   0.844 -0.6323 -0.0144 -0.4603
   27MOL    C48 7380   2.872   0.090   0.784  0.1612  0.3501  0.0308
   27MOL    C49 7381   2.873   8.123   0.708  0.0960 -0.2555 -0.0094
   27MOL    C50 7382   2.623   0.107   0.826 -0.3755 -0.6371 -0.7877
   27MOL    C51 7383   2.516   0.164   0.896 -0.0321 -0.9157 -0.1863
   27MOL    H52 7384   2.706   0.399   1.068 -0.9879 -1.3435  2.5335
   27MOL    H53 7385   2.884   0.285   0.948  0.2589 -0.4629  0.4316
   27MOL    H54 7386   2.972   0.124   0.807  0.0347  0.0232  1.0544
   27MOL    H55 7387   2.776   8.081   0.683  0.7723 -1.2806 -0.9475
   27MOL    H56 7388   2.595   0.028   0.758  0.3914 -1.5013 -0.1115
   27MOL    H57 7389   2.414   0.134   0.881 -0.5244 -0.3203  1.7515
   27MOL    C58 7390   2.981   8.052   0.632 -0.2103  0.3002 -0.3767
   27MOL    C59 7391   3.114   8.110   0.637  0.9300 -0.2387 -0.0031
   27MOL    C60 7392   3.214   8.047   0.561  0.3474  0.8060 -0.3073
   27MOL    C61 7393   3.178   7.926   0.489  0.3954 -0.0160 -0.8411
   27MOL    C62 7394   3.293   7.848   0.424 -0.9367 -0.6492  0.1616
   27MOL    C63 7395   3.286   7.745   0.339 -0.9227  0.4328 -0.3914
   27MOL    C64 7396   3.051   7.874   0.485 -0.0514 -0.4429 -0.1700
   27MOL    C65 7397   2.956   7.943   0.555 -0.1763 -0.5390 -0.1120
   27MOL    H66 7398   3.142   0.055   0.691  0.2043 -0.6736  1.1134
   27MOL    H67 7399   3.314   8.089   0.566  0.7147  0.5103 -4.0751
   27MOL    H68 7400   3.393   7.883   0.445 -1.5165  0.7115  0.6856
   27MOL    H69 7401   3.190   7.698   0.319 -0.3336 -1.1329  0.4015
   27MOL    H70 7402   3.035   7.781   0.431  1.4042  0.0989 -1.5973
   27MOL    H71 7403   2.857   7.912   0.524 -0.2473 -0.2069 -0.2240
   27MOL    C72 7404   3.395   7.697   0.262  0.9686 -0.4391  0.5030
   27MOL    C73 7405   3.514   7.769   0.231 -0.0099  0.3465  0.9701
   27MOL    C74 7406   3.610   7.701   0.153  0.1879 -0.1634  0.0004
   27MOL    C75 7407   3.594   7.563   0.115  0.1708  0.4245 -0.5371
   27MOL    C76 7408   3.697   7.501   0.033 -0.1119  0.7092  0.0274
   27MOL    C77 7409   3.705   7.372   8.140  0.1238  0.6227  0.2844
   27MOL    C78 7410   3.475   7.494   0.156 -0.8770 -0.2812 -0.0508
   27MOL    C79 7411   3.374   7.567   0.223 -0.4871 -0.2216  0.5923
   27MOL    H80 7412   3.519   7.874   0.256 -0.7961  0.8019 -0.7585
   27MOL    H81 7413   3.704   7.744   0.119 -0.3457 -0.8770 -2.4659
   27MOL    H82 7414   3.776   7.567   0.002 -0.0240  0.8540  0.5601
   27MOL    H83 7415   3.627   7.304   0.025 -2.5357  4.1539  1.7652
   27MOL    H84 7416   3.452   7.396   0.117  0.0549 -0.4920 -0.0643
   27MOL    H85 7417   3.277   7.527   0.248 -0.3201 -0.5792  0.6627
   27MOL    C86 7418   3.810   7.307   8.055 -0.7330  0.5684  0.2717
   27MOL    C87 7419   3.900   7.384   7.982 -0.1032  0.6730  0.1081
   27MOL    C88 7420   4.012   7.329   7.914 -0.3761 -0.6586 -0.8937
   27MOL    C89 7421   4.029   7.191   7.903 -0.0035  1.2455  0.1085
   27MOL    C90 7422   4.150   7.133   7.843 -0.3470 -0.2987 -0.5316
   27MOL    C91 7423   4.175   7.004   7.821 -0.8522  0.2925  0.0787
   27MOL    C92 7424   3.931   7.109   7.957 -0.6552  0.2725 -0.0464
   27MOL    C93 7425   3.823   7.162   8.042 -0.7401 -0.2707  0.4571
   27MOL    H94 7426   3.893   7.491   7.992 -1.1229  0.6528 -0.3029
   27MOL    H95 7427   4.086   7.397   7.874 -1.1929  0.7808  0.0184
   27MOL    H96 7428   4.230   7.203   7.824 -1.1343  0.7697 -0.0266
   27MOL    H97 7429   4.093   6.935   7.833 -1.2591  0.5561 -1.0826
   27MOL    H98 7430   3.936   7.001   7.957  1.1624  0.3289  1.6823
   27MOL    H99 7431   3.771   7.088   8.102 -0.3965 -0.3319  0.6822
   27MOL   C100 7432   4.311   6.950   7.774 -0.3172 -0.1490  0.1134
   27MOL   C101 7433   4.315   6.816   7.729 -0.0971  0.2105 -0.5713
   27MOL   C102 7434   4.428   6.758   7.667 -0.2177 -0.1807  0.1701
   27MOL   C103 7435   4.540   6.837   7.649 -0.1120 -0.6104 -0.3524
   27MOL   C104 7436   4.648   6.795   7.563 -0.8819  0.9720 -0.1677
   27MOL   C105 7437   4.639   6.697   7.471  0.5950 -0.2471  0.0141
   27MOL   C106 7438   4.550   6.966   7.705  0.7448 -0.2139 -0.0729
   27MOL   C107 7439   4.432   7.023   7.757 -0.1308 -0.6370  0.1484
   27MOL   H108 7440   4.234   6.746   7.744 -0.8974  1.4522  1.0403
   27MOL   H109 7441   4.424   6.657   7.629  0.6752  0.2001 -0.9489
   27MOL   H110 7442   4.741   6.848   7.578  0.5260 -1.5481  0.3413
   27MOL   H111 7443   4.545   6.644   7.461  0.8984 -0.6238 -0.9175
   27MOL   H112 7444   4.641   7.023   7.704 -0.8185  2.3388  0.1771
   27MOL   H113 7445   4.426   7.126   7.788  1.0819 -0.6989  0.6044
   27MOL   C114 7446   4.753   6.667   7.378  0.0175 -0.0840  0.3495
   27MOL   C115 7447   4.862   6.759   7.354  0.0847  0.4388  0.1562
   27MOL   C116 7448   4.961   6.730   7.263 -1.4777 -0.1742 -0.0394
   27MOL   C117 7449   4.959   6.607   7.192  0.9699  0.0360  1.0066
   27MOL   C118 7450   5.077   6.575   7.117  0.7686  0.3165 -0.7365
   27MOL   C119 7451   5.086   6.505   7.003 -0.2511 -0.2780  0.0987
   27MOL   C120 7452   4.851   6.521   7.199 -0.3339 -0.1542  0.1708
   27MOL   C121 7453   4.749   6.549   7.298  0.5138 -0.4132  0.4078
   27MOL   H122 7454   4.872   6.850   7.411  0.3573  0.7945 -0.4615
   27MOL   H123 7455   5.055   6.783   7.267 -0.7887 -1.2013 -1.7036
   27MOL   H124 7456   5.169   6.614   7.159  0.0328 -0.4653  1.6637
   27MOL   H125 7457   4.997   6.453   6.971  0.5866  0.5137 -3.8650
   27MOL   H126 7458   4.864   6.428   7.145  0.5883 -0.2979  0.6364
   27MOL   H127 7459   4.681   6.466   7.314 -1.0246  0.3548 -1.9930
   27MOL   C128 7460   5.206   6.494   6.913  0.2939 -0.4174  0.3423
   27MOL   C129 7461   5.324   6.567   6.924 -0.8540 -0.5548 -0.2291
   27MOL   C130 7462   5.431   6.560   6.834  0.5607 -0.6752 -0.0919
   27MOL   C131 7463   5.407   6.482   6.719 -0.1478 -0.2060  0.7684
   27MOL   C132 7464   5.517   6.465   6.622  0.2569 -0.1261 -0.5493
   27MOL   C133 7465   5.643   6.492   6.639 -0.0284 -0.0219 -0.1958
   27MOL   C134 7466   5.289   6.404   6.709  0.3004  0.7186 -0.8008
   27MOL   C135 7467   5.188   6.409   6.808 -0.1841  0.7140 -0.0558
   27MOL   H136 7468   5.325   6.639   7.004  1.3690 -2.8222  1.8878
   27MOL   H137 7469   5.511   6.632   6.837 -0.2686  0.3793 -2.7427
   27MOL   H138 7470   5.483   6.424   6.528  0.0938  1.0691 -1.0145
   27MOL   H139 7471   5.673   6.537   6.732 -0.7764 -0.2460  0.1571
   27MOL   H140 7472   5.273   6.330   6.632  0.3612 -1.7600  1.5053
   27MOL   H141 7473   5.102   6.347   6.793  0.3737  0.5110 -2.7162
   27MOL   C142 7474   5.755   6.465   6.551 -0.0202 -0.4561  0.1859
   27MOL   C143 7475   5.859   6.396   6.615 -0.0943 -0.1762 -0.3603
   27MOL   C144 7476   5.976   6.372   6.537  0.8745 -0.2216 -0.0731
   27MOL   C145 7477   5.991   6.411   6.404 -0.2892  0.4076 -0.3035
   27MOL   C146 7478   6.129   6.404   6.346 -0.7703  0.5335  0.5485
   27MOL   C147 7479   6.168   6.432   6.224  0.8666 -0.7434  1.3547
   27MOL   C148 7480   5.882   6.466   6.335  0.0048  0.9137 -0.6772
   27MOL   C149 7481   5.762   6.485   6.410  0.4144  0.3302  0.5668
   27MOL   H150 7482   5.853   6.379   6.722 -0.5644  0.3060 -0.3108
   27MOL   H151 7483   6.050   6.317   6.594  2.2020  0.3879 -1.1941
   27MOL   H152 7484   6.209   6.372   6.411 -0.2398 -0.2039 -0.4612
   27MOL   H153 7485   6.081   6.458   6.164 -1.3030 -1.7153  3.9622
   27MOL   H154 7486   5.878   6.497   6.232  3.0090  0.5915 -0.9272
   27MOL   H155 7487   5.674   6.523   6.360  1.0394 -0.4848 -1.1675
   27MOL   C156 7488   6.302   6.431   6.161 -0.4306  0.2939 -0.0186
   27MOL   C157 7489   6.327   6.465   6.021 -0.1736  0.0880  0.3638
   27MOL   C158 7490   6.458   6.467   5.968 -0.8081 -0.2570 -0.1512
   27MOL   C159 7491   6.575   6.455   6.049 -0.2167  0.3987 -0.0587
   27MOL   C160 7492   6.703   6.460   5.993  0.0715 -0.6016 -1.0516
   27MOL   C161 7493   6.824   6.478   6.063 -0.3113 -0.5325  0.2000
   27MOL   C162 7494   6.555   6.439   6.190  0.2007 -0.5174 -0.6498
   27MOL   C163 7495   6.423   6.419   6.245 -0.0710 -0.4092  0.1312
   27MOL   H164 7496   6.237   6.478   5.964 -0.7783 -0.6945  1.1241
   27MOL   H165 7497   6.472   6.487   5.863 -1.1324 -1.5536 -0.4552
   27MOL   H166 7498   6.709   6.460   5.885 -2.2864  1.0798 -1.2062
   27MOL   H167 7499   6.808   6.485   6.169 -1.9862 -0.0674 -0.0599
   27MOL   H168 7500   6.639   6.428   6.258  0.2721 -2.9680 -1.1042
   27MOL   H169 7501   6.404   6.381   6.345 -0.1133 -3.9945 -1.1685
   27MOL   C170 7502   6.957   6.488   6.010 -0.2207 -0.6211 -0.2222
   27MOL   C171 7503   6.983   6.476   5.874  0.7964 -0.3726 -0.3275
   27MOL   C172 7504   7.112   6.511   5.822  0.0873  0.3879  0.4158
   27MOL   C173 7505   7.226   6.519   5.912 -0.0290  0.1255 -0.6378
   27MOL   C174 7506   7.362   6.520   5.847  0.6500  0.1302 -0.6764
   27MOL   C175 7507   7.472   6.480   5.909 -0.1151  0.2273  0.3443
   27MOL   C176 7508   7.199   6.521   6.048  0.4515  0.3649  0.0298
   27MOL   C177 7509   7.066   6.510   6.090  0.5178 -0.0320 -0.2783
   27MOL   H178 7510   6.904   6.459   5.803  0.1610  0.8894  0.0499
   27MOL   H179 7511   7.137   6.492   5.719  0.2264 -1.9543  0.8423
   27MOL   H180 7512   7.371   6.544   5.742  2.0238  1.2516 -0.3215
   27MOL   H181 7513   7.476   6.445   6.011 -0.1070 -0.3552  0.1463
   27MOL   H182 7514   7.282   6.504   6.116  2.8784  0.5003 -2.7892
   27MOL   H183 7515   7.052   6.518   6.197 -3.4509 -0.4724 -0.6795
   27MOL   C184 7516   7.605   6.479   5.853 -0.5086  0.2063 -0.1924
   27MOL   C185 7517   7.653   6.565   5.750  0.1940 -0.6273 -0.5967
   27MOL   C186 7518   7.789   6.562   5.710  0.2246 -0.7407 -0.1016
   27MOL   C187 7519   7.884   6.468   5.766 -0.0980 -1.0293  0.8441
   27MOL   C188 7520   8.024   6.472   5.726  0.1726 -0.2655 -0.3647
   27MOL   C189 7521   8.085   6.578   5.676  0.2683  0.2123 -0.1861
   27MOL   C190 7522   7.834   6.391   5.870  0.1042  0.4502  0.0742
   27MOL   C191 7523   7.696   6.391   5.910 -0.1454  0.2292 -0.1350
   27MOL   H192 7524   7.584   6.638   5.711 -1.2450 -2.2384 -1.1382
   27MOL   H193 7525   7.814   6.632   5.631 -0.5264 -0.7559 -0.3509
   27MOL   H194 7526   8.090   6.388   5.739  0.2477  0.3164  3.6573
   27MOL   H195 7527   8.026   6.669   5.666 -0.7367 -0.6721 -2.8084
   27MOL   H196 7528   7.907   6.322   5.909  0.7994  0.4985 -1.1237
   27MOL   H197 7529   7.671   6.321   5.988  0.0619 -0.5024 -0.7189
   27MOL   C198 7530   0.081   6.601   5.653  0.4357  0.4007 -0.2816
   27MOL   C199 7531   0.186   6.503   5.662  0.1326 -0.3464  0.0137
   27MOL   C200 7532   0.320   6.537   5.649 -0.0669  0.4056  0.4720
   27MOL   C201 7533   0.352   6.658   5.581  0.6253 -0.0528  0.1483
   27MOL   C202 7534   0.486   6.686   5.540 -0.4675  0.2021  0.0975
   27MOL   C203 7535   0.537   6.788   5.468  0.1807  0.0695  0.2169
   27MOL   C204 7536   0.248   6.752   5.562  0.5050  0.2443 -0.1963
   27MOL   C205 7537   0.118   6.731   5.608  0.1499  1.0581 -0.4974
   27MOL   H206 7538   0.156   6.408   5.705 -0.9267 -0.2850 -0.5712
   27MOL   H207 7539   0.393   6.461   5.671 -0.7518 -0.4485 -0.1431
   27MOL   H208 7540   0.560   6.619   5.581 -1.7792 -0.7723  0.9231
   27MOL   H209 7541   0.462   6.858   5.433 -0.0495 -0.2342  0.1045
   27MOL   H210 7542   0.277   6.849   5.524 -2.2325  0.7928 -0.9946
   27MOL   H211 7543   0.045   6.810   5.593 -1.3926 -0.5121 -1.4434
   27MOL   C212 7544   0.685   6.811   5.443  0.5528  0.0951 -0.4440
   27MOL   C213 7545   0.781   6.703   5.450  0.5551 -0.3983  0.5644
   27MOL   C214 7546   0.913   6.723   5.411 -0.0660  0.6572  0.6092
   27MOL   C215 7547   0.962   6.847   5.355 -0.5102  0.3040  0.0358
   27MOL   C216 7548   1.101   6.847   5.313  0.0299  0.0502 -0.4544
   27MOL   C217 7549   1.162   6.954   5.258  0.5428 -0.4095 -0.0244
   27MOL   C218 7550   0.871   6.956   5.350  0.4748 -0.3542  0.1946
   27MOL   C219 7551   0.737   6.937   5.397 -0.8690 -0.2581  0.1233
   27MOL   H220 7552   0.763   6.600   5.476 -1.5478  0.0342  0.9409
   27MOL   H221 7553   0.990   6.649   5.431 -1.2513  0.1070  3.3775
   27MOL   H222 7554   1.156   6.756   5.331  1.3703  0.6077 -1.6445
   27MOL   H223 7555   1.104   7.043   5.243  0.3469 -0.5234  0.0534
   27MOL   H224 7556   0.905   7.055   5.326 -1.3749 -0.1213 -1.5715
   27MOL   H225 7557   0.661   7.014   5.403 -0.1327  0.6031 -1.3603
   27MOL   C226 7558   1.294   6.957   5.200  0.2271 -0.1083 -0.5617
   27MOL   C227 7559   1.338   7.076   5.133  0.2934 -0.6455  0.2848
   27MOL   C228 7560   1.465   7.080   5.068  0.0050  0.0130  0.0740
   27MOL   C229 7561   1.560   6.975   5.091  0.2224  0.6749  0.7854
   27MOL   C230 7562   1.695   6.992   5.046 -0.6955  0.5783 -0.5480
   27MOL   C231 7563   1.785   6.893   5.034  0.3139 -0.0083  0.3539
   27MOL   C232 7564   1.515   6.857   5.160  0.1053 -0.8152 -0.8094
   27MOL   C233 7565   1.386   6.848   5.221  0.8739 -0.0260  0.4504
   27MOL   H234 7566   1.269   7.158   5.121 -0.7600 -1.0399  3.1898
   27MOL   H235 7567   1.491   7.166   5.008  0.9039  0.0556  0.5259
   27MOL   H236 7568   1.733   7.092   5.031  1.2558  0.5452  3.4687
   27MOL   H237 7569   1.753   6.790   5.043 -0.8457  0.1372 -2.0608
   27MOL   H238 7570   1.576   6.771   5.185  1.0502  0.4189  1.1485
   27MOL   H239 7571   1.362   6.765   5.285 -1.9000 -0.1509 -0.6529
   27MOL   C240 7572   1.924   6.907   5.011 -0.3490 -0.0255  0.7056
   27MOL   C241 7573   2.011   6.795   5.038 -0.2824 -0.6220 -1.2589
   27MOL   C242 7574   2.152   6.810   5.042 -0.4605 -0.3043  0.8156
   27MOL   C243 7575   2.207   6.929   4.999 -0.2045 -0.1343 -0.9347
   27MOL   C244 7576   2.357   6.950   4.995 -0.1906 -0.2853  0.7863
   27MOL   C245 7577   2.453   6.873   5.046 -0.0088 -0.3185  0.2786
   27MOL   C246 7578   2.128   7.044   4.979 -0.0306  0.8794  0.2030
   27MOL   C247 7579   1.987   7.036   4.997  0.1114  0.5142  0.1653
   27MOL   H248 7580   1.963   6.705   5.073  1.0057 -0.0101  2.3184
   27MOL   H249 7581   2.209   6.722   5.069  0.2828 -0.4579 -1.1649
   27MOL   H250 7582   2.387   7.035   4.936 -0.6914 -1.0677 -0.6180
   27MOL   H251 7583   2.410   6.785   5.091  1.0621 -1.6695 -1.2866
   27MOL   H252 7584   2.182   7.130   4.941  1.0506 -1.0174 -2.7065
   27MOL   H253 7585   1.925   7.123   4.982  0.4120  0.7922  0.5550
   27MOL   C254 7586   2.602   6.886   5.040 -0.0399  0.3591 -1.3060
   27MOL   C255 7587   2.663   6.988   4.966  0.4352 -0.0483  0.1819
   27MOL   C256 7588   2.803   7.009   4.986  0.4613  0.0744  0.4066
   27MOL   C257 7589   2.878   6.943   5.090 -0.2904 -0.0657 -0.0351
   27MOL   C258 7590   3.016   6.973   5.111  0.3275 -0.2671  0.0224
   27MOL   C259 7591   3.121   6.894   5.132 -0.3007  0.0527  0.4164
   27MOL   C260 7592   2.812   6.834   5.156  0.1439 -0.0457  0.4043
   27MOL   C261 7593   2.672   6.810   5.134 -0.4252 -0.9151  0.5140
   27MOL   H262 7594   2.596   7.047   4.905 -2.6556 -1.9161  1.6583
   27MOL   H263 7595   2.844   7.082   4.919 -0.0106 -1.0090 -1.1042
   27MOL   H264 7596   3.035   7.079   5.115 -0.2820 -0.1567  0.0687
   27MOL   H265 7597   3.216   6.940   5.155 -0.0342  0.7215 -1.8913
   27MOL   H266 7598   2.862   6.771   5.228  0.5375 -0.2493 -0.0423
   27MOL   H267 7599   2.626   6.729   5.189  3.2781 -2.1587  1.9155
   27MOL   C268 7600   3.136   6.749   5.135 -0.2580 -0.1401 -0.1850
   27MOL   C269 7601   3.245   6.699   5.207  0.5708  0.4247 -0.2539
   27MOL   C270 7602   3.271   6.561   5.211  0.6532 -0.1363 -0.8221
   27MOL   C271 7603   3.190   6.463   5.151  0.5152 -0.7855 -0.0859
   27MOL   C272 7604   3.223   6.313   5.149  0.5994  0.6500  0.1486
   27MOL   C273 7605   3.306   6.245   5.229  0.9566 -0.1021 -0.0675
   27MOL   C274 7606   3.073   6.510   5.081  0.4804  0.0664  0.6032
   27MOL   C275 7607   3.050   6.655   5.075  0.3104  0.5784  0.2626
   27MOL   H276 7608   3.316   6.759   5.262 -1.3881  0.4478  2.2884
   27MOL   H277 7609   3.366   6.537   5.255  0.3020  0.0297  0.0192
   27MOL   H278 7610   3.166   6.247   5.085  1.4698 -0.1477  0.1869
   27MOL   H279 7611   3.361   6.297   5.306 -0.0761 -0.6214  1.0333
   27MOL   H280 7612   3.010   6.436   5.034  1.3821 -1.7248  2.1807
   27MOL   H281 7613   2.970   6.693   5.013 -0.0328  0.9448  0.9333
   27MOL   H282 7614   3.310   6.137   5.219  1.2390  0.0245 -1.4164
   28MOL     C1 7615   4.941   7.813   0.784 -0.1499 -0.3213 -0.2277
   28MOL     C2 7616   5.015   7.752   0.680  0.0853 -0.8214 -0.3161
   28MOL     C3 7617   5.150   7.724   0.699  0.1182 -0.2922 -0.7355
   28MOL     C4 7618   5.214   7.748   0.824 -0.3646 -0.1587  0.7878
   28MOL     C5 7619   5.355   7.709   0.837  0.2053 -0.3450 -0.4370
   28MOL     C6 7620   5.435   7.731   0.942 -0.5212  0.1198  0.9132
   28MOL     C7 7621   5.142   7.806   0.929 -0.3913  0.1383  0.0000
   28MOL     C8 7622   5.008   7.837   0.903  0.1610  0.4194 -0.1313
   28MOL     H9 7623   4.970   7.735   0.584  0.2077  0.4689 -0.6136
   28MOL    H10 7624   5.208   7.679   0.620  1.2480  1.1580 -0.7480
   28MOL    H11 7625   5.390   7.655   0.750  0.3747 -1.7426  0.4746
   28MOL    H12 7626   5.410   7.784   1.032 -0.8907  0.0714  0.8407
   28MOL    H13 7627   5.182   7.826   1.027  1.5169 -0.6455 -0.6043
   28MOL    H14 7628   4.954   7.876   0.988  2.1584  1.2287  0.7950
   28MOL    H15 7629   4.836   7.831   0.770 -0.2266 -1.2349 -0.8895
   28MOL    C16 7630   5.570   7.673   0.948 -0.2976 -0.1736 -0.0494
   28MOL    C17 7631   5.650   7.724   1.053  0.4197 -0.0928  0.4059
   28MOL    C18 7632   5.781   7.679   1.067 -0.6881  0.2178  0.1211
   28MOL    C19 7633   5.842   7.584   0.982  0.0142 -0.0487  0.0495
   28MOL    C20 7634   5.992   7.552   0.980  0.4372 -0.8232  0.4176
   28MOL    C21 7635   6.082   7.592   1.067 -0.8841  1.5194  0.5436
   28MOL    C22 7636   5.762   7.527   0.882 -0.4212 -0.1942  0.3990
   28MOL    C23 7637   5.628   7.572   0.856 -0.0875  0.1446 -0.5572
   28MOL    H24 7638   5.616   7.801   1.121 -0.3511  3.3279 -3.5763
   28MOL    H25 7639   5.851   7.723   1.137  1.8869 -1.3715 -1.3748
   28MOL    H26 7640   6.023   7.484   0.902 -0.7787 -0.2536 -0.5812
   28MOL    H27 7641   6.053   7.666   1.141  2.4121  3.3788  0.0767
   28MOL    H28 7642   5.798   7.450   0.815 -1.5033 -0.9991  0.7270
   28MOL    H29 7643   5.570   7.517   0.784 -1.4115 -1.1446  1.4421
   28MOL    C30 7644   6.216   7.547   1.081  0.5469 -0.1060  0.0143
   28MOL    C31 7645   6.287   7.594   1.196  0.4192  0.3030 -0.2741
   28MOL    C32 7646   6.423   7.552   1.213 -0.2441  0.5794 -0.0524
   28MOL    C33 7647   6.485   7.468   1.125 -0.3510  0.3914  0.8296
   28MOL    C34 7648   6.625   7.436   1.131  0.3246 -0.3682  0.0948
   28MOL    C35 7649   6.696   7.463   1.236 -0.2384  0.0181 -0.0205
   28MOL    C36 7650   6.409   7.408   1.021  0.4189 -0.4799  0.1120
   28MOL    C37 7651   6.274   7.447   1.003 -0.1557 -0.3293 -0.1734
   28MOL    H38 7652   6.243   7.655   1.273 -2.1897  0.0672 -1.5246
   28MOL    H39 7653   6.471   7.591   1.301 -0.4358  0.6905  0.0035
   28MOL    H40 7654   6.671   7.395   1.042 -0.8048  2.3207 -1.8073
   28MOL    H41 7655   6.651   7.507   1.324 -2.1826 -0.5646 -0.7076
   28MOL    H42 7656   6.456   7.336   0.955  0.0826  0.4995 -1.2112
   28MOL    H43 7657   6.222   7.401   0.920 -1.3873  1.3945 -0.3947
   28MOL    C44 7658   6.836   7.421   1.259  0.3820  0.5948  0.9910
   28MOL    C45 7659   6.910   7.480   1.362 -0.6964 -0.1280  0.0122
   28MOL    C46 7660   7.041   7.434   1.382  0.3226 -0.5557 -0.3383
   28MOL    C47 7661   7.104   7.345   1.295 -0.4408  0.1309 -0.1392
   28MOL    C48 7662   7.244   7.299   1.305  0.1721  0.0626  0.3280
   28MOL    C49 7663   7.326   7.340   1.408 -0.1783  0.3743  0.0280
   28MOL    C50 7664   7.031   7.292   1.188 -0.4431 -0.1463 -0.3744
   28MOL    C51 7665   6.896   7.334   1.165  0.1247  0.4270 -0.8551
   28MOL    H52 7666   6.855   7.545   1.429  0.7365  3.5287 -2.2150
   28MOL    H53 7667   7.092   7.469   1.470 -2.1655  1.0991  0.5030
   28MOL    H54 7668   7.271   7.226   1.231  1.9256 -0.1571  1.1590
   28MOL    H55 7669   7.290   7.413   1.479  1.4011  1.2271 -0.0289
   28MOL    H56 7670   7.067   7.213   1.124  1.5605 -0.1863  0.7885
   28MOL    H57 7671   6.843   7.293   1.080 -0.5484  1.4940 -0.9594
   28MOL    C58 7672   7.462   7.292   1.433  0.1640  0.3406  0.6344
   28MOL    C59 7673   7.542   7.356   1.530 -0.9302  0.0930  0.3233
   28MOL    C60 7674   7.669   7.307   1.567  0.7651  0.1018  0.3051
   28MOL    C61 7675   7.710   7.188   1.504 -0.4330 -0.3537  0.1284
   28MOL    C62 7676   7.845   7.136   1.533 -0.2609  0.4750  0.4222
   28MOL    C63 7677   7.940   7.180   1.614  0.8312 -0.6107 -0.3215
   28MOL    C64 7678   7.634   7.127   1.402 -0.0390  0.2817 -0.4000
   28MOL    C65 7679   7.510   7.177   1.363  0.4048 -0.1279 -0.5015
   28MOL    H66 7680   7.502   7.443   1.580  2.2950  0.5360  2.2549
   28MOL    H67 7681   7.741   7.362   1.625  0.3408 -0.2745  1.2034
   28MOL    H68 7682   7.864   7.037   1.492 -1.4148  0.4890 -0.1814
   28MOL    H69 7683   7.929   7.276   1.660 -2.9023 -0.4834 -1.3818
   28MOL    H70 7684   7.672   7.036   1.358  0.5918  0.1719  0.3802
   28MOL    H71 7685   7.452   7.122   1.290  1.4755 -0.6466 -0.9711
   28MOL    C72 7686   8.067   7.118   1.652  0.6110  0.6141 -0.1897
   28MOL    C73 7687   0.003   7.179   1.750  0.3151 -0.5202 -1.3755
   28MOL    C74 7688   0.124   7.115   1.794 -0.6595  0.7526  0.3671
   28MOL    C75 7689   0.164   6.994   1.729 -0.0001 -0.0718  0.0216
   28MOL    C76 7690   0.293   6.931   1.766  0.1952  0.1564 -0.4498
   28MOL    C77 7691   0.405   6.983   1.816 -0.4179  0.4762 -0.3868
   28MOL    C78 7692   0.084   6.936   1.631  0.0015  0.4698 -0.7214
   28MOL    C79 7693   8.113   7.002   1.580 -0.1180  0.4395  0.5367
   28MOL    H80 7694   8.114   7.270   1.798  1.4064 -0.2525 -1.1142
   28MOL    H81 7695   0.185   7.159   1.872  1.9786 -0.8845 -0.7233
   28MOL    H82 7696   0.310   6.828   1.738  0.5204 -0.3632  1.5677
   28MOL    H83 7697   0.408   7.083   1.856  1.8658 -0.1014  0.9656
   28MOL    H84 7698   0.116   6.843   1.585  0.6656  1.5521 -2.5015
   28MOL    H85 7699   8.064   6.960   1.494 -3.0009  0.7390  1.9528
   28MOL    C86 7700   0.528   6.900   1.816 -0.2985 -0.3717 -0.8114
   28MOL    C87 7701   0.548   6.781   1.742 -0.3092  0.8553  0.0646
   28MOL    C88 7702   0.669   6.708   1.754  0.4223 -0.4426 -0.0175
   28MOL    C89 7703   0.771   6.753   1.832 -0.1312  0.2304 -0.2683
   28MOL    C90 7704   0.896   6.680   1.833  0.1050  0.0121  0.7467
   28MOL    C91 7705   0.995   6.710   1.921  0.2317 -0.5483 -0.0339
   28MOL    C92 7706   0.748   6.867   1.915  0.2066  0.0087 -0.0902
   28MOL    C93 7707   0.628   6.934   1.910 -0.8832 -0.1722 -0.1781
   28MOL    H94 7708   0.489   6.746   1.659 -0.9681  1.3159  0.3313
   28MOL    H95 7709   0.692   6.618   1.698  0.6586 -1.2915  1.4334
   28MOL    H96 7710   0.908   6.604   1.758  0.1665  1.4161 -0.6805
   28MOL    H97 7711   0.985   6.800   1.981  3.2132 -0.2512  0.0790
   28MOL    H98 7712   0.817   6.886   1.996 -1.2358 -0.2538  1.2387
   28MOL    H99 7713   0.601   7.017   1.973  0.5272 -1.2038  1.8439
   28MOL   C100 7714   1.122   6.636   1.945 -0.2254  0.0988 -0.3027
   28MOL   C101 7715   1.202   6.679   2.044 -0.1759 -0.7680  0.2796
   28MOL   C102 7716   1.328   6.619   2.066  0.1504 -0.4275  0.1502
   28MOL   C103 7717   1.374   6.512   1.986  0.4403  0.4701 -0.4408
   28MOL   C104 7718   1.497   6.437   2.005 -0.2895 -0.1702 -0.0316
   28MOL   C105 7719   1.602   6.463   2.086  0.2557 -0.7813  0.8753
   28MOL   C106 7720   1.284   6.463   1.889 -0.1798 -0.5284 -0.0854
   28MOL   C107 7721   1.159   6.522   1.867  0.7052  0.1299  0.7503
   28MOL   H108 7722   1.164   6.765   2.098 -0.7201 -0.1685 -1.0359
   28MOL   H109 7723   1.394   6.657   2.142 -0.0884 -0.8799  0.5836
   28MOL   H110 7724   1.494   6.345   1.948  3.3886 -0.7747  0.6350
   28MOL   H111 7725   1.589   6.560   2.131  0.3708 -0.1287 -0.4685
   28MOL   H112 7726   1.308   6.375   1.832  1.2212  0.1188 -0.5044
   28MOL   H113 7727   1.094   6.492   1.786  0.7054  0.6219  0.5646
   28MOL   C114 7728   1.727   6.392   2.115  0.0387 -0.1095  0.8752
   28MOL   C115 7729   1.811   6.429   2.217 -0.1262 -0.4915 -0.0246
   28MOL   C116 7730   1.921   6.347   2.252  0.0844  0.3116 -0.4262
   28MOL   C117 7731   1.954   6.233   2.174  0.4744  0.4214 -0.5792
   28MOL   C118 7732   2.078   6.159   2.197  0.2072 -1.2577 -0.0568
   28MOL   C119 7733   2.170   6.194   2.293  0.5406  0.1472  0.5940
   28MOL   C120 7734   1.868   6.196   2.066  0.3096  0.0185 -0.8402
   28MOL   C121 7735   1.754   6.276   2.043 -0.5246 -0.4946  0.1080
   28MOL   H122 7736   1.801   6.525   2.266 -3.0351  0.9868 -3.2724
   28MOL   H123 7737   1.984   6.382   2.332  1.8111  0.3443 -1.7590
   28MOL   H124 7738   2.093   6.082   2.122  1.7462  0.4818 -1.6269
   28MOL   H125 7739   2.147   6.264   2.372  1.9554  0.1823  0.9824
   28MOL   H126 7740   1.886   6.107   2.006  2.0765 -0.0331 -0.2582
   28MOL   H127 7741   1.690   6.253   1.959 -0.2804 -0.7083 -0.0194
   28MOL   C128 7742   2.294   6.121   2.306  0.1633 -1.0492 -0.4715
   28MOL   C129 7743   2.390   6.182   2.389 -0.0135 -0.2818  0.4037
   28MOL   C130 7744   2.516   6.124   2.403 -0.2773 -0.0184  0.4141
   28MOL   C131 7745   2.549   6.000   2.336 -0.5703  0.1880 -0.0762
   28MOL   C132 7746   2.680   5.930   2.358  0.2387 -0.0861  0.0659
   28MOL   C133 7747   2.784   5.979   2.434 -0.0551  0.0174 -0.0445
   28MOL   C134 7748   2.452   5.944   2.250 -0.0504 -0.4471  0.0662
   28MOL   C135 7749   2.323   6.006   2.232 -0.4394  0.0446 -0.3679
   28MOL   H136 7750   2.357   6.271   2.440 -0.8030 -0.7715  0.7459
   28MOL   H137 7751   2.583   6.179   2.468  0.6195  0.2701 -0.7507
   28MOL   H138 7752   2.694   5.832   2.314  1.1068 -1.2237  2.8056
   28MOL   H139 7753   2.775   6.073   2.485  1.5196  0.4380 -0.5021
   28MOL   H140 7754   2.484   5.866   2.183 -1.9971 -0.4103 -0.9590
   28MOL   H141 7755   2.253   5.950   2.172  0.7407 -0.9537 -0.8430
   28MOL   C142 7756   2.914   5.915   2.465 -0.0816  0.0769  0.0617
   28MOL   C143 7757   2.958   5.802   2.394  0.5677 -0.2402  0.0593
   28MOL   C144 7758   3.081   5.746   2.416 -0.5471 -0.2975 -0.0704
   28MOL   C145 7759   3.169   5.794   2.510 -0.5562  0.4435 -0.6775
   28MOL   C146 7760   3.301   5.736   2.536 -0.2475 -0.2608 -0.5223
   28MOL   C147 7761   3.353   5.655   2.444 -0.6873 -0.8064  0.0493
   28MOL   C148 7762   3.131   5.913   2.575  0.3999 -0.7783 -0.1973
   28MOL   C149 7763   3.002   5.973   2.554  0.0906 -0.2908 -0.4092
   28MOL   H150 7764   2.894   5.751   2.323 -0.0002 -2.8047  2.3474
   28MOL   H151 7765   3.105   5.668   2.345 -1.5012  0.7161 -1.5340
   28MOL   H152 7766   3.346   5.765   2.630 -0.6633 -0.4475 -0.2681
   28MOL   H153 7767   3.312   5.648   2.344  1.7262  1.3626 -1.1751
   28MOL   H154 7768   3.196   5.956   2.651 -0.1865 -2.5052  1.2999
   28MOL   H155 7769   2.967   6.067   2.594  1.8390  0.4347 -0.5402
   28MOL   C156 7770   3.476   5.578   2.460  0.4725 -0.5157  1.3243
   28MOL   C157 7771   3.507   5.496   2.355 -0.0689  0.3435 -0.4061
   28MOL   C158 7772   3.627   5.426   2.358  0.0728 -0.8747  0.1458
   28MOL   C159 7773   3.717   5.426   2.467 -0.0127  0.1079  0.6504
   28MOL   C160 7774   3.849   5.367   2.451 -0.2284 -0.3859  0.0611
   28MOL   C161 7775   3.911   5.337   2.332 -0.5092 -0.9197  0.5953
   28MOL   C162 7776   3.679   5.497   2.580 -0.0959  0.0657 -0.1224
   28MOL   C163 7777   3.562   5.580   2.576 -0.4796  0.4729  0.1676
   28MOL   H164 7778   3.442   5.484   2.270 -2.6835  3.3161  1.0788
   28MOL   H165 7779   3.646   5.370   2.268  0.6064 -0.1191 -0.2156
   28MOL   H166 7780   3.900   5.331   2.539  0.1836 -0.2073 -0.1030
   28MOL   H167 7781   3.850   5.364   2.248 -1.3512  1.3632  1.8868
   28MOL   H168 7782   3.742   5.503   2.667  0.4070 -1.4332 -0.3798
   28MOL   H169 7783   3.541   5.642   2.662 -2.6319  0.1003 -0.0614
   28MOL   C170 7784   4.043   5.284   2.301  0.4097 -0.0363  0.4076
   28MOL   C171 7785   4.087   5.300   2.168  0.5070 -0.9365 -0.0373
   28MOL   C172 7786   4.211   5.246   2.135  1.1561  0.4235  0.4763
   28MOL   C173 7787   4.292   5.174   2.224  0.2992  0.0173 -0.6907
   28MOL   C174 7788   4.423   5.109   2.184  0.5203  0.5991 -0.5333
   28MOL   C175 7789   4.458   5.105   2.055 -0.3492 -0.6201 -0.5179
   28MOL   C176 7790   4.255   5.167   2.356  0.1857 -0.7056 -0.0746
   28MOL   C177 7791   4.126   5.222   2.399  0.7226  0.2040 -0.2343
   28MOL   H178 7792   4.019   5.359   2.110 -0.0320  0.3321  1.8488
   28MOL   H179 7793   4.245   5.260   2.034 -0.6767 -1.2701 -0.4075
   28MOL   H180 7794   4.485   5.066   2.262 -1.0189  0.3611  0.5844
   28MOL   H181 7795   4.392   5.134   1.974 -1.7419  0.3789  0.9402
   28MOL   H182 7796   4.326   5.125   2.426  1.6337  1.0432 -0.4599
   28MOL   H183 7797   4.099   5.214   2.503 -1.7544 -0.8352 -0.9267
   28MOL   C184 7798   4.592   5.057   2.011 -0.3870  0.0766  0.6283
   28MOL   C185 7799   4.617   5.055   1.872  0.4343 -0.4481  0.3915
   28MOL   C186 7800   4.744   5.016   1.827  0.9781  0.1210 -0.5957
   28MOL   C187 7801   4.852   4.990   1.915  0.8522 -0.0906 -0.5121
   28MOL   C188 7802   4.994   4.964   1.877  0.2170  0.0777 -0.0442
   28MOL   C189 7803   5.042   4.994   1.753  0.4372  0.5113 -0.5708
   28MOL   C190 7804   4.829   4.996   2.053 -0.2279  0.3711 -0.2011
   28MOL   C191 7805   4.700   5.019   2.097  0.0571  0.0688  0.0108
   28MOL   H192 7806   4.537   5.083   1.804 -0.3660  3.2638  2.7149
   28MOL   H193 7807   4.763   5.008   1.721 -2.2883 -0.8207 -1.1675
   28MOL   H194 7808   5.055   4.928   1.959 -1.3079 -0.3057  0.9684
   28MOL   H195 7809   4.982   5.037   1.674  0.6992  1.4509 -0.2645
   28MOL   H196 7810   4.908   4.966   2.119 -0.5374 -0.2698 -0.1193
   28MOL   H197 7811   4.703   5.028   2.205  0.7609 -0.1111  0.0086
   28MOL   C198 7812   5.178   4.973   1.701  0.5555 -0.4437  0.4151
   28MOL   C199 7813   5.226   5.052   1.598  0.3881 -0.1855  0.0294
   28MOL   C200 7814   5.359   5.038   1.556 -0.8057 -0.5789 -0.6368
   28MOL   C201 7815   5.450   4.945   1.601  0.1927 -0.0387  0.7741
   28MOL   C202 7816   5.584   4.942   1.539 -0.0218 -0.3730  0.0962
   28MOL   C203 7817   5.674   4.842   1.565  0.1212  0.7922 -0.4324
   28MOL   C204 7818   5.399   4.861   1.703  0.1208 -0.2220 -0.7619
   28MOL   C205 7819   5.263   4.872   1.752 -0.4366  0.1702  0.7455
   28MOL   H206 7820   5.169   5.140   1.571  0.5444 -1.0994 -3.6295
   28MOL   H207 7821   5.379   5.104   1.473 -0.0263  0.0096  0.0069
   28MOL   H208 7822   5.609   5.015   1.465  1.4909 -1.0263 -0.0614
   28MOL   H209 7823   5.650   4.759   1.630 -2.3827  0.0975 -2.1773
   28MOL   H210 7824   5.457   4.783   1.749  1.6043  1.0148 -0.5148
   28MOL   H211 7825   5.222   4.797   1.817 -1.7370 -0.1003 -0.3471
   28MOL   C212 7826   5.810   4.821   1.510 -0.3710 -0.2469  0.3097
   28MOL   C213 7827   5.850   4.902   1.399  0.1847  0.9920 -0.2734
   28MOL   C214 7828   5.984   4.894   1.357  0.1286  0.1888  0.6710
   28MOL   C215 7829   6.088   4.812   1.412 -0.2910 -0.8035  0.0668
   28MOL   C216 7830   6.225   4.806   1.369 -0.0254 -0.4945  0.8209
   28MOL   C217 7831   6.289   4.893   1.289  0.2498  0.1907 -0.3890
   28MOL   C218 7832   6.043   4.734   1.527  0.4946 -0.1748  0.8544
   28MOL   C219 7833   5.905   4.739   1.570  0.6535  0.4926 -0.5891
   28MOL   H220 7834   5.786   4.970   1.345 -1.8093  0.0051  0.7990
   28MOL   H221 7835   6.012   4.960   1.276 -0.7738  0.4949  0.6072
   28MOL   H222 7836   6.286   4.722   1.399 -1.5037 -1.2995  1.6824
   28MOL   H223 7837   6.241   4.986   1.262 -0.7654  0.0527  0.8857
   28MOL   H224 7838   6.117   4.670   1.571 -0.0658  0.1406  2.3100
   28MOL   H225 7839   5.881   4.673   1.652  0.3521  1.5284  0.1515
   28MOL   C226 7840   6.428   4.877   1.245 -0.3147 -0.1557 -0.4533
   28MOL   C227 7841   6.462   4.917   1.110  0.2539  0.6294 -0.7182
   28MOL   C228 7842   6.597   4.904   1.061  0.4118  0.6378 -0.2127
   28MOL   C229 7843   6.695   4.864   1.155  0.3778 -0.2253 -0.0152
   28MOL   C230 7844   6.837   4.859   1.102 -0.1639  0.3595 -0.1055
   28MOL   C231 7845   6.946   4.840   1.181 -0.1478 -0.6801 -0.7243
   28MOL   C232 7846   6.657   4.821   1.282 -0.5185  0.1406 -0.0689
   28MOL   C233 7847   6.525   4.817   1.330 -0.2512  0.1078  0.8868
   28MOL   H234 7848   6.384   4.957   1.046  0.0979  0.4783 -0.6195
   28MOL   H235 7849   6.619   4.925   0.957 -1.6746 -0.4246 -0.8932
   28MOL   H236 7850   6.840   4.865   0.994  0.6650  1.1195 -0.0461
   28MOL   H237 7851   6.935   4.839   1.288 -2.0509  0.3264 -0.8887
   28MOL   H238 7852   6.729   4.776   1.350  0.2415 -1.0844 -1.6487
   28MOL   H239 7853   6.492   4.783   1.427 -2.7242  0.8937  0.3750
   28MOL   C240 7854   7.090   4.816   1.136  0.0769  0.1074 -0.6692
   28MOL   C241 7855   7.128   4.795   1.003  0.5291 -0.1447 -0.2103
   28MOL   C242 7856   7.259   4.770   0.958 -0.2380 -1.2233  0.2216
   28MOL   C243 7857   7.357   4.760   1.058  0.1148  0.0873  0.3489
   28MOL   C244 7858   7.501   4.722   1.040  0.0860  0.3666 -0.1523
   28MOL   C245 7859   7.566   4.710   0.923  0.0606 -0.0752  0.0674
   28MOL   C246 7860   7.324   4.780   1.191  0.1286  0.7697 -0.1733
   28MOL   C247 7861   7.188   4.812   1.231  0.2600  0.1239 -0.0447
   28MOL   H248 7862   7.053   4.797   0.925  0.3064 -1.6402 -0.0587
   28MOL   H249 7863   7.273   4.766   0.850 -0.6486  0.8247  0.0628
   28MOL   H250 7864   7.550   4.694   1.132 -2.1596  2.0559  1.6129
   28MOL   H251 7865   7.520   4.731   0.828  1.2456  0.6809 -0.3502
   28MOL   H252 7866   7.392   4.767   1.274 -0.2273  0.4709  0.0718
   28MOL   H253 7867   7.160   4.837   1.332  1.2636 -0.7057  0.4507
   28MOL   C254 7868   7.703   4.661   0.921  0.1273  0.0438 -0.2143
   28MOL   C255 7869   7.773   4.606   1.032  0.8690 -0.1248  0.5267
   28MOL   C256 7870   7.903   4.565   1.014  0.7214 -0.1831  0.5480
   28MOL   C257 7871   7.971   4.581   0.893 -0.3110 -0.4442 -0.4438
   28MOL   C258 7872   8.104   4.519   0.874 -0.3709  0.1486 -0.3621
   28MOL   C259 7873   0.011   4.402   0.924 -0.2736 -0.1899 -0.4529
   28MOL   C260 7874   7.914   4.653   0.789  0.7237  0.1354 -0.5140
   28MOL   C261 7875   7.776   4.687   0.798  0.3528  0.1010 -0.0132
   28MOL   H262 7876   7.725   4.592   1.128  0.7337 -1.9721  0.2070
   28MOL   H263 7877   7.959   4.521   1.095  2.0313  1.1655  0.4040
   28MOL   H264 7878   0.024   4.581   0.814 -0.5249 -0.4757 -1.1882
   28MOL   H265 7879   0.112   4.380   0.895 -0.9027 -2.4911 -0.9990
   28MOL   H266 7880   7.970   4.663   0.697 -0.5196 -0.7531 -1.3882
   28MOL   H267 7881   7.727   4.734   0.713 -0.5621 -2.3845 -0.8947
   28MOL   C268 7882   8.090   4.298   1.002  0.0797 -0.3562  0.7258
   28MOL   C269 7883   0.014   4.239   1.111  0.3309  0.3072  0.0657
   28MOL   C270 7884   8.093   4.135   1.181  0.1616  0.8152  0.2140
   28MOL   C271 7885   7.966   4.082   1.142 -0.0635 -0.3550  0.4769
   28MOL   C272 7886   7.928   3.961   1.213  0.1888 -0.6028 -0.1015
   28MOL   C273 7887   7.856   3.858   1.162  0.0588  0.5397  0.4701
   28MOL   C274 7888   7.899   4.147   1.041 -0.3305  0.1662 -0.3344
   28MOL   C275 7889   7.958   4.254   0.970 -0.4926  0.3052  0.4076
   28MOL   H276 7890   0.118   4.264   1.127  0.8851 -0.8637 -1.6176
   28MOL   H277 7891   0.004   4.080   1.256 -0.3987 -2.5691 -1.7041
   28MOL   H278 7892   7.950   3.940   1.317  1.4672 -0.7311 -0.3871
   28MOL   H279 7893   7.821   3.860   1.060 -0.3867 -1.2882  0.5664
   28MOL   H280 7894   7.804   4.102   1.016  0.4989 -1.7894 -0.0180
   28MOL   H281 7895   7.896   4.284   0.888 -1.6346 -1.2108  0.6911
   28MOL   H282 7896   7.829   3.767   1.214 -0.2787 -1.2149 -2.6767
   29MOL     C1 7897   4.352   3.986   2.337 -0.5677  0.0181 -0.3581
   29MOL     C2 7898   4.248   3.953   2.255 -0.5832  0.1507  0.1659
   29MOL     C3 7899   4.123   4.008   2.279 -0.1451  0.3184 -0.1105
   29MOL     C4 7900   4.104   4.097   2.386  0.6174 -0.0598 -0.4590
   29MOL     C5 7901   3.975   4.169   2.397 -0.0187  0.1157 -0.2667
   29MOL     C6 7902   3.936   4.239   2.510 -0.1163 -0.0398 -0.1263
   29MOL     C7 7903   4.215   4.125   2.476  0.6884 -0.4222 -0.6794
   29MOL     C8 7904   4.343   4.076   2.446 -0.0339  0.3774  0.4431
   29MOL     H9 7905   4.251   3.885   2.171  1.2330 -0.0946  0.4085
   29MOL    H10 7906   4.040   3.993   2.212 -0.3924 -0.5929  0.4017
   29MOL    H11 7907   3.914   4.153   2.310 -0.9839  1.3048  0.1858
   29MOL    H12 7908   3.990   4.235   2.603 -0.3924 -0.4691  0.0165
   29MOL    H13 7909   4.197   4.174   2.570  0.1188 -0.5661 -0.7101
   29MOL    H14 7910   4.420   4.104   2.515 -0.6388  0.1851  1.1970
   29MOL    H15 7911   4.444   3.932   2.317 -0.9682 -0.8524  0.1139
   29MOL    C16 7912   3.802   4.312   2.523 -0.7018 -0.1595  0.0441
   29MOL    C17 7913   3.753   4.353   2.650 -0.3667  1.0225  0.1757
   29MOL    C18 7914   3.633   4.416   2.668  1.2075 -1.1118 -0.0088
   29MOL    C19 7915   3.549   4.443   2.554 -0.1750 -0.6142  0.5827
   29MOL    C20 7916   3.428   4.520   2.553 -0.5043 -0.0634 -0.6702
   29MOL    C21 7917   3.377   4.583   2.661  0.4201 -0.0946  0.0657
   29MOL    C22 7918   3.601   4.405   2.432  0.4579  0.3419 -0.3731
   29MOL    C23 7919   3.726   4.343   2.411  0.6346  0.0741  0.0104
   29MOL    H24 7920   3.807   4.330   2.740 -0.1236 -1.9733 -0.6835
   29MOL    H25 7921   3.594   4.434   2.768 -0.1150 -1.1959 -0.4974
   29MOL    H26 7922   3.374   4.521   2.459 -0.5230 -0.8257 -0.6715
   29MOL    H27 7923   3.430   4.581   2.755  0.5912 -1.4660 -0.0433
   29MOL    H28 7924   3.549   4.421   2.338 -0.3903  0.5496  0.1315
   29MOL    H29 7925   3.765   4.325   2.312  0.1128 -1.4775  0.0742
   29MOL    C30 7926   3.253   4.656   2.674 -0.5270 -0.3356 -1.2578
   29MOL    C31 7927   3.172   4.682   2.563  0.1383 -0.6127 -0.1612
   29MOL    C32 7928   3.050   4.757   2.577 -0.4788  0.4941 -0.1166
   29MOL    C33 7929   3.010   4.796   2.710 -0.0219 -0.1580  0.2006
   29MOL    C34 7930   2.880   4.856   2.723  0.7076 -0.5113 -0.5200
   29MOL    C35 7931   2.848   4.957   2.812  0.1845 -0.6764  0.3923
   29MOL    C36 7932   3.091   4.770   2.823  0.0074  0.1888  0.2702
   29MOL    C37 7933   3.210   4.691   2.802  0.1447  0.2643 -0.5608
   29MOL    H38 7934   3.214   4.653   2.468  2.6293  2.6472 -0.1269
   29MOL    H39 7935   2.980   4.775   2.497 -0.6819  0.1058 -0.0252
   29MOL    H40 7936   2.810   4.803   2.661  1.3233 -0.6568 -1.0955
   29MOL    H41 7937   2.924   5.000   2.875 -0.6200  3.1142 -1.0876
   29MOL    H42 7938   3.064   4.791   2.925 -4.5317  2.0535 -1.1985
   29MOL    H43 7939   3.267   4.655   2.886  0.0170  1.3709  0.0128
   29MOL    C44 7940   2.714   5.005   2.823  0.0346 -0.3610 -0.0570
   29MOL    C45 7941   2.604   4.945   2.763  0.2040 -0.0535  0.6428
   29MOL    C46 7942   2.472   4.990   2.788 -0.1081  0.1333  0.4356
   29MOL    C47 7943   2.448   5.098   2.873  0.4633  0.3512  0.1897
   29MOL    C48 7944   2.311   5.146   2.875  0.2521 -0.2029 -0.3814
   29MOL    C49 7945   2.261   5.259   2.927 -0.3865 -0.5275 -0.4191
   29MOL    C50 7946   2.557   5.156   2.943 -0.2342 -0.2567  0.5898
   29MOL    C51 7947   2.690   5.114   2.908  0.5609  0.1931 -0.3154
   29MOL    H52 7948   2.616   4.863   2.693 -1.3530 -2.1598  2.7576
   29MOL    H53 7949   2.395   4.939   2.733  1.4199 -0.8377 -0.8530
   29MOL    H54 7950   2.239   5.086   2.821 -2.9421  1.7624  1.5255
   29MOL    H55 7951   2.327   5.327   2.980 -3.1037  1.4375  0.5960
   29MOL    H56 7952   2.538   5.244   3.002 -2.2032 -1.6736  2.1451
   29MOL    H57 7953   2.772   5.170   2.950  0.1117  0.7878 -0.2116
   29MOL    C58 7954   2.130   5.320   2.905 -0.4542 -0.0837 -0.1492
   29MOL    C59 7955   2.014   5.258   2.845 -0.2303 -0.4803  0.6000
   29MOL    C60 7956   1.898   5.328   2.806 -0.3272 -0.3015  0.8237
   29MOL    C61 7957   1.879   5.463   2.841 -0.2674 -0.3188  0.5271
   29MOL    C62 7958   1.753   5.532   2.824 -0.5477 -0.2180  0.5075
   29MOL    C63 7959   1.731   5.661   2.853  0.2382  0.0081  0.1238
   29MOL    C64 7960   1.992   5.521   2.914  0.0371 -0.5460  0.2392
   29MOL    C65 7961   2.112   5.457   2.935 -0.8196  0.7513  0.4576
   29MOL    H66 7962   2.025   5.152   2.828  3.3396  0.3014 -2.4907
   29MOL    H67 7963   1.817   5.275   2.758  1.0036 -1.9547  0.3629
   29MOL    H68 7964   1.672   5.472   2.784 -0.0575 -2.2088  2.4001
   29MOL    H69 7965   1.807   5.727   2.892 -1.2925  0.3733  2.6563
   29MOL    H70 7966   1.976   5.620   2.954  1.3482 -0.6576  1.0663
   29MOL    H71 7967   2.198   5.503   2.982 -0.3969 -0.8429  1.3014
   29MOL    C72 7968   1.605   5.731   2.837  0.2142 -0.1838 -0.3350
   29MOL    C73 7969   1.599   5.866   2.879  0.1179 -0.5472  0.2438
   29MOL    C74 7970   1.476   5.939   2.852 -0.3619 -0.0175  0.4051
   29MOL    C75 7971   1.369   5.881   2.783  0.6689  0.3645 -0.6713
   29MOL    C76 7972   1.243   5.956   2.758  0.0118  0.3494  0.5530
   29MOL    C77 7973   1.146   5.912   2.670 -0.1807 -0.5525  0.4231
   29MOL    C78 7974   1.382   5.748   2.740 -0.0974  0.1854 -0.2235
   29MOL    C79 7975   1.498   5.671   2.770 -0.5644  0.0597  0.1260
   29MOL    H80 7976   1.686   5.915   2.921 -0.4387  1.0584 -0.4357
   29MOL    H81 7977   1.453   6.036   2.893 -1.4478  0.1506 -0.5823
   29MOL    H82 7978   1.223   6.048   2.810 -0.5720 -0.8639  2.5418
   29MOL    H83 7979   1.164   5.815   2.627 -0.9401 -0.5981  0.2091
   29MOL    H84 7980   1.300   5.701   2.688 -0.2221 -0.5975  0.6688
   29MOL    H85 7981   1.490   5.574   2.724 -1.5011  0.2276 -0.0907
   29MOL    C86 7982   1.022   5.968   2.638  0.4609  0.7010 -0.5680
   29MOL    C87 7983   0.977   6.077   2.709 -0.1593 -0.3657  0.0746
   29MOL    C88 7984   0.851   6.129   2.698 -0.5605 -0.0998 -0.2227
   29MOL    C89 7985   0.769   6.078   2.590  0.0717 -0.6192 -0.1768
   29MOL    C90 7986   0.634   6.136   2.566  0.1143 -0.3610  0.5979
   29MOL    C91 7987   0.539   6.085   2.482 -0.4592  0.2245  0.8380
   29MOL    C92 7988   0.820   5.975   2.509 -0.0911  0.4846  0.6237
   29MOL    C93 7989   0.952   5.916   2.530  0.7474  0.3861  0.1256
   29MOL    H94 7990   1.032   6.120   2.791 -1.3219  1.3149 -0.0069
   29MOL    H95 7991   0.819   6.213   2.758  1.1668  0.4955 -0.1097
   29MOL    H96 7992   0.616   6.227   2.622 -2.2910 -0.2626 -0.2664
   29MOL    H97 7993   0.559   5.995   2.426 -2.0311  0.8054 -0.7370
   29MOL    H98 7994   0.759   5.927   2.434 -0.0281  0.8946  0.3067
   29MOL    H99 7995   0.996   5.832   2.479 -0.2098 -0.3164  0.4561
   29MOL   C100 7996   0.410   6.148   2.457  0.9566 -0.3054  0.8307
   29MOL   C101 7997   0.326   6.094   2.357  0.4406  0.3491 -0.3582
   29MOL   C102 7998   0.205   6.156   2.319 -0.1601  0.1483 -0.0232
   29MOL   C103 7999   0.159   6.265   2.394 -0.2989 -0.1471  0.4814
   29MOL   C104 8000   0.030   6.317   2.350  0.7528  0.0483 -0.5041
   29MOL   C105 8001   8.116   6.433   2.387 -0.4547 -0.6052  0.6264
   29MOL   C106 8002   0.237   6.321   2.498 -0.1061  0.3175 -0.2008
   29MOL   C107 8003   0.362   6.258   2.525 -0.9179 -1.3160 -0.2063
   29MOL   H108 8004   0.363   6.008   2.303  0.8695  0.1401  0.2604
   29MOL   H109 8005   0.141   6.115   2.242 -0.1748  2.3137 -1.2111
   29MOL   H110 8006   8.114   6.254   2.286 -0.1590 -0.6102  0.9566
   29MOL   H111 8007   0.012   6.508   2.453 -0.7840  0.1755 -0.0563
   29MOL   H112 8008   0.199   6.406   2.554  1.2374  0.3349  0.7138
   29MOL   H113 8009   0.421   6.307   2.601 -2.0434 -0.1353 -0.0873
   29MOL   C114 8010   7.978   6.471   2.356 -0.3208  0.7704  0.0129
   29MOL   C115 8011   7.921   6.588   2.414  1.3746  0.2725 -0.3764
   29MOL   C116 8012   7.787   6.619   2.386 -0.1743  0.3956 -0.9709
   29MOL   C117 8013   7.713   6.552   2.284 -0.5331  0.1697 -0.5927
   29MOL   C118 8014   7.579   6.614   2.253 -0.4162 -0.5178 -0.2572
   29MOL   C119 8015   7.489   6.561   2.173  1.2934 -0.4315  0.6612
   29MOL   C120 8016   7.771   6.442   2.226  0.4606 -0.2402  0.2081
   29MOL   C121 8017   7.900   6.396   2.265  0.3020 -0.2940 -0.1435
   29MOL   H122 8018   7.975   6.632   2.496  0.0664 -1.4108  1.4437
   29MOL   H123 8019   7.745   6.705   2.435 -0.7470 -0.5852  0.2943
   29MOL   H124 8020   7.565   6.700   2.317  1.5915 -0.7347  0.4952
   29MOL   H125 8021   7.522   6.477   2.114  0.5865  0.2867 -0.7721
   29MOL   H126 8022   7.725   6.384   2.147 -1.0153  0.5889  0.4468
   29MOL   H127 8023   7.935   6.308   2.214  0.0897  0.1465 -1.0665
   29MOL   C128 8024   7.354   6.610   2.136  0.6837 -0.1642  0.4561
   29MOL   C129 8025   7.296   6.730   2.195  0.2934  0.0231  0.2188
   29MOL   C130 8026   7.165   6.772   2.159  0.1270  0.2143  0.3969
   29MOL   C131 8027   7.089   6.689   2.074  0.3539 -0.3896 -0.7987
   29MOL   C132 8028   6.950   6.724   2.048  0.8627  0.3365 -0.6921
   29MOL   C133 8029   6.853   6.657   1.983 -0.0181 -0.0906  0.2187
   29MOL   C134 8030   7.148   6.576   2.017  0.1912  0.1254 -0.1574
   29MOL   C135 8031   7.278   6.538   2.045 -0.2625  0.2180 -0.1191
   29MOL   H136 8032   7.336   6.794   2.271 -0.6287 -0.0762  0.7892
   29MOL   H137 8033   7.125   6.856   2.213 -1.3219  1.4152 -2.4576
   29MOL   H138 8034   6.922   6.824   2.077  0.7615 -0.1350  0.8533
   29MOL   H139 8035   6.888   6.558   1.960  2.0258  0.3848  1.2005
   29MOL   H140 8036   7.092   6.528   1.938 -2.8777 -1.5559  2.9414
   29MOL   H141 8037   7.318   6.448   2.000 -0.2961  0.0649  0.1513
   29MOL   C142 8038   6.718   6.709   1.955 -0.0052  0.3511 -0.3165
   29MOL   C143 8039   6.637   6.631   1.869  0.7273  0.3813  0.8716
   29MOL   C144 8040   6.505   6.675   1.829 -0.1078 -0.1782  0.3507
   29MOL   C145 8041   6.455   6.796   1.877  0.0824  0.2982  0.4620
   29MOL   C146 8042   6.320   6.841   1.845  0.6149 -0.4077  0.1236
   29MOL   C147 8043   6.229   6.774   1.765  0.0313  0.1281 -0.0539
   29MOL   C148 8044   6.535   6.879   1.963 -0.0192  0.5328 -0.8462
   29MOL   C149 8045   6.666   6.833   2.005 -0.3710 -0.2158 -0.1196
   29MOL   H150 8046   6.673   6.536   1.833  1.1759  0.9929 -0.3218
   29MOL   H151 8047   6.454   6.606   1.764  0.5978 -1.2631  0.9178
   29MOL   H152 8048   6.290   6.931   1.896  2.4463  0.5754 -0.5184
   29MOL   H153 8049   6.275   6.694   1.709  0.9029 -0.5753  1.6259
   29MOL   H154 8050   6.494   6.973   1.995 -0.6531 -0.1161  0.2614
   29MOL   H155 8051   6.723   6.908   2.058  1.2215 -1.6404  0.2155
   29MOL   C156 8052   6.093   6.815   1.736  0.3008  0.1110 -0.0084
   29MOL   C157 8053   6.007   6.747   1.650 -0.2697  0.2005  0.2788
   29MOL   C158 8054   5.876   6.793   1.617 -0.4407 -0.1303 -0.5621
   29MOL   C159 8055   5.835   6.912   1.677  0.2868  0.0889  0.0141
   29MOL   C160 8056   5.704   6.970   1.651  0.1349 -0.1684 -0.2427
   29MOL   C161 8057   5.606   6.922   1.571  0.2301 -0.6520 -0.2952
   29MOL   C162 8058   5.911   6.974   1.777  0.3554 -0.5615  0.5470
   29MOL   C163 8059   6.043   6.928   1.801  0.4745 -0.2381 -0.2733
   29MOL   H164 8060   6.053   6.663   1.601  0.2069  2.0439 -2.5464
   29MOL   H165 8061   5.821   6.742   1.539  1.9835 -0.4182 -2.1502
   29MOL   H166 8062   5.689   7.060   1.708  1.6864 -0.7809  1.1487
   29MOL   H167 8063   5.625   6.833   1.512  0.6372 -0.3394 -0.6479
   29MOL   H168 8064   5.881   7.069   1.819  0.2566 -0.8522  1.1347
   29MOL   H169 8065   6.101   6.993   1.865 -2.1285  0.5790  1.3144
   29MOL   C170 8066   5.469   6.982   1.561  0.4760  0.2012 -0.2875
   29MOL   C171 8067   5.361   6.909   1.502 -0.4815  0.6505  0.0968
   29MOL   C172 8068   5.226   6.928   1.544  0.0544 -0.4628  0.3204
   29MOL   C173 8069   5.199   7.036   1.637 -0.2594  0.0219  0.3799
   29MOL   C174 8070   5.071   7.048   1.702 -0.6164 -0.5507 -0.1163
   29MOL   C175 8071   5.014   7.167   1.729 -0.7576 -0.1592  0.5262
   29MOL   C176 8072   5.305   7.120   1.672 -0.2505  0.7919  0.5355
   29MOL   C177 8073   5.435   7.095   1.637 -0.3788 -0.8617 -0.3903
   29MOL   H178 8074   5.381   6.814   1.455  0.1436  1.2958 -0.9597
   29MOL   H179 8075   5.148   6.858   1.518  1.6925 -2.2752  0.1478
   29MOL   H180 8076   5.037   6.956   1.746 -3.6306  0.2352 -0.6996
   29MOL   H181 8077   5.057   7.254   1.683  0.9724 -1.0550  0.3782
   29MOL   H182 8078   5.283   7.207   1.732 -1.4818 -0.2211  1.5738
   29MOL   H183 8079   5.512   7.159   1.679 -2.0090  1.3663 -0.6769
   29MOL   C184 8080   4.923   7.197   1.846 -0.2945 -0.7242 -0.1917
   29MOL   C185 8081   4.912   7.094   1.943  0.5020 -0.6837  0.5279
   29MOL   C186 8082   4.896   7.135   2.075  0.2673 -0.0767  0.1847
   29MOL   C187 8083   4.876   7.266   2.109 -0.7768  0.3691  0.6339
   29MOL   C188 8084   4.910   7.297   2.251  0.5038 -0.5903  0.0707
   29MOL   C189 8085   4.972   7.413   2.292  0.4081  0.2431 -0.4621
   29MOL   C190 8086   4.860   7.363   2.006  0.3069  1.2866 -0.0506
   29MOL   C191 8087   4.887   7.330   1.871  0.1982 -0.0025 -0.2406
   29MOL   H192 8088   4.943   6.991   1.930 -1.6533 -1.5206  1.8055
   29MOL   H193 8089   4.905   7.055   2.147  0.5067 -0.2840 -0.0767
   29MOL   H194 8090   4.900   7.217   2.322 -0.4021  0.0853  0.7208
   29MOL   H195 8091   4.979   7.495   2.222  0.8565  0.8259  0.2556
   29MOL   H196 8092   4.837   7.468   2.022 -2.8925  0.3849  1.5471
   29MOL   H197 8093   4.890   7.401   1.789 -0.9899  0.6072  0.2295
   29MOL   C198 8094   5.027   7.439   2.422  0.0231  0.6317  0.0443
   29MOL   C199 8095   5.108   7.547   2.440 -0.4866  0.4700 -0.5957
   29MOL   C200 8096   5.173   7.566   2.561 -0.7326  0.5587 -0.4933
   29MOL   C201 8097   5.146   7.485   2.673 -0.3728  0.2830 -0.2251
   29MOL   C202 8098   5.216   7.505   2.799 -0.4662 -0.0509  0.4167
   29MOL   C203 8099   5.268   7.621   2.840 -0.6680 -0.1643 -0.4170
   29MOL   C204 8100   5.061   7.377   2.659  1.5374  0.1061 -0.2502
   29MOL   C205 8101   5.003   7.354   2.532  0.0919 -0.3181  0.2241
   29MOL   H206 8102   5.121   7.617   2.358 -1.4914 -0.1978 -1.3243
   29MOL   H207 8103   5.245   7.646   2.557  0.4776 -0.4708  0.3113
   29MOL   H208 8104   5.246   7.417   2.854 -0.9562 -1.1928 -1.1207
   29MOL   H209 8105   5.254   7.710   2.781  1.2771  0.4892  0.0723
   29MOL   H210 8106   5.026   7.309   2.736  0.2990  0.9331 -0.0683
   29MOL   H211 8107   4.931   7.273   2.525 -0.1144 -0.3241  2.2919
   29MOL   C212 8108   5.345   7.640   2.965 -0.2871 -0.5239  0.5542
   29MOL   C213 8109   5.394   7.768   2.987 -0.3509 -0.2210 -0.0838
   29MOL   C214 8110   5.492   7.790   3.094 -0.2406 -0.5505 -0.6105
   29MOL   C215 8111   5.513   7.692   3.187 -1.1484 -0.8682 -0.1346
   29MOL   C216 8112   5.615   7.696   3.288 -0.2068  0.0121  0.4305
   29MOL   C217 8113   5.741   7.728   3.257 -0.1403 -0.1060 -0.0876
   29MOL   C218 8114   5.445   7.573   3.175 -0.5232 -0.2787  0.1748
   29MOL   C219 8115   5.370   7.544   3.062 -0.4179 -0.2310 -0.2463
   29MOL   H220 8116   5.373   7.848   2.917 -2.2871  0.7383  1.5773
   29MOL   H221 8117   5.543   7.885   3.106 -2.0945 -0.0059  3.9766
   29MOL   H222 8118   5.608   7.671   3.393  2.0988 -1.2110  0.3062
   29MOL   H223 8119   5.755   7.750   3.153 -1.1862 -2.4504 -0.7691
   29MOL   H224 8120   5.461   7.495   3.247 -1.6199  0.3813  1.1618
   29MOL   H225 8121   5.317   7.452   3.044  0.5139 -0.7917 -0.1551
   29MOL   C226 8122   5.858   7.722   3.340  0.6493 -0.1183 -0.3399
   29MOL   C227 8123   5.857   7.699   3.481  0.1572 -0.2768 -0.1768
   29MOL   C228 8124   5.973   7.717   3.562  0.0369  0.2392 -0.3341
   29MOL   C229 8125   6.096   7.741   3.498  0.2548 -0.6070 -0.1500
   29MOL   C230 8126   6.217   7.756   3.588  0.3661  0.3668 -0.5500
   29MOL   C231 8127   6.343   7.760   3.541  0.0866 -0.8592  0.3937
   29MOL   C232 8128   6.103   7.747   3.351 -0.5488 -0.0608 -0.3944
   29MOL   C233 8129   5.985   7.732   3.278  0.0820  0.0484 -0.7484
   29MOL   H234 8130   5.760   7.688   3.527  0.2749  0.0879  0.1650
   29MOL   H235 8131   5.966   7.708   3.669 -0.9602  0.5232 -0.3705
   29MOL   H236 8132   6.199   7.767   3.694  0.4560  3.9133 -0.8295
   29MOL   H237 8133   6.363   7.754   3.436 -3.7056 -1.3080 -0.3763
   29MOL   H238 8134   6.201   7.764   3.309 -0.0294 -0.4503  0.6470
   29MOL   H239 8135   5.983   7.749   3.171  1.6385  3.0463 -0.3847
   29MOL   C240 8136   6.459   7.770   3.633 -0.1125 -0.1336  0.3560
   29MOL   C241 8137   6.593   7.752   3.586 -0.1236  0.4353 -0.4388
   29MOL   C242 8138   6.712   7.776   3.661 -0.3104  0.0885 -0.4213
   29MOL   C243 8139   6.689   7.799   3.799 -0.3003  0.2311  0.0847
   29MOL   C244 8140   6.804   7.801   3.887  0.2674 -0.0708  0.4104
   29MOL   C245 8141   6.934   7.797   3.847 -0.0787  0.4592  0.1334
   29MOL   C246 8142   6.562   7.807   3.862 -0.4976 -0.4747  0.9277
   29MOL   C247 8143   6.449   7.794   3.774  0.1043 -0.9028 -0.8275
   29MOL   H248 8144   6.599   7.735   3.480  2.3681  0.4484 -0.3350
   29MOL   H249 8145   6.809   7.766   3.614 -0.0284 -0.5639  0.2856
   29MOL   H250 8146   6.783   7.794   3.993 -2.5235 -0.0101 -0.1190
   29MOL   H251 8147   6.954   7.799   3.741 -2.2122 -0.9393 -0.3149
   29MOL   H252 8148   6.555   7.833   3.967 -0.2131 -0.3602  0.9209
   29MOL   H253 8149   6.354   7.795   3.825 -0.7334 -1.4303 -2.3711
   29MOL   C254 8150   7.054   7.801   3.927 -0.2577  0.1510  0.2004
   29MOL   C255 8151   7.051   7.830   4.064 -0.1673 -0.2096  0.4265
   29MOL   C256 8152   7.168   7.838   4.141  0.5746  0.2696  1.2190
   29MOL   C257 8153   7.297   7.820   4.077 -0.4905 -0.8201  0.0385
   29MOL   C258 8154   7.425   7.806   4.157  0.3567 -0.7452 -0.5754
   29MOL   C259 8155   7.456   7.862   4.275  0.9907 -0.1627 -0.1201
   29MOL   C260 8156   7.300   7.787   3.937 -0.0311  0.0321 -0.2607
   29MOL   C261 8157   7.178   7.775   3.865  0.1842 -0.1457  0.1345
   29MOL   H262 8158   6.957   7.848   4.114 -2.6470  0.2234 -4.1412
   29MOL   H263 8159   7.161   7.848   4.248  2.4695 -2.0289  1.6033
   29MOL   H264 8160   7.501   7.741   4.115 -0.4436 -1.7671 -0.4575
   29MOL   H265 8161   7.554   7.841   4.314  1.5528 -0.4341 -1.6762
   29MOL   H266 8162   7.392   7.763   3.886 -0.2715  1.3894 -1.3901
   29MOL   H267 8163   7.186   7.758   3.759 -0.4701  1.5322 -0.2064
   29MOL   C268 8164   7.372   7.956   4.349 -0.2265  0.8995  0.0207
   29MOL   C269 8165   7.363   7.936   4.486 -0.0355 -0.6495  0.4521
   29MOL   C270 8166   7.289   8.029   4.568 -0.3049 -1.0440 -0.7509
   29MOL   C271 8167   7.216   8.138   4.512 -0.9767  0.6074 -0.1666
   29MOL   C272 8168   7.142   0.084   4.599 -0.0564 -0.2487  0.1531
   29MOL   C273 8169   7.020   0.128   4.571  0.4078  0.2247  0.6113
   29MOL   C274 8170   7.217   0.000   4.373 -0.2801  0.1503 -0.5904
   29MOL   C275 8171   7.304   8.064   4.294 -0.6794  0.0920 -0.7243
   29MOL   H276 8172   7.409   7.848   4.529  1.3309 -0.0006  0.3212
   29MOL   H277 8173   7.292   8.026   4.676  2.7971 -1.0235 -0.7972
   29MOL   H278 8174   7.183   0.114   4.694 -2.5406  2.4823  0.4335
   29MOL   H279 8175   6.975   0.102   4.476 -1.6725  1.2753  1.2718
   29MOL   H280 8176   7.155   0.079   4.331 -1.7031 -0.3247  0.5508
   29MOL   H281 8177   7.313   8.085   4.188 -3.4457 -0.7972 -1.1917
   29MOL   H282 8178   6.961   0.190   4.637 -0.1305  0.2802  0.0840
   30MOL     C1 8179   1.875   5.870   6.422 -0.1025  0.3688 -0.5233
   30MOL     C2 8180   1.922   5.984   6.363 -0.5237  0.1926  0.8753
   30MOL     C3 8181   1.962   6.088   6.447 -0.3564  0.5708 -0.3126
   30MOL     C4 8182   1.945   6.087   6.587 -0.2023 -0.0093  0.2194
   30MOL     C5 8183   1.990   6.207   6.664 -0.0502 -0.3666 -0.0814
   30MOL     C6 8184   1.968   6.334   6.623  0.1485  0.1652  0.3927
   30MOL     C7 8185   1.900   5.969   6.650  0.0469  0.1634 -0.6967
   30MOL     C8 8186   1.861   5.862   6.564 -0.7441 -0.2605 -0.1165
   30MOL     H9 8187   1.911   5.998   6.257  0.3902 -3.0035  0.3013
   30MOL    H10 8188   1.999   6.178   6.399  2.7735 -0.5837 -0.1820
   30MOL    H11 8189   2.055   6.184   6.747  1.4136 -0.6942 -1.2905
   30MOL    H12 8190   1.909   6.354   6.534 -0.9331  1.2555  1.3312
   30MOL    H13 8191   1.890   5.963   6.757 -1.1358  2.5076 -0.6556
   30MOL    H14 8192   1.815   5.772   6.603 -0.0849 -0.7158 -0.3653
   30MOL    H15 8193   1.837   5.788   6.362  0.7097  0.3139 -0.9751
   30MOL    C16 8194   2.024   6.457   6.675 -0.5914 -0.0779 -0.3022
   30MOL    C17 8195   2.076   6.459   6.804 -0.8269 -0.4753 -0.1234
   30MOL    C18 8196   2.128   6.582   6.853  0.4093 -0.1798  1.0910
   30MOL    C19 8197   2.136   6.701   6.774  0.1684 -0.8033  0.0474
   30MOL    C20 8198   2.191   6.823   6.843 -0.5383 -0.5353  0.5193
   30MOL    C21 8199   2.224   6.942   6.785  0.1760 -0.0809 -0.0761
   30MOL    C22 8200   2.085   6.691   6.647  0.2216  0.7790 -0.4465
   30MOL    C23 8201   2.033   6.566   6.591  0.3039 -0.1441 -0.5350
   30MOL    H24 8202   2.087   6.379   6.875  1.3395 -1.3356 -1.3680
   30MOL    H25 8203   2.161   6.580   6.955 -1.8601  0.3059  1.8558
   30MOL    H26 8204   2.198   6.815   6.950 -0.0753 -0.4754  0.4928
   30MOL    H27 8205   2.202   6.955   6.680 -0.9361  1.2834  0.3077
   30MOL    H28 8206   2.081   6.779   6.585 -2.3589  1.7038  0.9427
   30MOL    H29 8207   2.015   6.558   6.485  1.4258 -0.7241 -0.6943
   30MOL    C30 8208   2.274   7.066   6.848  0.2694 -0.3652  0.1157
   30MOL    C31 8209   2.337   7.051   6.974  0.2848  0.1623 -0.0022
   30MOL    C32 8210   2.381   7.176   7.028  0.2431 -0.3555 -0.0038
   30MOL    C33 8211   2.357   7.301   6.977 -0.7304 -0.1723 -0.3530
   30MOL    C34 8212   2.407   7.425   7.045  0.4854  0.8040 -0.3764
   30MOL    C35 8213   2.376   7.554   7.018 -0.8091  0.5752 -0.8446
   30MOL    C36 8214   2.288   7.307   6.853  0.0569 -0.4610 -0.6692
   30MOL    C37 8215   2.255   7.191   6.782  0.3249 -0.3814 -0.3188
   30MOL    H38 8216   2.346   6.955   7.023 -0.9649 -0.5392 -1.0993
   30MOL    H39 8217   2.427   7.169   7.126  1.1989 -0.2978 -0.4386
   30MOL    H40 8218   2.472   7.402   7.128 -0.2466 -0.0092 -0.0103
   30MOL    H41 8219   2.308   7.586   6.941 -0.8652  0.8915 -0.6663
   30MOL    H42 8220   2.273   7.402   6.804  2.8541  1.6002  2.2464
   30MOL    H43 8221   2.204   7.204   6.688  0.1262 -0.7362 -0.2618
   30MOL    C44 8222   2.421   7.667   7.101 -0.4681 -0.2803 -0.8005
   30MOL    C45 8223   2.461   7.641   7.232  0.3814  0.5400 -0.6451
   30MOL    C46 8224   2.523   7.747   7.302 -0.8144  0.2061 -0.5189
   30MOL    C47 8225   2.535   7.877   7.253 -0.1733 -0.9070  0.1635
   30MOL    C48 8226   2.602   7.984   7.335 -0.3504 -0.0564  0.8820
   30MOL    C49 8227   2.703   7.957   7.418  0.0303 -0.2435  0.3530
   30MOL    C50 8228   2.484   7.905   7.123  0.3476 -0.3549 -0.3581
   30MOL    C51 8229   2.435   7.800   7.044 -0.4313  0.3156 -0.4325
   30MOL    H52 8230   2.447   7.545   7.279  0.6702  1.0050  0.3990
   30MOL    H53 8231   2.566   7.724   7.398  2.1082  0.8985 -1.6062
   30MOL    H54 8232   2.573   8.086   7.317 -1.3733  0.1301  3.3450
   30MOL    H55 8233   2.737   7.856   7.432  1.4256  0.1701  0.0109
   30MOL    H56 8234   2.510   7.999   7.077 -0.6395  1.2160  2.1551
   30MOL    H57 8235   2.416   7.805   6.938  0.1779 -0.1680 -0.5662
   30MOL    C58 8236   2.774   8.054   7.500 -0.3523 -0.2477 -0.5914
   30MOL    C59 8237   2.906   8.021   7.533  0.3040 -0.6292  0.1636
   30MOL    C60 8238   2.977   8.094   7.632  0.4084 -0.3148  0.6855
   30MOL    C61 8239   2.905   0.055   7.699  0.1059  0.2667  0.5859
   30MOL    C62 8240   2.976   0.128   7.813  0.0963  0.1871 -0.4505
   30MOL    C63 8241   2.927   0.237   7.872 -0.7222  0.5557  0.1284
   30MOL    C64 8242   2.780   0.100   7.645 -0.3163 -0.0728 -0.5716
   30MOL    C65 8243   2.710   0.021   7.553  0.8355  0.1405  0.1043
   30MOL    H66 8244   2.949   7.932   7.491  1.0697 -1.7225  3.1561
   30MOL    H67 8245   3.075   8.059   7.661 -1.2836 -1.8351  5.1697
   30MOL    H68 8246   3.072   0.096   7.849 -0.0796  2.8438  2.6284
   30MOL    H69 8247   2.833   0.282   7.846 -0.8969 -0.4668 -1.0380
   30MOL    H70 8248   2.730   0.186   7.687 -1.0387 -0.2320 -1.0989
   30MOL    H71 8249   2.610   0.048   7.522  0.6736  0.5701  0.9842
   30MOL    C72 8250   2.994   0.297   7.986  0.2639 -0.5818  0.3456
   30MOL    C73 8251   3.028   0.433   7.982  0.0789  0.2030 -0.2219
   30MOL    C74 8252   3.131   0.491   8.059  0.2466  0.3648  0.2804
   30MOL    C75 8253   3.189   0.410   0.018 -0.6708 -0.0384  0.3078
   30MOL    C76 8254   3.286   0.472   0.112 -0.2623 -0.2313  0.0979
   30MOL    C77 8255   3.398   0.410   0.158 -0.9669  0.0821 -0.3618
   30MOL    C78 8256   3.161   0.272   0.025  0.2789 -0.0244 -0.5965
   30MOL    C79 8257   3.068   0.217   8.088 -0.4442 -0.1630  0.2246
   30MOL    H80 8258   2.986   0.495   7.904 -4.2408 -3.5392 -1.0651
   30MOL    H81 8259   3.148   0.596   8.039  0.4062  0.4095  0.6572
   30MOL    H82 8260   3.257   0.573   0.135  1.4007 -0.4168  3.3350
   30MOL    H83 8261   3.406   0.309   0.121 -0.9075 -0.0851  0.0994
   30MOL    H84 8262   3.202   0.203   0.098  0.2105 -0.6487 -1.1522
   30MOL    H85 8263   3.065   0.109   8.086 -1.4924 -0.1164 -1.9248
   30MOL    C86 8264   3.495   0.458   0.262 -0.1951  0.4945  0.0419
   30MOL    C87 8265   3.461   0.562   0.352  0.6924 -0.0456  0.0889
   30MOL    C88 8266   3.566   0.605   0.437  0.1477 -0.4837 -0.0253
   30MOL    C89 8267   3.688   0.534   0.453  0.2964 -0.5120 -0.1394
   30MOL    C90 8268   3.789   0.580   0.544  0.1963 -0.5790 -0.4408
   30MOL    C91 8269   3.883   0.502   0.597 -0.1379 -0.2465  0.1903
   30MOL    C92 8270   3.712   0.421   0.369 -0.5635  0.1250 -0.2941
   30MOL    C93 8271   3.615   0.381   0.277  0.5834 -0.1849 -0.6532
   30MOL    H94 8272   3.368   0.616   0.349 -0.3549 -1.8175  0.4827
   30MOL    H95 8273   3.550   0.690   0.501  0.9465 -0.7594  0.5564
   30MOL    H96 8274   3.795   0.687   0.556  1.0789 -0.7541  0.7225
   30MOL    H97 8275   3.875   0.398   0.568  0.8176 -0.0109 -0.9495
   30MOL    H98 8276   3.808   0.371   0.374  0.5728  2.2489 -0.2382
   30MOL    H99 8277   3.634   0.297   0.212 -0.7216 -0.7766 -0.2984
   30MOL   C100 8278   3.994   0.543   0.685  0.3772 -0.1722  0.4955
   30MOL   C101 8279   4.063   0.435   0.752  0.0520  0.7251  0.0429
   30MOL   C102 8280   4.161   0.459   0.851  0.5358 -1.1843  0.5331
   30MOL   C103 8281   4.198   0.593   0.877  0.2656  0.4933  0.0039
   30MOL   C104 8282   4.292   0.627   0.982  0.3240 -0.3812 -0.3052
   30MOL   C105 8283   4.369   0.552   1.066  0.1048  0.0942  0.3541
   30MOL   C106 8284   4.136   0.696   0.804 -0.8058 -0.3245 -0.5822
   30MOL   C107 8285   4.035   0.673   0.708 -0.0749  0.6896  0.3939
   30MOL   H108 8286   4.038   0.331   0.740  1.7090 -0.1117  3.3639
   30MOL   H109 8287   4.194   0.376   0.912  1.8462 -1.4173 -0.4880
   30MOL   H110 8288   4.308   0.732   1.004  0.1788 -0.9318  2.6487
   30MOL   H111 8289   4.348   0.446   1.058 -0.8879  0.1934  1.4463
   30MOL   H112 8290   4.158   0.799   0.826 -1.9164  0.0658 -1.2418
   30MOL   H113 8291   3.986   0.757   0.662 -2.2715  0.6243  2.4849
   30MOL   C114 8292   4.466   0.603   1.163  0.9014 -0.0196  0.2938
   30MOL   C115 8293   4.545   0.509   1.231  0.1489  0.0341  0.1894
   30MOL   C116 8294   4.630   0.543   1.330 -0.2818 -0.5501  0.3197
   30MOL   C117 8295   4.652   0.678   1.365  0.2254  0.7825  0.3484
   30MOL   C118 8296   4.738   0.720   1.476  0.3985 -0.3730  0.8467
   30MOL   C119 8297   4.779   0.642   1.575 -0.0585  0.7691  0.3979
   30MOL   C120 8298   4.583   0.775   1.290 -1.0309 -0.3254  0.8407
   30MOL   C121 8299   4.484   0.741   1.193  0.1222  0.3022 -0.6214
   30MOL   H122 8300   4.535   0.403   1.213 -2.2892  0.6061 -2.0892
   30MOL   H123 8301   4.688   0.467   1.380  1.2304  0.3993  0.0480
   30MOL   H124 8302   4.772   0.823   1.470 -0.8744 -0.0469 -1.1319
   30MOL   H125 8303   4.761   0.536   1.578 -1.8607  0.8727 -3.5766
   30MOL   H126 8304   4.597   0.878   1.319  1.3248 -0.7816  1.4426
   30MOL   H127 8305   4.426   0.821   1.149 -1.7201 -0.9866 -0.6157
   30MOL   C128 8306   4.879   0.672   1.680 -0.3368  0.6293 -0.2832
   30MOL   C129 8307   4.906   0.803   1.724  0.5018  0.4983  0.4935
   30MOL   C130 8308   5.017   0.822   1.807 -1.0619  0.4310 -0.1788
   30MOL   C131 8309   5.090   0.718   1.870 -1.3161  0.0519  0.2683
   30MOL   C132 8310   5.203   0.735   1.959  0.6183  0.0410 -0.6059
   30MOL   C133 8311   5.238   0.844   2.029 -0.2537  0.2166 -0.4888
   30MOL   C134 8312   5.053   0.589   1.839  0.2963  0.1147  0.1952
   30MOL   C135 8313   4.952   0.572   1.745  0.2293  0.8119  0.2358
   30MOL   H136 8314   4.851   0.887   1.685  1.6901  0.3007 -1.6650
   30MOL   H137 8315   5.049   0.922   1.834 -0.0616 -0.1017  0.6800
   30MOL   H138 8316   5.259   0.644   1.966 -0.1042 -0.4971 -1.7430
   30MOL   H139 8317   5.180   0.935   2.028 -0.4258  0.1343  1.0595
   30MOL   H140 8318   5.108   0.499   1.863  0.7747 -0.3771 -2.5365
   30MOL   H141 8319   4.918   0.469   1.743  0.7480  0.5818  2.1512
   30MOL   C142 8320   5.370   0.850   2.109 -0.0680 -0.1314  0.1346
   30MOL   C143 8321   5.412   0.968   2.167 -0.5331  0.4809  0.3671
   30MOL   C144 8322   5.530   0.976   2.247  0.3868  0.1226 -0.6950
   30MOL   C145 8323   5.608   0.863   2.269  0.9720  0.5033  0.7606
   30MOL   C146 8324   5.735   0.875   2.353 -0.3755 -0.6009  0.3711
   30MOL   C147 8325   5.804   0.770   2.401  0.1538  0.2160 -0.8760
   30MOL   C148 8326   5.572   0.740   2.203  0.1117 -0.2698  0.8317
   30MOL   C149 8327   5.451   0.734   2.130  0.5491  0.2161 -0.3894
   30MOL   H150 8328   5.340   1.049   2.164 -1.2761 -0.2031 -0.7872
   30MOL   H151 8329   5.555   1.070   2.296 -0.7419  1.1743 -2.0880
   30MOL   H152 8330   5.772   0.975   2.371 -0.6193 -0.3649 -0.4142
   30MOL   H153 8331   5.760   0.674   2.382 -0.3646  0.0853  0.9333
   30MOL   H154 8332   5.631   0.651   2.217 -1.0803 -0.5572  4.4404
   30MOL   H155 8333   5.420   0.636   2.099  0.6988  0.3759 -1.0416
   30MOL   C156 8334   5.933   0.777   2.467  0.2962 -0.1041  0.0999
   30MOL   C157 8335   5.991   0.661   2.502  0.4527 -0.4985  0.7929
   30MOL   C158 8336   6.107   0.651   2.582  0.0254 -0.4469 -0.0705
   30MOL   C159 8337   6.169   0.775   2.614 -0.6840  0.1671 -0.6828
   30MOL   C160 8338   6.295   0.776   2.687 -0.3118 -0.2808 -0.3169
   30MOL   C161 8339   6.356   0.666   2.728 -0.3336  0.4553  0.4340
   30MOL   C162 8340   6.111   0.900   2.578  0.7762  1.0192 -0.3183
   30MOL   C163 8341   5.995   0.900   2.503  0.2295  0.1635  0.1876
   30MOL   H164 8342   5.941   0.570   2.472  0.7777 -0.2426 -0.5611
   30MOL   H165 8343   6.150   0.555   2.604 -1.9447 -1.0762  1.1667
   30MOL   H166 8344   6.343   0.871   2.708 -0.9924 -0.0091  0.0422
   30MOL   H167 8345   6.313   0.568   2.714 -0.0575  0.1967  1.3601
   30MOL   H168 8346   6.162   0.992   2.602  0.5535  0.6769  1.5422
   30MOL   H169 8347   5.956   0.995   2.470  4.3614  1.6576 -0.7680
   30MOL   C170 8348   6.492   0.653   2.796 -0.0995  0.4188 -0.4142
   30MOL   C171 8349   6.530   0.527   2.851 -0.5546  0.8561  0.2445
   30MOL   C172 8350   6.653   0.509   2.922 -0.2592  0.1399  0.6060
   30MOL   C173 8351   6.741   0.621   2.926  0.0313  0.6758 -0.4867
   30MOL   C174 8352   6.869   0.615   2.998 -0.2802 -0.1924 -0.1721
   30MOL   C175 8353   6.942   0.504   3.041  0.1492 -0.6933 -0.4176
   30MOL   C176 8354   6.700   0.743   2.864  0.5781 -0.1020 -0.0893
   30MOL   C177 8355   6.576   0.760   2.793  0.1831  0.5639  0.1523
   30MOL   H178 8356   6.469   0.439   2.834 -0.0287  0.0867  2.1381
   30MOL   H179 8357   6.676   0.412   2.964 -1.0164  1.1410  3.4344
   30MOL   H180 8358   6.922   0.704   3.029 -0.9884 -0.1352  0.9149
   30MOL   H181 8359   6.895   0.411   3.014 -1.9433 -0.5456  2.4856
   30MOL   H182 8360   6.766   0.828   2.872  0.4852  0.1163 -1.6173
   30MOL   H183 8361   6.543   0.857   2.758 -4.9623 -1.1328 -0.1279
   30MOL   C184 8362   7.075   0.498   3.108 -0.0370  0.1572 -0.3635
   30MOL   C185 8363   7.144   0.618   3.145  0.1027 -0.0457 -0.0395
   30MOL   C186 8364   7.271   0.601   3.212 -0.1996  1.0203  0.4584
   30MOL   C187 8365   7.327   0.474   3.235 -0.1831  0.2249  0.3506
   30MOL   C188 8366   7.461   0.460   3.301 -0.0297 -0.4006  0.0057
   30MOL   C189 8367   7.524   0.336   3.323  0.2893  0.2100  0.3933
   30MOL   C190 8368   7.265   0.362   3.180  0.2500  0.0448 -0.3587
   30MOL   C191 8369   7.145   0.374   3.111  0.1842  0.1130  0.2433
   30MOL   H192 8370   7.097   0.714   3.137 -0.1486 -0.0653  1.2027
   30MOL   H193 8371   7.317   0.691   3.250 -1.6176  2.4747 -1.2147
   30MOL   H194 8372   7.507   0.555   3.325 -1.6960  0.2402  0.6785
   30MOL   H195 8373   7.488   0.238   3.296 -4.3378  1.5686  1.2940
   30MOL   H196 8374   7.308   0.263   3.182 -0.9135 -0.4498  2.3575
   30MOL   H197 8375   7.096   0.286   3.073 -0.7634  1.0727 -0.7777
   30MOL   C198 8376   7.660   0.317   3.377 -0.8173  0.1367  1.0319
   30MOL   C199 8377   7.751   0.420   3.397  0.1923 -0.5497 -0.5439
   30MOL   C200 8378   7.873   0.397   3.452  0.6718  0.0878 -0.0826
   30MOL   C201 8379   7.908   0.263   3.495  0.1965 -0.6610  0.3411
   30MOL   C202 8380   8.038   0.248   3.570 -0.7514  0.0469  0.1437
   30MOL   C203 8381   8.086   0.131   3.608 -0.3823 -0.0320 -0.2178
   30MOL   C204 8382   7.818   0.158   3.461 -0.0853  0.2389 -0.1737
   30MOL   C205 8383   7.697   0.183   3.409  0.1845  0.2882  0.4395
   30MOL   H206 8384   7.724   0.521   3.373 -0.9474  0.0738  3.0338
   30MOL   H207 8385   7.949   0.474   3.463  1.1307 -0.2420 -0.9090
   30MOL   H208 8386   8.095   0.340   3.579 -0.5566 -0.1141  0.5680
   30MOL   H209 8387   8.028   0.041   3.593 -2.0733  0.9929 -0.0250
   30MOL   H210 8388   7.845   0.054   3.471 -1.3090  0.0043  0.7121
   30MOL   H211 8389   7.641   0.099   3.369  1.5715  0.1852 -1.3474
   30MOL   C212 8390   0.075   0.118   3.672  0.2679 -0.3376  0.0755
   30MOL   C213 8391   0.174   0.218   3.670 -0.0626  0.0504 -0.8862
   30MOL   C214 8392   0.291   0.197   3.742 -0.1836  0.2406 -0.1042
   30MOL   C215 8393   0.311   0.094   3.834 -0.8671 -0.0170  0.2922
   30MOL   C216 8394   0.420   0.093   3.933 -0.7098 -0.1464 -0.7248
   30MOL   C217 8395   0.481   8.137   4.005  0.6571  0.9406 -0.3373
   30MOL   C218 8396   0.213   8.136   3.828 -0.3901 -0.3881  0.3701
   30MOL   C219 8397   0.111   8.139   3.736  0.2960  0.0102  0.1720
   30MOL   H220 8398   0.164   0.303   3.603 -0.5033 -1.7682 -3.1867
   30MOL   H221 8399   0.370   0.270   3.729  1.0274 -0.9529  0.4209
   30MOL   H222 8400   0.462   0.190   3.954 -2.7885  0.2432  1.9499
   30MOL   H223 8401   0.446   8.036   3.986 -0.9544  1.2620  0.7814
   30MOL   H224 8402   0.215   8.055   3.900 -0.4597 -0.1206  0.6731
   30MOL   H225 8403   0.046   8.053   3.733  1.7295 -1.0742 -1.3607
   30MOL   C226 8404   0.593   0.004   4.104  0.2507  0.0598 -0.1012
   30MOL   C227 8405   0.648   8.029   4.153 -0.5999  0.0149  0.0763
   30MOL   C228 8406   0.759   8.038   4.242 -0.3319 -0.2220 -0.0134
   30MOL   C229 8407   0.811   0.029   4.279  0.2089  0.5764  0.1531
   30MOL   C230 8408   0.925   0.049   4.372  0.1801  0.3327  0.0856
   30MOL   C231 8409   1.000   8.089   4.429  0.6635  0.6403  0.2151
   30MOL   C232 8410   0.753   0.141   4.219  0.2250  0.3101  0.0928
   30MOL   C233 8411   0.649   0.132   4.130  0.2276 -0.3395  0.4737
   30MOL   H234 8412   0.613   7.932   4.121 -3.2256  1.5909 -2.1464
   30MOL   H235 8413   0.812   7.957   4.289 -1.6692 -0.0454  1.9007
   30MOL   H236 8414   0.956   0.148   4.400 -0.1273  0.3821  0.2480
   30MOL   H237 8415   0.979   7.987   4.401 -0.6592  1.4040 -1.7022
   30MOL   H238 8416   0.779   0.244   4.241  1.0864  0.4299 -1.4199
   30MOL   H239 8417   0.612   0.224   4.088 -2.6004 -1.5701  0.1651
   30MOL   C240 8418   1.112   8.117   4.528 -0.7060  1.1497  0.8871
   30MOL   C241 8419   1.168   0.096   4.563  0.6227 -0.4257  0.5762
   30MOL   C242 8420   1.272   0.104   4.654  0.1175  0.0834  0.1493
   30MOL   C243 8421   1.312   8.140   4.732  0.5308  0.5652  0.3708
   30MOL   C244 8422   1.417   8.143   4.837 -0.1866 -0.0847  0.3124
   30MOL   C245 8423   1.524   0.078   4.814  0.1238  0.1173  0.0448
   30MOL   C246 8424   1.256   8.014   4.712 -0.2122 -0.5805  0.5079
   30MOL   C247 8425   1.163   8.005   4.603 -0.5024  0.4778  0.2869
   30MOL   H248 8426   1.148   0.183   4.501 -1.3564 -1.4006 -0.1921
   30MOL   H249 8427   1.315   0.202   4.664 -0.5274  0.3274  0.5207
   30MOL   H250 8428   1.409   8.079   4.924 -0.4695 -0.2714  0.1498
   30MOL   H251 8429   1.529   0.148   4.732  0.5595  0.0514  0.0104
   30MOL   H252 8430   1.284   7.926   4.767  0.2771 -1.8847 -1.7761
   30MOL   H253 8431   1.115   7.913   4.574  3.0254 -0.7592 -1.9416
   30MOL   C254 8432   1.646   0.093   4.900 -0.4652  0.5821 -0.1261
   30MOL   C255 8433   1.753   0.169   4.847  0.7037  0.0604 -0.5401
   30MOL   C256 8434   1.877   0.170   4.918  0.2182  0.0578  0.0072
   30MOL   C257 8435   1.891   0.118   5.048 -0.4103 -0.5498 -0.1083
   30MOL   C258 8436   2.013   0.113   5.126 -0.0390  0.1198  0.2317
   30MOL   C259 8437   2.142   0.120   5.083 -0.6645  0.0190  0.5041
   30MOL   C260 8438   1.783   0.055   5.099  1.2443  0.5170 -0.3985
   30MOL   C261 8439   1.661   0.026   5.024 -0.2855  0.4196  0.3252
   30MOL   H262 8440   1.734   0.220   4.754 -0.7486  2.3333  0.9381
   30MOL   H263 8441   1.962   0.221   4.874 -0.7080  1.4653 -0.1994
   30MOL   H264 8442   2.008   0.107   5.234 -1.0610  0.7448  0.2236
   30MOL   H265 8443   2.221   0.115   5.157 -0.1539  2.8154  0.2121
   30MOL   H266 8444   1.800   8.144   5.190  0.4329 -0.8903 -1.0892
   30MOL   H267 8445   1.576   8.115   5.062 -0.4308 -0.0597 -0.6535
   30MOL   C268 8446   2.190   0.131   4.944  0.4058 -0.8219 -0.4107
   30MOL   C269 8447   2.238   0.252   4.894  0.8249 -0.0581 -0.8432
   30MOL   C270 8448   2.276   0.266   4.759 -0.8250  0.5781  0.1194
   30MOL   C271 8449   2.273   0.153   4.675 -0.4432 -0.2222 -0.3706
   30MOL   C272 8450   2.318   0.168   4.536  0.0236 -1.2160  0.3665
   30MOL   C273 8451   2.341   0.283   4.467 -0.5461  0.1974 -0.0532
   30MOL   C274 8452   2.231   0.028   4.718  0.2640 -1.2070 -0.0422
   30MOL   C275 8453   2.188   0.019   4.852  0.2788  0.0775  0.5337
   30MOL   H276 8454   2.241   0.335   4.963 -0.3621 -0.4581 -0.2994
   30MOL   H277 8455   2.313   0.357   4.716  1.0324  0.3525  1.1623
   30MOL   H278 8456   2.323   0.073   4.486 -1.3098 -1.9919  1.6797
   30MOL   H279 8457   2.344   0.385   4.503  1.0722 -0.5952  2.2197
   30MOL   H280 8458   2.219   8.092   4.647 -0.6456  0.2356 -1.5614
   30MOL   H281 8459   2.146   8.068   4.879 -2.4856  1.3503  1.0008
   30MOL   H282 8460   2.368   0.266   4.364  3.5001  2.0921  0.5732
   31MOL     C1 8461   1.575   4.639   7.166  0.3673  0.0314  0.5550
   31MOL     C2 8462   1.556   4.767   7.230 -0.1023  0.1259  0.1773
   31MOL     C3 8463   1.425   4.809   7.264  0.7417 -0.0235  0.5265
   31MOL     C4 8464   1.311   4.731   7.237 -0.2467  0.2202  0.0267
   31MOL     C5 8465   1.175   4.778   7.279 -0.0528  0.5605  0.3852
   31MOL     C6 8466   1.060   4.710   7.257  0.3331 -0.5428 -0.4039
   31MOL     C7 8467   1.337   4.597   7.194 -0.3491  1.1589 -0.2254
   31MOL     C8 8468   1.465   4.552   7.153 -0.3385  0.2945 -0.3133
   31MOL     H9 8469   1.637   4.830   7.264  1.4283 -0.8298 -1.6168
   31MOL    H10 8470   1.415   4.907   7.309  0.0712 -0.0957  0.5385
   31MOL    H11 8471   1.172   4.872   7.332  0.4096  0.3263  0.8262
   31MOL    H12 8472   1.073   4.616   7.205 -1.9548  1.1483 -4.2866
   31MOL    H13 8473   1.258   4.523   7.193  0.3049  0.4386  0.7111
   31MOL    H14 8474   1.478   4.459   7.100  2.0872 -0.2780  1.1611
   31MOL    H15 8475   1.671   4.608   7.128  0.2508 -0.6250  0.7925
   31MOL    C16 8476   0.927   4.750   7.298 -0.1025 -0.2468  0.0048
   31MOL    C17 8477   0.899   4.863   7.381  0.5579 -0.1073  0.5061
   31MOL    C18 8478   0.767   4.873   7.427  1.0230 -0.4249  0.3619
   31MOL    C19 8479   0.663   4.783   7.391 -0.0169  0.3799 -0.5222
   31MOL    C20 8480   0.530   4.803   7.462 -0.5755  0.1294  0.3404
   31MOL    C21 8481   0.428   4.714   7.459  0.0289 -0.1248  0.2154
   31MOL    C22 8482   0.696   4.674   7.305  0.6094 -0.1567 -0.4907
   31MOL    C23 8483   0.822   4.658   7.259 -0.3920  0.0732 -0.2838
   31MOL    H24 8484   0.978   4.928   7.415  1.7420 -0.7799 -0.9018
   31MOL    H25 8485   0.755   4.954   7.497  0.3361  1.4117 -1.7978
   31MOL    H26 8486   0.520   4.899   7.511  0.7047  1.1142 -1.2408
   31MOL    H27 8487   0.444   4.625   7.399  1.0051 -0.2393  0.6397
   31MOL    H28 8488   0.627   4.596   7.277 -0.7368  0.4304  1.1244
   31MOL    H29 8489   0.835   4.570   7.198  1.5514  0.4851 -0.4980
   31MOL    C30 8490   0.301   4.727   7.529 -0.7249  0.3081  0.6544
   31MOL    C31 8491   0.241   4.856   7.525 -0.6146  0.6830  0.4748
   31MOL    C32 8492   0.112   4.871   7.577  0.4260  0.5220  0.1053
   31MOL    C33 8493   0.040   4.761   7.627 -0.0014 -0.8488 -0.6675
   31MOL    C34 8494   8.045   4.773   7.674  1.0504 -0.0448 -0.0376
   31MOL    C35 8495   7.961   4.872   7.645 -0.0057 -0.5990  0.4237
   31MOL    C36 8496   0.109   4.636   7.638 -0.5378  0.3882 -0.2022
   31MOL    C37 8497   0.239   4.616   7.586 -0.5555  0.5217 -0.4798
   31MOL    H38 8498   0.282   4.938   7.467 -1.1533  1.1342  0.7195
   31MOL    H39 8499   0.074   4.972   7.576  3.2467  1.7076  2.7874
   31MOL    H40 8500   8.003   4.695   7.734  0.2721  4.3361  5.5385
   31MOL    H41 8501   7.993   4.956   7.585  2.1226 -0.2420  2.0187
   31MOL    H42 8502   0.066   4.551   7.689 -1.5961  1.6811  1.1024
   31MOL    H43 8503   0.281   4.517   7.574 -2.5743 -0.7706  2.6085
   31MOL    C44 8504   7.816   4.880   7.670  0.3403 -0.1813 -0.2181
   31MOL    C45 8505   7.754   4.766   7.725 -0.0109  0.3598 -0.4842
   31MOL    C46 8506   7.617   4.770   7.752  0.7910  0.3738  0.2037
   31MOL    C47 8507   7.533   4.876   7.713  0.2152  0.5155  0.6491
   31MOL    C48 8508   7.388   4.877   7.735  0.2682  1.1381 -0.0206
   31MOL    C49 8509   7.309   4.776   7.766  0.0099 -0.4782 -0.1583
   31MOL    C50 8510   7.595   4.988   7.657 -0.2714  0.0168 -0.9125
   31MOL    C51 8511   7.732   4.992   7.637 -0.7932  0.0025 -0.1059
   31MOL    H52 8512   7.807   4.681   7.765  1.6356  1.3425 -0.5186
   31MOL    H53 8513   7.559   4.693   7.801 -1.4046  0.4854 -2.1054
   31MOL    H54 8514   7.344   4.974   7.715 -3.1607 -0.7594 -2.1949
   31MOL    H55 8515   7.350   4.676   7.775 -0.5644 -0.6374  0.8758
   31MOL    H56 8516   7.530   5.069   7.625 -0.9243 -0.6108 -1.2057
   31MOL    H57 8517   7.767   5.081   7.585  1.1670 -1.1070 -0.7299
   31MOL    C58 8518   7.165   4.778   7.781  0.3771 -0.4893  0.6495
   31MOL    C59 8519   7.096   4.681   7.858 -0.8367 -0.1648 -0.0202
   31MOL    C60 8520   6.956   4.691   7.880  0.2220 -0.6331  0.7430
   31MOL    C61 8521   6.892   4.802   7.819  0.0937 -0.5281 -0.0837
   31MOL    C62 8522   6.744   4.812   7.825 -0.6006 -0.7248  0.5066
   31MOL    C63 8523   6.663   4.887   7.748  0.2860 -0.3077  0.4560
   31MOL    C64 8524   6.965   4.897   7.737 -0.0220  0.0015  0.2217
   31MOL    C65 8525   7.098   4.879   7.710 -0.0026 -0.4446 -0.0931
   31MOL    H66 8526   7.158   4.607   7.907  0.8142  1.4853  0.4271
   31MOL    H67 8527   6.892   4.622   7.933  0.4608  0.2555  2.2031
   31MOL    H68 8528   6.693   4.751   7.897 -1.4961 -1.4075 -0.6855
   31MOL    H69 8529   6.701   4.952   7.672  2.7024 -1.0292  1.0232
   31MOL    H70 8530   6.919   4.983   7.688  2.0943  1.1527  0.2036
   31MOL    H71 8531   7.153   4.952   7.654  0.3666  1.3466  2.5249
   31MOL    C72 8532   6.516   4.890   7.755  0.4078  0.0696 -0.4305
   31MOL    C73 8533   6.438   4.913   7.641  0.1084 -0.2882  0.3399
   31MOL    C74 8534   6.298   4.914   7.645 -0.2802  0.2164  0.2430
   31MOL    C75 8535   6.231   4.869   7.761 -0.3368 -0.2994 -0.0732
   31MOL    C76 8536   6.088   4.852   7.766  0.2579  0.2897  0.3044
   31MOL    C77 8537   6.015   4.820   7.871  0.5989 -0.6220  0.3045
   31MOL    C78 8538   6.312   4.846   7.876  0.3809  0.4218  0.0054
   31MOL    C79 8539   6.446   4.861   7.875 -1.0096  0.6098  0.2778
   31MOL    H80 8540   6.495   4.937   7.553 -0.9343  2.3380  0.3258
   31MOL    H81 8541   6.240   4.949   7.560  1.0411  0.1750 -0.6975
   31MOL    H82 8542   6.035   4.872   7.674 -1.1220 -3.2250  0.2384
   31MOL    H83 8543   6.073   4.801   7.960  2.0362  0.1922 -0.4573
   31MOL    H84 8544   6.263   4.806   7.964 -0.6604 -0.1234 -0.8125
   31MOL    H85 8545   6.494   4.828   7.966  4.3924 -1.5900 -3.0983
   31MOL    C86 8546   5.872   4.808   7.874 -0.2114 -0.0840  0.4233
   31MOL    C87 8547   5.822   4.775   8.003  1.3237 -0.6543  0.1946
   31MOL    C88 8548   5.681   4.754   8.015 -0.0330  0.4993 -0.1932
   31MOL    C89 8549   5.591   4.771   7.911 -0.2065  0.5777  0.1445
   31MOL    C90 8550   5.448   4.761   7.933  0.1126 -0.4870 -0.1219
   31MOL    C91 8551   5.353   4.807   7.849  0.4398 -0.3239  0.3411
   31MOL    C92 8552   5.644   4.806   7.783  0.3084  0.5381 -0.0328
   31MOL    C93 8553   5.783   4.826   7.764  0.3341  0.7324 -0.0627
   31MOL    H94 8554   5.895   4.762   8.081  1.8078 -3.0283 -0.6144
   31MOL    H95 8555   5.653   4.715   8.112  0.2907 -2.8805 -1.3957
   31MOL    H96 8556   5.415   4.728   8.030  2.2839  0.7707  1.0890
   31MOL    H97 8557   5.384   4.828   7.747  1.7360  0.4380  0.8834
   31MOL    H98 8558   5.577   4.818   7.699 -1.6146 -0.0383  1.3836
   31MOL    H99 8559   5.817   4.856   7.666 -0.4018 -2.1098 -1.2348
   31MOL   C100 8560   5.212   4.829   7.899 -0.1658 -0.3908 -0.1888
   31MOL   C101 8561   5.183   4.831   8.036 -0.1022 -0.5146 -0.4398
   31MOL   C102 8562   5.048   4.827   8.077 -0.4251  0.1255  0.5558
   31MOL   C103 8563   4.939   4.809   7.986  0.1633  0.4485  0.6114
   31MOL   C104 8564   4.792   4.827   8.015  0.2757  0.7239 -0.0179
   31MOL   C105 8565   4.752   4.888   8.127 -0.1053  0.2576 -0.2631
   31MOL   C106 8566   4.974   4.804   7.844 -0.1263 -0.0348  0.2271
   31MOL   C107 8567   5.109   4.804   7.803 -0.1003  0.2364 -0.1418
   31MOL   H108 8568   5.246   4.844   8.123  0.8564 -0.0342 -1.1855
   31MOL   H109 8569   5.027   4.835   0.038 -0.8841  0.0779  0.4698
   31MOL   H110 8570   4.715   4.795   7.946  0.9210 -2.6398  0.7277
   31MOL   H111 8571   4.831   4.919   0.050 -0.9611 -3.0855  2.4618
   31MOL   H112 8572   4.896   4.808   7.770 -0.2909  0.4838  0.4258
   31MOL   H113 8573   5.134   4.783   7.700  0.1401 -0.0654 -0.0215
   31MOL   C114 8574   4.608   4.925   0.019  0.4580 -0.2697  0.5114
   31MOL   C115 8575   4.590   4.999   0.137 -0.4043 -1.1628 -1.0825
   31MOL   C116 8576   4.458   5.039   0.169  0.1331 -0.3040  0.3037
   31MOL   C117 8577   4.347   5.008   0.083 -0.2747 -0.3742 -0.2794
   31MOL   C118 8578   4.213   5.054   0.105  0.2038  0.0727 -0.1296
   31MOL   C119 8579   4.161   5.131   0.206  0.8067  0.3115 -0.5765
   31MOL   C120 8580   4.374   4.934   8.109  0.0018 -0.2010 -0.7209
   31MOL   C121 8581   4.502   4.885   8.078 -0.3971  0.2243  0.1687
   31MOL   H122 8582   4.672   5.016   0.204 -0.4411 -2.0431 -0.8171
   31MOL   H123 8583   4.446   5.095   0.260 -1.7147  1.2300 -0.8521
   31MOL   H124 8584   4.151   5.025   0.022 -1.0728 -0.6269  1.0605
   31MOL   H125 8585   4.224   5.169   0.285 -0.3950 -0.2981  0.6874
   31MOL   H126 8586   4.295   4.920   8.037 -1.0684 -1.9466  0.7368
   31MOL   H127 8587   4.527   4.837   7.985  3.5151 -2.6029  2.5015
   31MOL   C128 8588   4.024   5.186   0.205 -0.5642  0.0509  0.1812
   31MOL   C129 8589   3.916   5.109   0.157  0.0525  0.5411  0.6677
   31MOL   C130 8590   3.784   5.159   0.151 -0.2462 -0.5490  0.5908
   31MOL   C131 8591   3.763   5.295   0.180 -0.0465  0.0561  0.4765
   31MOL   C132 8592   3.638   5.358   0.139  0.4743  0.3713  0.3537
   31MOL   C133 8593   3.619   5.493   0.122  0.8288  0.7872 -0.3903
   31MOL   C134 8594   3.867   5.373   0.236  0.0031  0.0681  0.7680
   31MOL   C135 8595   4.002   5.318   0.244  0.4954  0.1043  0.2471
   31MOL   H136 8596   3.931   5.008   0.124 -2.6017  0.7805 -1.3748
   31MOL   H137 8597   3.707   5.093   0.115 -1.9865  0.6209  2.0695
   31MOL   H138 8598   3.557   5.287   0.137  0.3399  0.5264  0.2283
   31MOL   H139 8599   3.707   5.556   0.118 -0.5723  2.8511  0.1843
   31MOL   H140 8600   3.852   5.478   0.254 -4.3758 -0.0467 -1.6484
   31MOL   H141 8601   4.089   5.371   0.282  2.3196 -1.3450 -1.8342
   31MOL   C142 8602   3.488   5.556   0.095 -0.4776  0.3227 -0.1614
   31MOL   C143 8603   3.366   5.483   0.093  0.1980  0.4301 -0.2588
   31MOL   C144 8604   3.244   5.539   0.061  0.1882  0.1269 -0.2098
   31MOL   C145 8605   3.239   5.680   0.032 -0.8353  0.4078  0.1257
   31MOL   C146 8606   3.118   5.748   8.131 -0.1402  0.1294  0.9056
   31MOL   C147 8607   2.997   5.699   0.010  0.4539 -0.0746  1.1331
   31MOL   C148 8608   3.359   5.755   0.029  0.5887 -0.5833 -0.4729
   31MOL   C149 8609   3.487   5.692   0.062 -0.5840 -0.3768 -0.4095
   31MOL   H150 8610   3.359   5.379   0.121 -1.4194  1.0269  1.6632
   31MOL   H151 8611   3.150   5.486   0.059  1.0289 -1.4328  0.5470
   31MOL   H152 8612   3.133   5.843   8.084 -1.7555  1.0672  2.2198
   31MOL   H153 8613   2.977   5.606   0.062 -1.1820  1.2738  3.0257
   31MOL   H154 8614   3.353   5.859   8.144 -0.6006 -0.3344  0.6127
   31MOL   H155 8615   3.578   5.749   0.060 -1.0938  0.4341 -0.4500
   31MOL   C156 8616   2.870   5.756   8.115  1.0286 -0.1341  0.1058
   31MOL   C157 8617   2.859   5.878   8.043 -0.4694 -0.6350 -0.4144
   31MOL   C158 8618   2.736   5.929   7.998  0.7485 -0.3358 -0.1332
   31MOL   C159 8619   2.618   5.851   8.021  0.4305 -0.3128 -0.0577
   31MOL   C160 8620   2.490   5.910   7.983 -0.7368  0.8690 -0.4726
   31MOL   C161 8621   2.476   5.974   7.864  0.3825 -0.7678  0.3643
   31MOL   C162 8622   2.624   5.721   8.079  0.1046 -0.8740 -0.4595
   31MOL   C163 8623   2.750   5.679   8.129  0.5938 -0.0507  0.0158
   31MOL   H164 8624   2.946   5.942   8.029 -0.4772 -0.7475 -0.9865
   31MOL   H165 8625   2.728   6.031   7.964 -0.4891 -0.6924 -0.9143
   31MOL   H166 8626   2.410   5.909   8.055  0.0847  2.1369  0.4954
   31MOL   H167 8627   2.562   5.985   7.800  0.4312 -0.0260  0.5494
   31MOL   H168 8628   2.534   5.667   8.105  0.7006 -0.4472  2.5869
   31MOL   H169 8629   2.758   5.583   0.032  2.2153  0.3296  0.5452
   31MOL   C170 8630   2.354   6.039   7.817  0.0327 -0.3600  0.2515
   31MOL   C171 8631   2.283   6.130   7.900 -0.3867 -0.2707  0.0498
   31MOL   C172 8632   2.174   6.205   7.857  0.1561  0.2470  0.0899
   31MOL   C173 8633   2.126   6.185   7.724 -0.5189  0.1892  0.2392
   31MOL   C174 8634   2.017   6.260   7.661 -0.2167  0.0443 -0.3533
   31MOL   C175 8635   1.969   6.375   7.713  0.4110 -0.2031 -0.9952
   31MOL   C176 8636   2.199   6.096   7.641  0.7696  0.4879  0.4842
   31MOL   C177 8637   2.315   6.029   7.685  0.5838 -0.0709  0.4108
   31MOL   H178 8638   2.324   6.137   8.000  1.8011 -2.1103 -0.6931
   31MOL   H179 8639   2.115   6.258   7.929 -1.8271 -0.9136 -0.6501
   31MOL   H180 8640   1.982   6.213   7.570 -0.0157 -0.3028 -0.2549
   31MOL   H181 8641   2.009   6.404   7.809  0.7158  0.2803 -1.2657
   31MOL   H182 8642   2.181   6.092   7.534 -0.7955 -0.1635  0.7629
   31MOL   H183 8643   2.380   5.978   7.615 -0.3652  1.2292 -1.4678
   31MOL   C184 8644   1.879   6.475   7.652  0.0858  0.8361 -0.4425
   31MOL   C185 8645   1.810   6.568   7.737  0.3420  0.1290  0.2497
   31MOL   C186 8646   1.720   6.664   7.679 -0.2733  0.3129 -0.1638
   31MOL   C187 8647   1.703   6.665   7.541 -0.0753 -0.3125  0.8898
   31MOL   C188 8648   1.633   6.771   7.470 -1.0066 -0.1472 -0.1775
   31MOL   C189 8649   1.574   6.881   7.527 -0.6587 -0.0637 -0.1753
   31MOL   C190 8650   1.758   6.564   7.461  0.2850 -0.3771 -0.5623
   31MOL   C191 8651   1.853   6.474   7.511  0.2846  0.0014 -0.2634
   31MOL   H192 8652   1.819   6.558   7.844 -1.3391 -0.1977  0.3703
   31MOL   H193 8653   1.671   6.736   7.743 -2.9371 -1.9216  0.3897
   31MOL   H194 8654   1.624   6.765   7.363 -0.0135  1.4261 -0.3650
   31MOL   H195 8655   1.574   6.910   7.630 -2.5517  1.2500 -0.5329
   31MOL   H196 8656   1.732   6.553   7.357  1.0144  2.4019 -1.0861
   31MOL   H197 8657   1.900   6.398   7.451 -0.5650 -0.6494 -0.1142
   31MOL   C198 8658   1.512   6.983   7.436  0.0939 -0.0613 -0.1492
   31MOL   C199 8659   1.544   6.995   7.295  0.2638 -0.0539 -0.5699
   31MOL   C200 8660   1.459   7.071   7.208 -0.8608 -0.5686 -0.3435
   31MOL   C201 8661   1.358   7.153   7.264 -0.0723 -1.0023  0.1927
   31MOL   C202 8662   1.274   7.223   7.171 -0.5851  0.6380 -0.1723
   31MOL   C203 8663   1.185   7.316   7.202  0.2969 -0.4720 -0.3143
   31MOL   C204 8664   1.343   7.159   7.404 -0.8753 -0.5209 -0.5828
   31MOL   C205 8665   1.411   7.064   7.490 -0.2787 -0.2894  0.4970
   31MOL   H206 8666   1.618   6.946   7.234  0.0693 -1.5822  0.3956
   31MOL   H207 8667   1.475   7.073   7.101  0.9663 -1.7879 -0.1143
   31MOL   H208 8668   1.292   7.192   7.069  0.9997  3.3974 -0.8032
   31MOL   H209 8669   1.174   7.344   7.306  0.1717  2.8808 -1.1732
   31MOL   H210 8670   1.265   7.221   7.443 -0.7901 -0.6948 -0.1266
   31MOL   H211 8671   1.378   7.063   7.592  0.1051 -1.4319  0.6154
   31MOL   C212 8672   1.113   7.398   7.102  0.0808  0.9064 -0.2049
   31MOL   C213 8673   1.125   7.368   6.964 -0.6977  0.2859  0.0947
   31MOL   C214 8674   1.056   7.437   6.864  0.2477 -0.3522 -0.6313
   31MOL   C215 8675   0.982   7.552   6.897  0.1749  0.7485 -0.0554
   31MOL   C216 8676   0.912   7.625   6.790 -0.0112 -0.3983  0.3816
   31MOL   C217 8677   0.924   7.597   6.658 -0.9844 -0.6190 -0.0944
   31MOL   C218 8678   0.968   7.588   7.030 -0.4357  0.0825 -0.3640
   31MOL   C219 8679   1.022   7.506   7.129 -0.9556  0.5640 -0.0357
   31MOL   H220 8680   1.195   7.295   6.926 -1.9056 -1.8928  1.9643
   31MOL   H221 8681   1.084   7.411   6.763  4.9238  1.4346  0.0714
   31MOL   H222 8682   0.843   7.703   6.819  0.0266 -0.5066  0.7738
   31MOL   H223 8683   0.987   7.519   6.618  0.2197  0.8752 -1.2249
   31MOL   H224 8684   0.915   7.674   7.068  2.2822  1.9393 -0.6289
   31MOL   H225 8685   0.990   7.524   7.231 -1.3497  1.5052 -0.3130
   31MOL   C226 8686   0.841   7.667   6.553  0.2384 -0.7247 -0.3027
   31MOL   C227 8687   0.897   7.673   6.423 -0.2066 -0.1009 -0.0750
   31MOL   C228 8688   0.836   7.768   6.338 -0.2085 -1.2969 -0.5139
   31MOL   C229 8689   0.722   7.846   6.378  0.1893 -0.1548  0.5378
   31MOL   C230 8690   0.660   7.943   6.289 -0.1560  0.2155  0.2974
   31MOL   C231 8691   0.737   8.027   6.217 -0.6737  0.5785 -0.2868
   31MOL   C232 8692   0.650   7.811   6.498  0.3395  0.4143 -0.2187
   31MOL   C233 8693   0.716   7.720   6.587 -0.0766 -0.2832  0.3969
   31MOL   H234 8694   0.997   7.641   6.400 -0.1799 -0.3350  0.3566
   31MOL   H235 8695   0.878   7.795   6.242  0.5356 -1.0103 -0.1141
   31MOL   H236 8696   0.554   7.931   6.277 -0.2470 -0.1540  1.4439
   31MOL   H237 8697   0.845   8.031   6.228 -0.9289  0.7591  2.3453
   31MOL   H238 8698   0.551   7.850   6.512 -0.9053 -2.0474 -1.8507
   31MOL   H239 8699   0.664   7.695   6.679 -0.0898  0.3977  0.5741
   31MOL   C240 8700   0.687   8.126   6.119  0.2233 -0.7938 -0.0635
   31MOL   C241 8701   0.755   0.106   6.107  0.3330  0.4733 -0.3349
   31MOL   C242 8702   0.702   0.201   6.026 -0.1510 -0.9044  0.5436
   31MOL   C243 8703   0.591   0.183   5.943  0.4673  0.7642  0.1885
   31MOL   C244 8704   0.553   0.287   5.846  1.0057 -0.5107 -0.4689
   31MOL   C245 8705   0.455   0.281   5.750  0.5366 -0.1135  0.0040
   31MOL   C246 8706   0.524   0.056   5.956  0.1362 -0.2297 -0.4863
   31MOL   C247 8707   0.567   8.105   6.052 -0.2014  0.5041  0.1491
   31MOL   H248 8708   0.846   0.124   6.161  1.1885  0.4815 -1.7562
   31MOL   H249 8709   0.743   0.300   6.036 -1.5521 -0.2559  0.0194
   31MOL   H250 8710   0.612   0.377   5.851  1.3402 -0.8235  1.7796
   31MOL   H251 8711   0.396   0.192   5.731 -0.7445  0.5183  0.9802
   31MOL   H252 8712   0.440   0.029   5.894 -0.0882 -1.6283  0.3999
   31MOL   H253 8713   0.524   8.007   6.058 -1.6486  1.2722  3.1681
   31MOL   C254 8714   0.424   0.403   5.660 -0.0931  0.3035  0.6086
   31MOL   C255 8715   0.485   0.529   5.671  0.1821 -0.5574 -0.2818
   31MOL   C256 8716   0.454   0.633   5.582 -0.1557  0.2185  0.1381
   31MOL   C257 8717   0.358   0.619   5.481 -0.1673 -0.6759  0.8576
   31MOL   C258 8718   0.318   0.727   5.391 -0.0452  0.1656 -0.0029
   31MOL   C259 8719   0.392   0.829   5.339  0.0123 -0.0056  0.1383
   31MOL   C260 8720   0.307   0.490   5.464  0.7149  0.5453  0.3110
   31MOL   C261 8721   0.333   0.384   5.552 -0.3187  0.0119 -0.0377
   31MOL   H262 8722   0.572   0.548   5.734  2.3102 -0.1921 -3.2335
   31MOL   H263 8723   0.501   0.730   5.592 -0.4950  0.4894 -0.8272
   31MOL   H264 8724   0.217   0.728   5.354 -0.1994 -2.4739  0.3115
   31MOL   H265 8725   0.334   0.891   5.273  0.4458 -2.6266 -2.8404
   31MOL   H266 8726   0.253   0.467   5.373 -0.8786  2.2996  0.7989
   31MOL   H267 8727   0.299   0.284   5.529 -0.6344  0.1928 -0.3582
   31MOL   C268 8728   0.537   0.858   5.361 -0.3841 -0.7717 -0.1903
   31MOL   C269 8729   0.643   0.773   5.329  0.4014  0.4066  0.2108
   31MOL   C270 8730   0.777   0.803   5.371 -0.5050  0.1203  0.0735
   31MOL   C271 8731   0.802   0.923   5.438 -0.4778  1.0663  0.1426
   31MOL   C272 8732   0.939   0.952   5.478 -0.5858  0.1808 -0.3383
   31MOL   C273 8733   0.984   1.040   5.570  0.0938  0.2205  0.4879
   31MOL   C274 8734   0.701   1.010   5.466  0.3953 -0.0690 -0.1783
   31MOL   C275 8735   0.566   0.982   5.427 -0.1676 -0.1548  0.2163
   31MOL   H276 8736   0.620   0.679   5.281 -1.4249  0.0966  1.6546
   31MOL   H277 8737   0.862   0.736   5.360  1.4382  2.4361  0.6471
   31MOL   H278 8738   1.016   0.894   5.428  0.0365  0.6173  0.1035
   31MOL   H279 8739   0.919   1.105   5.627 -1.3220 -0.1965 -0.6253
   31MOL   H280 8740   0.711   1.094   5.533 -0.4075 -0.5041  0.4997
   31MOL   H281 8741   0.492   1.051   5.464  0.4446  0.9025 -0.5109
   31MOL   H282 8742   1.091   1.038   5.585  0.1182  1.8209  0.6738
   32MOL     C1 8743   6.248   0.605   1.406  0.0570 -0.7212  0.8922
   32MOL     C2 8744   6.351   0.644   1.314 -0.3432  0.5756  0.1239
   32MOL     C3 8745   6.487   0.647   1.354  0.2278  0.6087 -0.6331
   32MOL     C4 8746   6.522   0.613   1.484 -0.4847  1.0381 -0.4278
   32MOL     C5 8747   6.663   0.628   1.522 -0.4821  0.3347  0.6541
   32MOL     C6 8748   6.723   0.565   1.622 -0.1143 -0.5651 -0.7431
   32MOL     C7 8749   6.409   0.574   1.571 -0.5236 -0.0122  0.1130
   32MOL     C8 8750   6.277   0.565   1.539  0.4576  0.4804 -0.5942
   32MOL     H9 8751   6.314   0.688   1.222  0.6915  1.4531  0.1157
   32MOL    H10 8752   6.559   0.689   1.285 -1.0052  1.5510 -1.3626
   32MOL    H11 8753   6.718   0.698   1.461 -1.9497  1.1779  0.2879
   32MOL    H12 8754   6.661   0.501   1.683 -0.9734  1.5457  0.6709
   32MOL    H13 8755   6.429   0.556   1.675  1.2723 -2.8617 -0.6586
   32MOL    H14 8756   6.200   0.558   1.614  3.0163 -2.3697  1.9473
   32MOL    H15 8757   6.145   0.613   1.376  0.2124  1.4646  0.8088
   32MOL    C16 8758   6.870   0.579   1.654 -0.3186  0.0607 -0.9130
   32MOL    C17 8759   6.912   0.525   1.779 -0.0897  0.1144 -0.3643
   32MOL    C18 8760   7.048   0.520   1.809  0.2107 -0.4487 -0.7781
   32MOL    C19 8761   7.140   0.582   1.723 -0.0546 -0.1473 -0.0600
   32MOL    C20 8762   7.285   0.582   1.751  0.0272 -0.0987  0.0702
   32MOL    C21 8763   7.346   0.532   1.864 -0.0818 -0.4186 -0.4413
   32MOL    C22 8764   7.091   0.646   1.609 -0.0123  0.1350 -0.0351
   32MOL    C23 8765   6.955   0.647   1.569  0.4142 -0.6393 -0.2421
   32MOL    H24 8766   6.844   0.489   1.854  0.0732  0.4993 -0.0337
   32MOL    H25 8767   7.078   0.483   1.906  1.5184 -0.9987 -1.3897
   32MOL    H26 8768   7.350   0.626   1.678 -0.3560  0.5151  0.0965
   32MOL    H27 8769   7.284   0.475   1.932 -2.3258  1.5273 -0.7711
   32MOL    H28 8770   7.157   0.688   1.535  0.3973  1.2363  0.9402
   32MOL    H29 8771   6.931   0.702   1.479 -0.5333  0.1814  0.5130
   32MOL    C30 8772   7.491   0.540   1.902 -0.3077 -0.3775  0.4421
   32MOL    C31 8773   7.534   0.499   2.029  1.2363  0.1859  0.5216
   32MOL    C32 8774   7.668   0.510   2.058 -0.3415 -0.1578  0.1250
   32MOL    C33 8775   7.768   0.545   1.962  0.2649 -0.2308  0.3294
   32MOL    C34 8776   7.911   0.530   1.987 -0.4698 -0.0922  0.2966
   32MOL    C35 8777   7.970   0.491   2.105 -0.1690 -0.6745  0.1275
   32MOL    C36 8778   7.724   0.596   1.845  1.4071  1.1574 -0.1860
   32MOL    C37 8779   7.589   0.589   1.809 -0.3777 -0.5699  0.0736
   32MOL    H38 8780   7.462   0.458   2.100  2.1914 -0.1101  1.3314
   32MOL    H39 8781   7.694   0.473   2.156  1.6164  0.4034 -0.1635
   32MOL    H40 8782   7.977   0.561   1.908  0.0232 -0.9093  0.3852
   32MOL    H41 8783   7.905   0.464   2.187 -1.6414  2.2130 -0.0390
   32MOL    H42 8784   7.792   0.633   1.770  0.3985  0.8570 -1.2609
   32MOL    H43 8785   7.553   0.629   1.715 -1.1661 -1.5156 -0.0458
   32MOL    C44 8786   8.115   0.480   2.126  0.3694  0.1812 -0.1005
   32MOL    C45 8787   0.061   0.567   2.061 -0.0787  0.5386  0.3901
   32MOL    C46 8788   0.200   0.548   2.056  0.4118 -0.1977 -0.2457
   32MOL    C47 8789   0.251   0.438   2.123 -0.2369 -0.1213 -0.1791
   32MOL    C48 8790   0.398   0.416   2.116  0.0895  0.1154  0.7457
   32MOL    C49 8791   0.461   0.294   2.111  0.5575  0.3501 -0.0768
   32MOL    C50 8792   0.170   0.344   2.189  0.1599  0.4630  0.2207
   32MOL    C51 8793   0.029   0.368   2.193 -0.5557  0.2974  0.3461
   32MOL    H52 8794   0.024   0.658   2.015 -0.7104  0.0841 -0.0251
   32MOL    H53 8795   0.266   0.614   2.002  0.0141 -0.1591 -0.6835
   32MOL    H54 8796   0.461   0.504   2.105 -0.7749  0.4104 -2.2166
   32MOL    H55 8797   0.397   0.210   2.132 -1.0621  1.4521 -0.5325
   32MOL    H56 8798   0.202   0.253   2.239 -0.4268 -0.2469 -0.6763
   32MOL    H57 8799   8.109   0.295   2.240  0.2369 -0.1989  0.6696
   32MOL    C58 8800   0.605   0.264   2.098  0.0138 -0.7866  0.4155
   32MOL    C59 8801   0.649   0.131   2.073  0.0213 -0.4380  0.5518
   32MOL    C60 8802   0.789   0.102   2.069  0.2748 -0.4914  0.7060
   32MOL    C61 8803   0.887   0.208   2.078  0.0705 -0.1810 -0.6775
   32MOL    C62 8804   1.027   0.184   2.051  0.0435  0.4599  0.6781
   32MOL    C63 8805   1.129   0.278   2.075  1.3450  0.2455  0.2008
   32MOL    C64 8806   0.840   0.333   2.117 -0.1556  0.0330  0.4251
   32MOL    C65 8807   0.707   0.360   2.135  0.9117  0.1165  1.4587
   32MOL    H66 8808   0.583   0.047   2.056  0.7307 -0.8825 -0.0086
   32MOL    H67 8809   0.827   0.003   2.049  0.7168 -0.3157  0.6675
   32MOL    H68 8810   1.044   0.088   2.005  1.0229  1.7914 -1.8375
   32MOL    H69 8811   1.113   0.377   2.116 -1.7594  0.2869 -0.9305
   32MOL    H70 8812   0.904   0.417   2.142  2.5552 -1.6917 -0.4761
   32MOL    H71 8813   0.689   0.463   2.163  1.6673  0.4331  0.7880
   32MOL    C72 8814   1.269   0.255   2.038 -0.6527  0.4648 -0.0376
   32MOL    C73 8815   1.321   0.131   2.008  0.1716  0.5556  0.4052
   32MOL    C74 8816   1.459   0.112   1.996  0.4667 -0.2469  0.2114
   32MOL    C75 8817   1.547   0.223   1.995  0.8647  0.1820 -0.3000
   32MOL    C76 8818   1.694   0.203   1.990  0.6332  0.4578 -0.1450
   32MOL    C77 8819   1.758   0.097   1.938  0.4800  0.0906 -0.6023
   32MOL    C78 8820   1.493   0.355   2.007 -0.0287 -1.0028 -0.9425
   32MOL    C79 8821   1.354   0.366   2.029 -0.1680  0.0796 -0.2871
   32MOL    H80 8822   1.257   0.044   2.006 -2.5658  2.5263 -0.9339
   32MOL    H81 8823   1.488   0.010   1.977  0.1471 -0.4092  0.5940
   32MOL    H82 8824   1.750   0.282   2.039 -0.0206 -0.0524  1.4484
   32MOL    H83 8825   1.697   0.029   1.881 -1.5683  1.9344 -0.6778
   32MOL    H84 8826   1.557   0.442   2.019 -3.0249  1.2231 -0.4935
   32MOL    H85 8827   1.315   0.462   2.056  0.1832  0.5954 -1.5614
   32MOL    C86 8828   1.903   0.066   1.950 -0.7216  0.0826 -0.9004
   32MOL    C87 8829   1.971   8.126   1.861 -0.3071 -0.0373  0.4498
   32MOL    C88 8830   2.105   8.090   1.878 -0.5291  0.7359  0.4997
   32MOL    C89 8831   2.182   0.007   1.985  0.5754  0.3500 -1.0194
   32MOL    C90 8832   2.331   8.134   1.997  0.6420 -0.0020 -0.6762
   32MOL    C91 8833   2.417   8.073   1.919  0.1034  0.1586 -0.4053
   32MOL    C92 8834   2.120   0.099   2.074 -0.0933 -0.0175  0.3806
   32MOL    C93 8835   1.978   0.123   2.058 -0.1427 -0.0718  0.2634
   32MOL    H94 8836   1.910   8.102   1.775  1.8723  1.5163 -1.6024
   32MOL    H95 8837   2.145   8.022   1.803  0.1100  3.0075 -1.2710
   32MOL    H96 8838   2.365   0.031   2.090  0.3275  0.5456 -0.8035
   32MOL    H97 8839   2.382   8.019   1.832 -0.8113 -1.1320  0.7387
   32MOL    H98 8840   2.171   0.148   2.155 -1.4737  0.3023  1.0731
   32MOL    H99 8841   1.935   0.189   2.132  0.7075  0.6971  0.0773
   32MOL   C100 8842   2.558   8.053   1.948  0.0705 -0.0825 -0.0110
   32MOL   C101 8843   2.619   8.099   2.069  0.4942  0.2886 -0.2748
   32MOL   C102 8844   2.756   8.083   2.087 -0.2432 -0.5825  0.0188
   32MOL   C103 8845   2.835   8.035   1.986  0.6525 -0.2289 -0.4282
   32MOL   C104 8846   2.981   8.028   2.010  0.9791 -0.2332 -0.4344
   32MOL   C105 8847   3.072   7.969   1.943  0.2962  0.4873 -0.2069
   32MOL   C106 8848   2.777   7.976   1.869 -0.1212 -0.3077 -0.1577
   32MOL   C107 8849   2.639   7.986   1.851  0.4168  0.3714  0.4273
   32MOL   H108 8850   2.565   8.139   2.153  0.5446  2.0037 -1.0310
   32MOL   H109 8851   2.801   8.111   2.182 -0.1455  0.9597 -0.4595
   32MOL   H110 8852   3.008   8.091   2.094 -0.2975 -0.0801 -0.1322
   32MOL   H111 8853   3.051   7.914   1.852 -0.9211  1.2656 -0.4073
   32MOL   H112 8854   2.838   7.931   1.793  0.8085  0.2316  0.2551
   32MOL   H113 8855   2.600   7.947   1.758 -2.4596  1.2797  1.2013
   32MOL   C114 8856   3.219   7.968   1.974 -0.4625  0.5468 -0.2571
   32MOL   C115 8857   3.262   7.999   2.103 -0.0035  0.0566 -0.0038
   32MOL   C116 8858   3.399   8.006   2.137 -0.3030 -0.3095 -0.2463
   32MOL   C117 8859   3.498   7.996   2.039  0.5194 -0.2735 -0.2970
   32MOL   C118 8860   3.640   8.000   2.082  0.8957 -0.7240 -0.5257
   32MOL   C119 8861   3.678   7.951   2.201 -0.1076 -0.0641  0.2417
   32MOL   C120 8862   3.454   7.972   1.907  0.1456 -0.6215 -1.0520
   32MOL   C121 8863   3.318   7.956   1.876  0.1744 -0.6373 -0.0599
   32MOL   H122 8864   3.191   8.014   2.182  0.0001  1.4373 -0.2468
   32MOL   H123 8865   3.423   8.028   2.240  1.2641  1.3360 -0.9418
   32MOL   H124 8866   3.714   8.056   2.026 -1.2826  1.8503 -0.9739
   32MOL   H125 8867   3.599   7.905   2.258 -2.3853  2.1125 -1.0597
   32MOL   H126 8868   3.527   7.982   1.828  0.3266 -0.4500 -0.8650
   32MOL   H127 8869   3.285   7.926   1.778 -2.8869  2.2335  0.0165
   32MOL   C128 8870   3.809   7.967   2.262  0.3928  0.1913 -0.3248
   32MOL   C129 8871   3.811   7.973   2.405 -0.6550  0.8684  0.1437
   32MOL   C130 8872   3.934   7.990   2.478  0.3275 -0.3800  0.7529
   32MOL   C131 8873   4.052   8.003   2.407 -0.1998  0.2088  0.2630
   32MOL   C132 8874   4.185   8.027   2.475 -0.2593  0.3097  0.2594
   32MOL   C133 8875   4.203   7.991   2.607  0.7762  1.0358  0.0531
   32MOL   C134 8876   4.053   7.994   2.264 -0.7157  0.4507 -0.2827
   32MOL   C135 8877   3.936   7.981   2.192  0.0323 -0.2979  0.0981
   32MOL   H136 8878   3.727   7.963   2.472 -2.1625  1.3181 -1.6537
   32MOL   H137 8879   3.929   7.999   2.586  3.8750 -1.5891  1.0718
   32MOL   H138 8880   4.262   8.073   2.414 -1.3012 -1.2655 -2.3067
   32MOL   H139 8881   4.130   7.934   2.662  0.6342  0.3943 -0.7875
   32MOL   H140 8882   4.147   8.014   2.215  0.3689 -0.4342  1.3940
   32MOL   H141 8883   3.935   7.977   2.084 -1.6544  1.1672  0.0271
   32MOL   C142 8884   4.323   8.009   2.689  0.1852 -0.1573  0.1492
   32MOL   C143 8885   4.309   8.024   2.833  0.0037 -0.3174 -0.1619
   32MOL   C144 8886   4.420   8.067   2.915 -0.6042  0.7850 -0.0436
   32MOL   C145 8887   4.541   8.100   2.849  0.4678  0.3279 -0.0004
   32MOL   C146 8888   4.653   8.141   2.929  0.2356 -0.4418 -0.6192
   32MOL   C147 8889   4.780   8.123   2.894 -0.3705 -0.3965 -0.5495
   32MOL   C148 8890   4.554   8.084   2.709  0.0360  1.0021 -0.4413
   32MOL   C149 8891   4.447   8.036   2.632 -0.0653  0.2400  0.1087
   32MOL   H150 8892   4.211   8.018   2.880 -0.1757  1.8921 -0.2040
   32MOL   H151 8893   4.405   8.099   3.017  0.5822 -0.2697  0.4701
   32MOL   H152 8894   4.632   0.030   3.030 -0.6663 -0.5871 -0.7511
   32MOL   H153 8895   4.807   8.067   2.806  1.6342  1.7270 -1.3458
   32MOL   H154 8896   4.648   8.104   2.659  0.8626  0.0912  0.7126
   32MOL   H155 8897   4.474   8.018   2.529  2.7540  2.3432  0.4357
   32MOL   C156 8898   4.897   0.020   2.984  0.1729  0.7478  0.1858
   32MOL   C157 8899   5.018   8.100   2.951  0.2485  0.4706  0.0409
   32MOL   C158 8900   5.137   8.118   3.024  0.2044 -0.8666 -0.7189
   32MOL   C159 8901   5.134   0.062   3.136 -0.0045 -0.3170 -0.0231
   32MOL   C160 8902   5.250   0.081   3.227  0.5262  0.3564 -0.4179
   32MOL   C161 8903   5.376   0.045   3.209 -0.7115  0.7379 -0.6227
   32MOL   C162 8904   5.009   0.118   3.172  0.3878  0.3385  0.6136
   32MOL   C163 8905   4.893   0.099   3.097  0.6883 -0.0702  0.1322
   32MOL   H164 8906   5.032   8.042   2.862 -1.9014  1.4005 -0.9469
   32MOL   H165 8907   5.233   8.084   2.989  1.0101  1.3337 -0.6848
   32MOL   H166 8908   5.243   0.135   3.320 -3.5070  1.1474 -1.0723
   32MOL   H167 8909   5.398   8.130   3.122 -0.4285 -2.8177  1.7582
   32MOL   H168 8910   5.009   0.178   3.262  0.3961 -0.9247  1.4753
   32MOL   H169 8911   4.794   0.135   3.120  0.8729  2.2911 -2.3969
   32MOL   C170 8912   5.503   0.075   3.279  0.2315 -0.0955  0.0105
   32MOL   C171 8913   5.623   0.030   3.222  0.4933  1.1219  0.2480
   32MOL   C172 8914   5.742   0.036   3.293 -0.1022 -0.6615 -0.1025
   32MOL   C173 8915   5.751   0.104   3.414  0.6273 -0.3397  0.0646
   32MOL   C174 8916   5.877   0.106   3.491 -0.2208 -0.0884 -0.3922
   32MOL   C175 8917   5.990   0.041   3.466 -0.6642  0.3278 -0.1166
   32MOL   C176 8918   5.635   0.160   3.476  0.7487  0.1458 -0.2549
   32MOL   C177 8919   5.511   0.139   3.406  0.0972  1.1919 -0.1385
   32MOL   H178 8920   5.617   8.123   3.127 -2.2457  1.5889  0.1097
   32MOL   H179 8921   5.825   8.125   3.252  0.8826 -1.5625  2.9497
   32MOL   H180 8922   5.873   0.170   3.577  1.4624 -1.6910  0.9128
   32MOL   H181 8923   6.002   8.121   3.380  1.9087  2.7311 -1.6361
   32MOL   H182 8924   5.641   0.213   3.569 -1.7307 -2.2249  1.3448
   32MOL   H183 8925   5.415   0.170   3.444 -2.1431 -0.2742 -4.2565
   32MOL   C184 8926   6.115   0.051   3.539  0.2984 -0.5528  0.2703
   32MOL   C185 8927   6.138   0.143   3.650 -0.5598  0.3162  0.1270
   32MOL   C186 8928   6.257   0.141   3.726 -0.2026 -0.4587 -0.0611
   32MOL   C187 8929   6.359   0.055   3.684  0.1558 -0.2176  0.3378
   32MOL   C188 8930   6.492   0.055   3.757  0.2430  0.2926  0.7732
   32MOL   C189 8931   6.533   0.152   3.852  0.1475 -0.1524  0.3656
   32MOL   C190 8932   6.346   8.115   3.569  0.7664 -0.0132 -0.6249
   32MOL   C191 8933   6.224   8.113   3.499  0.4647  0.4090 -0.3016
   32MOL   H192 8934   6.058   0.213   3.664 -0.9147  0.0953 -0.7270
   32MOL   H193 8935   6.260   0.210   3.809  1.1394 -2.4064  1.5354
   32MOL   H194 8936   6.551   8.113   3.728  0.7984  0.9466 -0.0810
   32MOL   H195 8937   6.468   0.234   3.879  0.1141  0.2387 -0.8602
   32MOL   H196 8938   6.425   8.043   3.551 -1.0459 -2.1807 -0.1632
   32MOL   H197 8939   6.209   8.045   3.417  2.0522  2.1492 -2.0925
   32MOL   C198 8940   6.658   0.144   3.918 -0.8635  0.7475  0.1706
   32MOL   C199 8941   6.741   0.025   3.923  0.7587 -0.3703  0.0834
   32MOL   C200 8942   6.872   0.036   3.957 -0.3774 -0.4664  0.1459
   32MOL   C201 8943   6.925   0.166   3.986  0.2962  0.2412 -0.6913
   32MOL   C202 8944   7.066   0.190   4.019 -0.4014  0.0263  0.0144
   32MOL   C203 8945   7.121   0.275   4.105  0.0933  0.7221  0.0532
   32MOL   C204 8946   6.843   0.279   4.003 -0.0383  0.1600  0.9401
   32MOL   C205 8947   6.715   0.267   3.962  0.6518  0.0934 -0.2141
   32MOL   H206 8948   6.706   8.072   3.894  1.7738  0.1094 -2.9685
   32MOL   H207 8949   6.946   8.101   3.952  0.1072  0.0550 -1.4858
   32MOL   H208 8950   7.134   0.124   3.967 -0.5805 -0.4980  0.4389
   32MOL   H209 8951   7.063   0.339   4.170 -0.4097  2.3968 -1.9623
   32MOL   H210 8952   6.880   0.377   4.028  1.2456  0.4341 -1.8686
   32MOL   H211 8953   6.657   0.358   3.958 -0.3287 -0.5663 -1.4943
   32MOL   C212 8954   7.263   0.288   4.114 -0.1062  0.2838  0.0063
   32MOL   C213 8955   7.310   0.318   4.242 -0.0964 -0.1320  0.0153
   32MOL   C214 8956   7.446   0.339   4.252 -0.6312  0.4785 -0.1647
   32MOL   C215 8957   7.535   0.317   4.146 -0.3679  0.3047  0.5556
   32MOL   C216 8958   7.683   0.325   4.158  0.5620  0.5231  0.4187
   32MOL   C217 8959   7.776   0.343   4.058  0.0892  0.3212  0.1275
   32MOL   C218 8960   7.484   0.277   4.023 -0.7586  0.5055  1.1296
   32MOL   C219 8961   7.349   0.271   4.005 -0.4360 -0.1046  0.8731
   32MOL   H220 8962   7.240   0.343   4.320 -1.9595  1.3406 -2.0297
   32MOL   H221 8963   7.492   0.358   4.348  1.2545  2.3172 -1.3786
   32MOL   H222 8964   7.726   0.306   4.255  3.2641  0.8239 -0.6764
   32MOL   H223 8965   7.736   0.351   3.958 -0.3685 -0.3907  0.2513
   32MOL   H224 8966   7.546   0.250   3.939  0.2603  1.7646  1.4648
   32MOL   H225 8967   7.315   0.256   3.904 -0.3295  1.9704  0.5043
   32MOL   C226 8968   7.919   0.343   4.068  0.3660 -0.0648  0.8548
   32MOL   C227 8969   7.991   0.353   4.193 -0.2358  0.5477 -0.0580
   32MOL   C228 8970   8.133   0.370   4.197  0.4380 -0.0468 -0.0618
   32MOL   C229 8971   0.056   0.372   4.072 -0.9965  0.0997 -0.5967
   32MOL   C230 8972   0.201   0.407   4.063 -0.4815 -0.7369 -0.3222
   32MOL   C231 8973   0.273   0.447   3.962 -0.2648  0.3711  0.7133
   32MOL   C232 8974   8.132   0.345   3.950  0.2882 -0.2228 -0.0805
   32MOL   C233 8975   7.991   0.333   3.950  0.5891  0.7727 -0.9094
   32MOL   H234 8976   7.939   0.356   4.288 -0.8547  0.5436 -0.3903
   32MOL   H235 8977   0.035   0.378   4.294 -0.5169 -0.6810  0.4539
   32MOL   H236 8978   0.257   0.394   4.154  1.5241  1.4595 -1.1937
   32MOL   H237 8979   0.226   0.457   3.866  0.7431  0.4371  0.2174
   32MOL   H238 8980   0.041   0.337   3.856  0.9657  0.9497  0.1806
   32MOL   H239 8981   7.938   0.311   3.858  2.9718 -0.0381 -2.1316
   32MOL   C240 8982   0.422   0.480   3.964 -0.4128 -0.0540  0.9386
   32MOL   C241 8983   0.485   0.509   3.841  0.3960  0.5098  0.2750
   32MOL   C242 8984   0.618   0.551   3.841 -0.0664  0.6543 -0.0960
   32MOL   C243 8985   0.691   0.564   3.961  0.1503  0.9118  0.1298
   32MOL   C244 8986   0.822   0.626   3.950  0.1865  0.4812 -0.0062
   32MOL   C245 8987   0.928   0.581   4.023 -0.1108 -0.5241 -0.7356
   32MOL   C246 8988   0.636   0.528   4.085 -0.9661 -0.0020 -1.0977
   32MOL   C247 8989   0.503   0.482   4.081 -0.3297 -0.7450 -0.1130
   32MOL   H248 8990   0.427   0.501   3.751 -2.4715 -0.1419  2.0975
   32MOL   H249 8991   0.669   0.577   3.749 -1.9084  1.0332 -1.0280
   32MOL   H250 8992   0.826   0.702   3.874  1.8757  0.2817 -0.1342
   32MOL   H251 8993   0.908   0.504   4.096 -1.1675  0.8539  0.4601
   32MOL   H252 8994   0.693   0.537   4.176  0.2461 -0.2969 -1.8108
   32MOL   H253 8995   0.457   0.450   4.173 -1.0928 -2.5478 -1.0844
   32MOL   C254 8996   1.061   0.642   4.019 -0.5144  0.5141  0.0734
   32MOL   C255 8997   1.100   0.757   3.945 -0.4825 -0.9682  0.5620
   32MOL   C256 8998   1.239   0.802   3.942 -0.2960 -0.3993  0.0020
   32MOL   C257 8999   1.334   0.731   4.017  0.8109  0.1859 -0.7648
   32MOL   C258 9000   1.470   0.777   3.998 -0.1313 -0.6813  0.0372
   32MOL   C259 9001   1.587   0.706   3.996  0.3789 -0.9970 -0.6318
   32MOL   C260 9002   1.298   0.614   4.093 -0.0016 -0.0388  0.1175
   32MOL   C261 9003   1.164   0.577   4.099 -0.1037  1.0698  0.1982
   32MOL   H262 9004   1.028   0.807   3.882  2.0238 -0.8851 -2.3894
   32MOL   H263 9005   1.273   0.888   3.886  2.0242 -0.8393  0.7118
   32MOL   H264 9006   1.473   0.883   3.980 -2.8331 -0.5394  0.2283
   32MOL   H265 9007   1.681   0.759   3.991 -0.1749 -0.0809 -1.3534
   32MOL   H266 9008   1.367   0.551   4.148  1.7395  0.0384 -1.9035
   32MOL   H267 9009   1.132   0.489   4.152 -0.0254 -0.1919 -1.8146
   32MOL   C268 9010   1.600   0.562   3.999  0.1210 -0.3516  0.2940
   32MOL   C269 9011   1.523   0.476   3.914  0.2057 -0.2500  0.1432
   32MOL   C270 9012   1.545   0.335   3.920 -0.7574  0.1485 -0.1038
   32MOL   C271 9013   1.647   0.281   3.998  0.1313 -0.2009 -0.4769
   32MOL   C272 9014   1.680   0.136   3.984 -0.3281  0.0693  0.3780
   32MOL   C273 9015   1.804   0.080   4.000 -0.7227 -0.3544  0.6599
   32MOL   C274 9016   1.727   0.372   4.080 -0.1572 -0.4789  0.3970
   32MOL   C275 9017   1.706   0.514   4.080  0.3766 -0.5935  0.0524
   32MOL   H276 9018   1.446   0.526   3.858  1.1167  0.3607 -0.5898
   32MOL   H277 9019   1.478   0.266   3.870  0.1315 -2.4258  2.1005
   32MOL   H278 9020   1.594   0.078   3.952 -1.4548  1.9185 -0.0597
   32MOL   H279 9021   1.886   0.145   4.028  0.6973 -0.4460 -2.9660
   32MOL   H280 9022   1.813   0.338   4.136  0.7507  0.5475 -0.3438
   32MOL   H281 9023   1.762   0.573   4.151 -2.3120 -0.1086  1.8271
   32MOL   H282 9024   1.827   8.124   3.969 -1.0160 -0.2616  0.1418
   33MOL     C1 9025   4.477   0.761   2.075  0.0877  0.6425 -0.2865
   33MOL     C2 9026   4.471   0.756   2.215  0.0475 -0.0622 -0.1916
   33MOL     C3 9027   4.591   0.751   2.290 -0.2433 -0.3018 -0.1509
   33MOL     C4 9028   4.717   0.757   2.221  1.0645 -0.2857 -0.1513
   33MOL     C5 9029   4.852   0.759   2.286  0.3253  0.4151  0.0357
   33MOL     C6 9030   4.870   0.748   2.422  0.7129 -0.2904  0.0531
   33MOL     C7 9031   4.720   0.748   2.080  0.2699 -0.0337 -0.3721
   33MOL     C8 9032   4.599   0.759   2.001 -0.1602 -0.3864  0.2576
   33MOL     H9 9033   4.374   0.755   2.262  0.6717 -0.3025  1.0903
   33MOL    H10 9034   4.588   0.723   2.394 -3.6697 -0.0372 -0.1363
   33MOL    H11 9035   4.943   0.748   2.229 -1.2933 -2.2342 -2.1450
   33MOL    H12 9036   4.784   0.741   2.487  0.2808  1.5651 -0.2872
   33MOL    H13 9037   4.818   0.740   2.037  0.6487  0.5795  0.3643
   33MOL    H14 9038   4.606   0.756   1.894  0.9818  0.2147  0.3121
   33MOL    H15 9039   4.386   0.763   2.018  0.7938 -0.2576 -1.4699
   33MOL    C16 9040   5.010   0.751   2.478 -0.1981 -0.1572 -0.4729
   33MOL    C17 9041   5.036   0.689   2.600  0.3577  0.2630 -0.4812
   33MOL    C18 9042   5.168   0.685   2.660  0.8629 -0.3861  0.0474
   33MOL    C19 9043   5.279   0.742   2.588  0.4651  0.1431 -0.3307
   33MOL    C20 9044   5.413   0.745   2.640  0.1610  0.5403  0.4686
   33MOL    C21 9045   5.438   0.733   2.777 -0.1672  0.0884  0.6911
   33MOL    C22 9046   5.253   0.787   2.458 -0.2952 -0.7191  0.7054
   33MOL    C23 9047   5.120   0.796   2.404  0.2261  0.2520  0.0945
   33MOL    H24 9048   4.953   0.653   2.660 -0.1470  0.4151 -1.0879
   33MOL    H25 9049   5.169   0.649   2.762 -1.6737 -0.3545  0.1056
   33MOL    H26 9050   5.494   0.763   2.571  2.5048  0.7470  3.1358
   33MOL    H27 9051   5.346   0.735   2.834 -0.5036  1.4302  0.1164
   33MOL    H28 9052   5.337   0.817   2.398 -2.0082 -2.8969 -2.9537
   33MOL    H29 9053   5.104   0.841   2.307 -0.1447  2.4477  1.1409
   33MOL    C30 9054   5.565   0.748   2.842 -0.9348  0.6687  0.2392
   33MOL    C31 9055   5.579   0.737   2.986 -0.6743  0.3697 -0.0164
   33MOL    C32 9056   5.709   0.752   3.044  0.2492 -0.9126  0.2366
   33MOL    C33 9057   5.823   0.784   2.969 -0.0536  0.1275  0.1913
   33MOL    C34 9058   5.965   0.782   3.017 -0.0688  0.2694 -1.0152
   33MOL    C35 9059   6.019   0.734   3.131 -0.5417 -0.7914 -0.0748
   33MOL    C36 9060   5.809   0.797   2.828  0.0386 -0.4824  0.8747
   33MOL    C37 9061   5.682   0.782   2.768 -0.1614 -0.0259  0.2079
   33MOL    H38 9062   5.498   0.712   3.051  1.6783 -1.9488  2.1334
   33MOL    H39 9063   5.720   0.735   3.151 -0.6951 -1.6248  0.2378
   33MOL    H40 9064   6.031   0.832   2.947  2.0111  0.2925  0.9144
   33MOL    H41 9065   5.952   0.696   3.207 -0.8946  0.6189  0.3390
   33MOL    H42 9066   5.892   0.801   2.758 -0.6699 -2.8170 -0.1658
   33MOL    H43 9067   5.683   0.786   2.660  0.2822  0.1380  0.2163
   33MOL    C44 9068   6.160   0.743   3.175  0.4140  0.2988  0.4002
   33MOL    C45 9069   6.206   0.685   3.291 -0.2843 -0.4569 -0.9096
   33MOL    C46 9070   6.332   0.705   3.340  0.0539 -0.4801 -0.4004
   33MOL    C47 9071   6.430   0.766   3.260  0.6254 -0.1416  0.3860
   33MOL    C48 9072   6.571   0.769   3.307 -0.4614 -0.1965  0.0178
   33MOL    C49 9073   6.673   0.826   3.240 -0.3228  0.2744 -0.1605
   33MOL    C50 9074   6.391   0.830   3.140  0.0095 -0.5884  0.0586
   33MOL    C51 9075   6.256   0.809   3.096 -0.1946  0.1184  0.4942
   33MOL    H52 9076   6.139   0.617   3.341  0.0275  0.0730  0.2516
   33MOL    H53 9077   6.359   0.669   3.438  2.3921  0.1890 -0.7599
   33MOL    H54 9078   6.595   0.720   3.400  1.0789  0.8835  0.1957
   33MOL    H55 9079   6.654   0.876   3.146 -1.3934 -0.8530 -0.5565
   33MOL    H56 9080   6.461   0.873   3.071  0.6142 -2.4786 -0.5443
   33MOL    H57 9081   6.229   0.843   2.997 -0.1714 -2.6324 -0.5001
   33MOL    C58 9082   6.815   0.831   3.285 -0.3183  0.0152 -0.5186
   33MOL    C59 9083   6.855   0.764   3.404  0.1564 -0.9443 -0.4847
   33MOL    C60 9084   6.987   0.770   3.455  0.3560  0.5175  0.5151
   33MOL    C61 9085   7.080   0.853   3.395  0.0931  0.4435  0.1232
   33MOL    C62 9086   7.214   0.851   3.455 -0.5403 -0.3419 -0.5408
   33MOL    C63 9087   7.319   0.917   3.401 -0.6024  0.2376  0.3825
   33MOL    C64 9088   7.033   0.936   3.297 -0.2964 -0.5298 -0.4999
   33MOL    C65 9089   6.905   0.924   3.235 -0.6350 -0.0258  0.4357
   33MOL    H66 9090   6.787   0.702   3.461  1.0325 -0.7488  0.7946
   33MOL    H67 9091   7.011   0.703   3.536  0.4775 -0.5167 -0.3722
   33MOL    H68 9092   7.214   0.796   3.548 -2.5795 -1.5410 -1.2090
   33MOL    H69 9093   7.320   0.974   3.310  3.0287  1.3824  1.0433
   33MOL    H70 9094   7.097   1.015   3.261 -0.3728 -0.7425 -1.1033
   33MOL    H71 9095   6.878   0.989   3.153  0.4314  0.4982  0.5004
   33MOL    C72 9096   7.454   0.930   3.456  0.0986  0.3619 -0.2465
   33MOL    C73 9097   7.556   0.990   3.382  0.2610 -1.1586  0.1442
   33MOL    C74 9098   7.689   1.006   3.421 -0.5246  0.6331 -0.5614
   33MOL    C75 9099   7.720   0.965   3.553 -0.2572 -0.1467 -0.8349
   33MOL    C76 9100   7.857   0.991   3.600  0.0738  0.5386  0.5531
   33MOL    C77 9101   7.964   1.046   3.537  0.1707  0.1714  1.2654
   33MOL    C78 9102   7.620   0.906   3.636  0.3048 -0.0544 -0.1182
   33MOL    C79 9103   7.490   0.886   3.589 -0.7391  0.1285 -0.4052
   33MOL    H80 9104   7.528   1.035   3.288  0.0313  1.0197  1.2121
   33MOL    H81 9105   7.763   1.062   3.367  0.3952 -0.4167 -0.4008
   33MOL    H82 9106   7.861   0.972   3.706 -0.1192  0.3805  0.5317
   33MOL    H83 9107   7.952   1.070   3.432 -2.1103 -1.5441  1.0851
   33MOL    H84 9108   7.649   0.877   3.736  1.0580 -0.1793 -0.3731
   33MOL    H85 9109   7.413   0.849   3.655 -0.3720  0.0298 -0.0283
   33MOL    C86 9110   8.099   1.075   3.594 -0.0989 -0.2913 -0.2048
   33MOL    C87 9111   8.123   1.074   3.727 -0.1076 -0.0865 -0.0582
   33MOL    C88 9112   0.098   1.118   3.783 -0.2635 -0.2496  0.7232
   33MOL    C89 9113   0.200   1.160   3.697 -0.5465 -0.5315 -0.0858
   33MOL    C90 9114   0.320   1.221   3.764  0.0922  0.6274  0.6111
   33MOL    C91 9115   0.409   1.307   3.716  0.7460  0.4328 -0.2479
   33MOL    C92 9116   0.185   1.156   3.559  0.2752  0.3615 -0.2685
   33MOL    C93 9117   0.061   1.108   3.509  0.6223 -0.3119  0.4112
   33MOL    H94 9118   8.037   1.045   3.785 -3.1323  1.6479 -3.5077
   33MOL    H95 9119   0.121   1.114   3.889  0.0745 -2.3486  0.5982
   33MOL    H96 9120   0.331   1.177   3.862  1.5682  0.1911  0.2568
   33MOL    H97 9121   0.382   1.349   3.620 -3.1778  1.2859  1.1584
   33MOL    H98 9122   0.269   1.182   3.496  1.9397  1.4897  2.2885
   33MOL    H99 9123   0.048   1.087   3.403 -1.5253  1.4176  0.3077
   33MOL   C100 9124   0.530   1.360   3.785  0.5540 -1.1241  0.6038
   33MOL   C101 9125   0.598   1.295   3.888 -0.9401  0.7386  0.2169
   33MOL   C102 9126   0.705   1.362   3.953  0.3473 -0.3221 -0.4867
   33MOL   C103 9127   0.756   1.483   3.908 -0.1295  0.1439 -0.3051
   33MOL   C104 9128   0.882   1.543   3.966 -0.2120  0.3396 -0.6705
   33MOL   C105 9129   0.977   1.462   4.021  0.0197 -0.2597 -0.5436
   33MOL   C106 9130   0.689   1.537   3.793  0.0558 -0.7197 -1.1557
   33MOL   C107 9131   0.565   1.490   3.745 -1.0590  0.2895  0.1954
   33MOL   H108 9132   0.569   1.198   3.923 -0.5048  1.1359  1.7005
   33MOL   H109 9133   0.748   1.311   4.038 -2.4986  0.1031  1.2859
   33MOL   H110 9134   0.898   1.650   3.965  0.8988  0.1875  0.0352
   33MOL   H111 9135   0.966   1.355   4.037  0.8363 -0.4137 -1.0236
   33MOL   H112 9136   0.728   1.627   3.749 -0.6070  0.7865  1.2759
   33MOL   H113 9137   0.514   1.540   3.664  0.1802  0.4258 -0.5132
   33MOL   C114 9138   1.111   1.509   4.062  0.9176 -0.0982  0.4331
   33MOL   C115 9139   1.170   1.624   3.998  0.3822  0.8061  0.3756
   33MOL   C116 9140   1.287   1.683   4.049 -0.3083 -0.4213  0.8387
   33MOL   C117 9141   1.356   1.633   4.164  0.3855  0.2635  0.1525
   33MOL   C118 9142   1.476   1.691   4.223 -0.2715  0.7217 -0.4851
   33MOL   C119 9143   1.546   1.788   4.166 -0.4352  0.7511  0.5332
   33MOL   C120 9144   1.306   1.516   4.219  0.5738  0.4999  0.5870
   33MOL   C121 9145   1.184   1.457   4.174  0.3145  0.5784 -0.1543
   33MOL   H122 9146   1.120   1.664   3.911  1.6374  0.6385 -0.4402
   33MOL   H123 9147   1.327   1.773   4.005  1.6981 -1.4593  0.4941
   33MOL   H124 9148   1.508   1.650   4.317  0.6193  0.5329 -0.8557
   33MOL   H125 9149   1.512   1.826   4.070 -0.6430 -0.5471  0.0768
   33MOL   H126 9150   1.356   1.464   4.299  0.5813 -0.8079 -0.2532
   33MOL   H127 9151   1.143   1.370   4.223 -0.0854  0.5315 -0.5662
   33MOL   C128 9152   1.664   1.852   4.223 -0.5129 -0.1847 -1.3726
   33MOL   C129 9153   1.719   1.820   4.346  0.6362  0.3436  0.3801
   33MOL   C130 9154   1.832   1.890   4.389 -0.5059 -0.2649 -0.0988
   33MOL   C131 9155   1.892   1.981   4.305  0.4526 -0.1665 -0.2260
   33MOL   C132 9156   2.006   2.066   4.326 -0.4797  0.7958  0.0843
   33MOL   C133 9157   2.093   2.065   4.426 -0.7283 -0.3418 -0.0684
   33MOL   C134 9158   1.838   2.009   4.181 -0.5574 -0.2002  0.0186
   33MOL   C135 9159   1.718   1.950   4.139 -0.0788  0.1958 -0.4749
   33MOL   H136 9160   1.671   1.749   4.411  0.1543 -0.7337 -1.1138
   33MOL   H137 9161   1.875   1.881   4.488  0.7345 -2.2380 -0.7837
   33MOL   H138 9162   2.023   2.143   4.252 -2.3945  0.6094 -0.5842
   33MOL   H139 9163   2.080   1.998   4.510  1.8314  2.2913  2.5215
   33MOL   H140 9164   1.871   2.085   4.111  0.3393  0.4845  1.1800
   33MOL   H141 9165   1.665   2.001   4.060 -1.9217 -0.0017  0.6049
   33MOL   C142 9166   2.210   2.162   4.443  0.7324  0.1172  0.6128
   33MOL   C143 9167   2.279   2.160   4.569  0.9567 -0.2525 -0.3833
   33MOL   C144 9168   2.389   2.240   4.604  0.4839 -0.4557 -0.7049
   33MOL   C145 9169   2.434   2.331   4.505 -0.5055 -0.3397 -0.9825
   33MOL   C146 9170   2.564   2.401   4.522 -0.7092 -0.0304 -0.0890
   33MOL   C147 9171   2.661   2.366   4.605 -0.4765 -0.0498 -0.0591
   33MOL   C148 9172   2.365   2.342   4.385 -0.0484 -0.2069  0.3256
   33MOL   C149 9173   2.256   2.261   4.352 -0.4349 -0.2275  0.0537
   33MOL   H150 9174   2.262   2.074   4.632  1.4480 -0.3312 -0.3604
   33MOL   H151 9175   2.446   2.215   4.691  1.0288  3.4799  0.1425
   33MOL   H152 9176   2.571   2.494   4.467  0.0487  0.1340  0.2758
   33MOL   H153 9177   2.639   2.273   4.656 -2.1054  0.4825  0.2553
   33MOL   H154 9178   2.392   2.411   4.307 -0.8895 -0.3920 -0.1372
   33MOL   H155 9179   2.211   2.269   4.254  0.5911  1.5443 -0.2879
   33MOL   C156 9180   2.786   2.429   4.631 -0.8163 -0.4480  0.0982
   33MOL   C157 9181   2.846   2.532   4.550 -0.0600  0.1550  0.3573
   33MOL   C158 9182   2.982   2.578   4.583  0.0550  0.5489 -0.0706
   33MOL   C159 9183   3.044   2.531   4.705 -0.1589 -0.1772 -0.7009
   33MOL   C160 9184   3.174   2.585   4.748  0.3971  0.2514 -0.3160
   33MOL   C161 9185   3.240   2.686   4.687 -0.1733 -0.2912 -0.7038
   33MOL   C162 9186   2.975   2.441   4.790 -0.5016  0.1642 -0.6056
   33MOL   C163 9187   2.857   2.390   4.752  0.5241 -0.5497 -0.2053
   33MOL   H164 9188   2.813   2.569   4.454 -1.2416 -1.8600 -0.0332
   33MOL   H165 9189   3.039   2.634   4.511  0.3509  0.6129  0.2131
   33MOL   H166 9190   3.213   2.529   4.832 -2.5444  0.1598  1.0704
   33MOL   H167 9191   3.198   2.734   4.600  1.3131  0.4523 -1.0167
   33MOL   H168 9192   3.023   2.401   4.879  0.9269  0.0144 -1.4300
   33MOL   H169 9193   2.810   2.309   4.807 -1.5967  0.1876 -0.8962
   33MOL   C170 9194   3.371   2.733   4.728 -0.2159  0.1306  0.6599
   33MOL   C171 9195   3.447   2.682   4.838 -0.4995  0.3728  0.1845
   33MOL   C172 9196   3.576   2.734   4.880  0.2218  0.6549  0.3830
   33MOL   C173 9197   3.627   2.842   4.807  0.3704  0.4335 -0.4283
   33MOL   C174 9198   3.757   2.907   4.843 -0.2251  0.2864 -0.0315
   33MOL   C175 9199   3.849   2.870   4.930  0.0670  0.0371 -0.7613
   33MOL   C176 9200   3.557   2.896   4.698  0.0162 -0.0287  0.7694
   33MOL   C177 9201   3.430   2.844   4.662 -0.0887 -0.7978 -0.1462
   33MOL   H178 9202   3.399   2.599   4.888  0.2195 -0.8134 -1.0812
   33MOL   H179 9203   3.634   2.686   4.957 -0.8585  0.6048  1.1761
   33MOL   H180 9204   3.770   3.002   4.792 -0.6801 -0.6704 -2.0020
   33MOL   H181 9205   3.835   2.776   4.983 -1.3431  2.4700  3.4536
   33MOL   H182 9206   3.600   2.975   4.638 -1.1076  0.3979  0.5038
   33MOL   H183 9207   3.387   2.888   4.573 -0.6030 -2.0578 -0.5369
   33MOL   C184 9208   3.974   2.951   4.951  0.1038 -0.4699  0.2380
   33MOL   C185 9209   4.004   3.080   4.900  0.4578 -0.2826 -1.0296
   33MOL   C186 9210   4.124   3.146   4.932 -0.0835  1.3373  0.3567
   33MOL   C187 9211   4.216   3.089   5.021  0.7733  0.4491  0.7916
   33MOL   C188 9212   4.344   3.163   5.047  0.3813  0.2289 -0.0036
   33MOL   C189 9213   4.451   3.103   5.100  0.4307  0.3893  0.0063
   33MOL   C190 9214   4.183   2.963   5.081 -0.3508 -0.1032 -0.1741
   33MOL   C191 9215   4.062   2.896   5.042 -0.1747 -0.1053  0.0218
   33MOL   H192 9216   3.932   3.123   4.832  0.3122  0.8628 -0.1658
   33MOL   H193 9217   4.147   3.241   4.886 -0.4651  1.0722 -0.3907
   33MOL   H194 9218   4.346   3.264   5.011 -0.4681 -0.0748 -0.9320
   33MOL   H195 9219   4.452   2.998   5.124 -2.0720  1.2760  4.6029
   33MOL   H196 9220   4.256   2.916   5.145  0.6723  0.9617 -0.5479
   33MOL   H197 9221   4.039   2.797   5.077 -1.5001  0.4916  0.8901
   33MOL   C198 9222   4.584   3.165   5.132 -0.2827 -0.1475  0.3680
   33MOL   C199 9223   4.676   3.086   5.198  0.4493  0.2550  0.2186
   33MOL   C200 9224   4.808   3.132   5.223  0.3843 -0.1978 -0.2585
   33MOL   C201 9225   4.845   3.267   5.188  0.0562  0.4971  0.1280
   33MOL   C202 9226   4.974   3.334   5.228 -0.4078 -0.2760 -0.6501
   33MOL   C203 9227   5.079   3.264   5.274  0.8097 -0.2215  0.2048
   33MOL   C204 9228   4.748   3.345   5.121  0.5114  0.2478  0.7404
   33MOL   C205 9229   4.622   3.301   5.090 -0.3124  0.2770 -0.1025
   33MOL   H206 9230   4.651   2.986   5.231 -2.0022  0.6557 -0.3513
   33MOL   H207 9231   4.877   3.058   5.259  0.7738  0.0641 -0.4725
   33MOL   H208 9232   4.965   3.442   5.228  1.7160 -0.0656  0.1938
   33MOL   H209 9233   5.067   3.157   5.283 -0.2552 -0.3685 -2.5436
   33MOL   H210 9234   4.776   3.445   5.090  0.6568  0.7901  2.5446
   33MOL   H211 9235   4.547   3.363   5.043 -0.7673 -0.2649 -0.1056
   33MOL   C212 9236   5.209   3.307   5.332  0.2368  0.6809  0.0632
   33MOL   C213 9237   5.243   3.448   5.331  0.2663 -0.6290 -0.1993
   33MOL   C214 9238   5.369   3.495   5.382  0.6151  0.7137 -0.8103
   33MOL   C215 9239   5.465   3.399   5.425  0.3978 -0.5531  0.6982
   33MOL   C216 9240   5.599   3.442   5.465 -0.7436 -0.1923 -0.2480
   33MOL   C217 9241   5.684   3.383   5.552 -0.7063  0.4658 -0.5990
   33MOL   C218 9242   5.423   3.265   5.429  0.1121 -0.8012  0.2569
   33MOL   C219 9243   5.303   3.211   5.382  0.2489 -0.7986  0.1265
   33MOL   H220 9244   5.174   3.512   5.278  0.1127  0.0018  0.7273
   33MOL   H221 9245   5.401   3.598   5.382 -3.0242  1.9132 -0.5102
   33MOL   H222 9246   5.632   3.532   5.415 -0.3385  0.3319  0.9488
   33MOL   H223 9247   5.661   3.295   5.610 -1.7035  1.3563  0.3968
   33MOL   H224 9248   5.494   3.188   5.457 -0.7975 -0.7462  2.7837
   33MOL   H225 9249   5.292   3.104   5.372  1.3466 -0.8469 -0.6692
   33MOL   C226 9250   5.815   3.428   5.585  0.3969 -0.6120  0.4196
   33MOL   C227 9251   5.853   3.429   5.718  0.5905 -0.1017  0.3036
   33MOL   C228 9252   5.977   3.483   5.752  0.3717  0.8330  0.2041
   33MOL   C229 9253   6.065   3.535   5.652  1.2578  0.3739  0.5409
   33MOL   C230 9254   6.191   3.605   5.679 -0.6159  0.1559  0.0934
   33MOL   C231 9255   6.225   3.673   5.788 -0.1459  1.1687 -0.2637
   33MOL   C232 9256   6.025   3.522   5.517 -0.7017 -0.3641 -0.4113
   33MOL   C233 9257   5.901   3.473   5.483 -0.4498 -0.4167  0.7165
   33MOL   H234 9258   5.779   3.390   5.787  1.0006 -0.9684  0.2514
   33MOL   H235 9259   6.004   3.476   5.857  0.6611  1.0019  0.1431
   33MOL   H236 9260   6.255   3.582   5.595 -1.3687 -0.4290 -0.3239
   33MOL   H237 9261   6.139   3.683   5.852 -1.1135 -0.1805 -1.2949
   33MOL   H238 9262   6.097   3.568   5.451 -0.8202  0.6402  0.1546
   33MOL   H239 9263   5.873   3.470   5.379  4.0468  0.5922 -0.5965
   33MOL   C240 9264   6.357   3.729   5.818 -0.3195  0.2264  0.6271
   33MOL   C241 9265   6.479   3.677   5.766 -0.4579 -0.2656  0.4742
   33MOL   C242 9266   6.602   3.743   5.799  0.1909  0.6771 -0.5244
   33MOL   C243 9267   6.601   3.867   5.864  0.0595 -0.0755  0.1413
   33MOL   C244 9268   6.729   3.942   5.886 -0.0592  0.0397  0.7816
   33MOL   C245 9269   6.746   4.071   5.924  0.1926  0.5872  0.5819
   33MOL   C246 9270   6.478   3.919   5.909 -0.1159 -0.5308 -0.2273
   33MOL   C247 9271   6.360   3.855   5.884  0.0260 -0.2840 -0.2869
   33MOL   H248 9272   6.479   3.589   5.704 -1.6685 -0.0075  0.0828
   33MOL   H249 9273   6.690   3.694   5.761  0.5016  1.5057 -0.8791
   33MOL   H250 9274   6.816   3.884   5.862  1.0710  1.0131  2.4938
   33MOL   H251 9275   6.652   4.120   5.944 -0.7888 -0.9587 -0.1769
   33MOL   H252 9276   6.478   4.006   5.973 -1.8203 -0.9928  0.4368
   33MOL   H253 9277   6.277   3.900   5.937 -1.2247 -2.5947 -0.2680
   33MOL   C254 9278   6.869   4.140   5.952 -0.0257 -1.0547 -0.6498
   33MOL   C255 9279   6.994   4.081   5.927  0.3559  0.6672  0.0192
   33MOL   C256 9280   7.112   4.144   5.957  0.6338  1.1380  0.5750
   33MOL   C257 9281   7.116   4.286   5.986  0.3012 -0.6430  0.7950
   33MOL   C258 9282   7.243   4.356   5.989 -0.0752 -0.6271 -0.2577
   33MOL   C259 9283   7.283   4.448   6.072  0.2292  0.3158 -0.8186
   33MOL   C260 9284   6.993   4.353   6.010 -0.4156  0.4183  0.0436
   33MOL   C261 9285   6.873   4.277   5.995 -0.5257 -0.6012  0.3757
   33MOL   H262 9286   7.004   3.979   5.892 -0.5885 -0.5561  3.0351
   33MOL   H263 9287   7.207   4.107   5.924  0.4132  0.1043  1.0881
   33MOL   H264 9288   7.321   4.332   5.918 -0.5698  3.3515 -2.2714
   33MOL   H265 9289   7.389   4.469   6.073  0.2081  0.3908  0.5315
   33MOL   H266 9290   6.998   4.459   6.032 -0.8412  0.2833  0.7926
   33MOL   H267 9291   6.780   4.328   6.016  0.2820  1.3364 -0.6304
   33MOL   C268 9292   7.207   4.499   6.186 -0.4281  0.9034  0.0594
   33MOL   C269 9293   7.154   4.411   6.285  0.1135 -0.4718 -0.4170
   33MOL   C270 9294   7.091   4.464   6.395  0.2044  0.3358  0.2060
   33MOL   C271 9295   7.079   4.604   6.418  0.0186 -0.5394 -0.1884
   33MOL   C272 9296   7.005   4.663   6.524  0.0916 -0.3504  0.3500
   33MOL   C273 9297   6.932   4.593   6.614 -0.5348 -0.4583 -0.2077
   33MOL   C274 9298   7.137   4.691   6.323  0.6150  0.1992  0.5354
   33MOL   C275 9299   7.198   4.645   6.205  0.9913  0.0811 -0.1002
   33MOL   H276 9300   7.154   4.304   6.269  2.5148 -0.4349 -0.8118
   33MOL   H277 9301   7.058   4.393   6.470  1.2045  0.8861  1.1720
   33MOL   H278 9302   7.004   4.770   6.538 -1.3090 -0.4437  1.0197
   33MOL   H279 9303   6.923   4.486   6.619 -1.0250 -0.4476 -0.8375
   33MOL   H280 9304   7.130   4.798   6.335 -0.4810  0.3759 -1.4726
   33MOL   H281 9305   7.228   4.718   6.131 -0.0746  0.5368 -0.0895
   33MOL   H282 9306   6.873   4.645   6.688  3.1579 -0.0789  2.5901
   34MOL     C1 9307   0.475   3.490   3.648 -0.0314 -0.5042  0.0077
   34MOL     C2 9308   0.475   3.558   3.771 -0.2822  0.3260  0.4974
   34MOL     C3 9309   0.345   3.591   3.822  0.6114 -0.0145  0.0285
   34MOL     C4 9310   0.221   3.555   3.755 -0.2723 -0.3160  0.4033
   34MOL     C5 9311   0.092   3.590   3.801  0.1692  0.5145 -0.6431
   34MOL     C6 9312   0.058   3.664   3.916 -0.7653  0.2116 -0.2001
   34MOL     C7 9313   0.234   3.480   3.633  0.1493 -0.5035  0.2103
   34MOL     C8 9314   0.358   3.448   3.585  0.4827  0.5485  0.2547
   34MOL     H9 9315   0.564   3.602   3.811  0.6789 -0.3685 -0.8451
   34MOL    H10 9316   0.347   3.658   3.907  1.4318  2.0860 -1.5921
   34MOL    H11 9317   0.005   3.556   3.748 -1.8823  3.1225  0.9275
   34MOL    H12 9318   0.134   3.704   3.982  1.4129 -1.5310 -1.5577
   34MOL    H13 9319   0.143   3.438   3.593 -1.0195  1.1937  1.0405
   34MOL    H14 9320   0.355   3.388   3.495 -2.3658  1.1169 -0.1016
   34MOL    H15 9321   0.567   3.474   3.594 -1.9549 -0.5742 -3.3993
   34MOL    C16 9322   8.062   3.671   3.955 -0.0784  0.1335 -0.5961
   34MOL    C17 9323   8.004   3.801   3.977  0.1110 -0.4290 -0.2482
   34MOL    C18 9324   7.870   3.812   4.006 -0.5994 -0.1917  0.1149
   34MOL    C19 9325   7.790   3.698   4.027 -1.8791 -0.4774 -0.0126
   34MOL    C20 9326   7.647   3.724   4.032  0.3228  0.0798 -0.5789
   34MOL    C21 9327   7.547   3.635   4.005  0.3921 -0.8747 -0.0647
   34MOL    C22 9328   7.852   3.571   4.022 -0.1859  0.4291  0.1992
   34MOL    C23 9329   7.985   3.556   3.985  0.1228 -0.4843  0.1006
   34MOL    H24 9330   8.068   3.884   3.952 -1.9550  0.0090 -4.5472
   34MOL    H25 9331   7.828   3.912   4.012  0.9507  0.4336  0.7126
   34MOL    H26 9332   7.624   3.823   4.068  2.0597 -0.0730  1.0600
   34MOL    H27 9333   7.582   3.539   3.969  2.5400 -0.2118  0.1569
   34MOL    H28 9334   7.795   3.480   4.033  2.7075 -2.0150 -3.5309
   34MOL    H29 9335   8.040   3.464   3.971  0.2039 -0.4046 -0.1094
   34MOL    C30 9336   7.405   3.654   4.003  0.6686 -0.2403 -0.0541
   34MOL    C31 9337   7.344   3.779   4.025  0.3494  0.2529 -0.0256
   34MOL    C32 9338   7.202   3.790   4.026 -0.0790 -0.1454  0.3799
   34MOL    C33 9339   7.125   3.680   3.998  0.4717 -0.3735  0.6281
   34MOL    C34 9340   6.980   3.694   4.004 -0.1263  0.1362  0.5121
   34MOL    C35 9341   6.884   3.596   4.015  0.2629  0.2215 -0.5233
   34MOL    C36 9342   7.189   3.558   3.984  0.2730 -0.0083  0.5145
   34MOL    C37 9343   7.325   3.546   3.980  0.1881  0.1984 -0.2855
   34MOL    H38 9344   7.395   3.869   4.055 -0.2039  0.9376 -1.1377
   34MOL    H39 9345   7.161   3.886   4.053  2.1764  1.2394 -1.0056
   34MOL    H40 9346   6.939   3.794   4.005  1.0897  0.6515 -0.5633
   34MOL    H41 9347   6.911   3.492   4.017 -1.8616 -0.3515 -0.6763
   34MOL    H42 9348   7.132   3.467   3.968 -0.6049  0.3898  1.2879
   34MOL    H43 9349   7.367   3.449   3.956 -1.6508 -0.0563 -2.7272
   34MOL    C44 9350   6.745   3.618   4.025 -0.0637 -0.1545 -0.5772
   34MOL    C45 9351   6.670   3.526   4.096  0.8015 -0.5509 -0.1266
   34MOL    C46 9352   6.529   3.538   4.119 -0.0326  0.1179 -0.0885
   34MOL    C47 9353   6.464   3.645   4.056 -0.2151 -0.3243 -0.2519
   34MOL    C48 9354   6.314   3.657   4.060  0.5200 -0.0888  0.4095
   34MOL    C49 9355   6.224   3.594   4.137 -0.1907  0.2805  0.2265
   34MOL    C50 9356   6.537   3.747   3.998 -0.5494 -0.7431 -0.1647
   34MOL    C51 9357   6.679   3.734   3.988  0.0834 -0.5182 -0.5685
   34MOL    H52 9358   6.718   3.435   4.130  0.6248 -1.0784 -1.2720
   34MOL    H53 9359   6.469   3.462   4.166 -1.1637  0.7762 -0.4463
   34MOL    H54 9360   6.277   3.730   3.989  1.4612 -1.0075 -1.0606
   34MOL    H55 9361   6.266   3.531   4.214 -1.5405 -0.3130  0.4827
   34MOL    H56 9362   6.483   3.827   3.949  2.1555  0.8388 -0.6737
   34MOL    H57 9363   6.728   3.819   3.944 -0.4816  0.4301  0.6048
   34MOL    C58 9364   6.073   3.611   4.137 -0.1297 -0.0293 -0.2896
   34MOL    C59 9365   5.997   3.503   4.195 -0.0901 -0.2863 -0.2317
   34MOL    C60 9366   5.856   3.501   4.186 -0.6837  0.0939 -0.1266
   34MOL    C61 9367   5.793   3.606   4.115 -0.8358  0.1415 -0.2210
   34MOL    C62 9368   5.646   3.600   4.108 -0.3785  0.0722 -0.8407
   34MOL    C63 9369   5.568   3.706   4.081 -0.0674 -0.7632 -0.3132
   34MOL    C64 9370   5.867   3.713   4.060  0.5540 -0.5887 -0.2663
   34MOL    C65 9371   6.008   3.719   4.071  0.0819  0.8281 -0.7153
   34MOL    H66 9372   6.038   3.416   4.245 -0.3562 -0.3530 -0.1289
   34MOL    H67 9373   5.798   3.422   4.231 -0.0256  0.8812  2.2207
   34MOL    H68 9374   5.603   3.505   4.138 -3.9007  2.2580  1.3022
   34MOL    H69 9375   5.621   3.799   4.066  0.5934 -0.9976  0.5201
   34MOL    H70 9376   5.821   3.793   4.003 -0.7155 -1.4350 -0.4690
   34MOL    H71 9377   6.060   3.803   4.027  0.7486  1.2406  0.7995
   34MOL    C72 9378   5.424   3.701   4.073  0.6707  0.0941  0.2292
   34MOL    C73 9379   5.341   3.593   4.117  0.6625  0.1043  0.2491
   34MOL    C74 9380   5.201   3.604   4.097 -0.4859  0.8361  0.3866
   34MOL    C75 9381   5.144   3.723   4.047 -0.4257  0.8471 -0.0351
   34MOL    C76 9382   5.003   3.745   4.053 -1.0397  0.8333  0.0084
   34MOL    C77 9383   4.949   3.861   4.012  0.2365 -0.2541 -0.3230
   34MOL    C78 9384   5.229   3.819   3.996 -0.4370 -0.0339  0.4321
   34MOL    C79 9385   5.365   3.807   4.002  0.3434 -0.0534 -0.3816
   34MOL    H80 9386   5.375   3.513   4.180  1.8528  1.5329  1.4489
   34MOL    H81 9387   5.136   3.532   4.145  2.3295 -1.3173  1.0611
   34MOL    H82 9388   4.938   3.664   4.081  0.0486 -0.6386 -1.6025
   34MOL    H83 9389   5.012   3.943   3.980 -0.8704  0.5148 -0.5790
   34MOL    H84 9390   5.194   3.917   3.965 -0.4959  0.2235  1.3113
   34MOL    H85 9391   5.424   3.883   3.953 -0.6157 -0.3108 -1.9728
   34MOL    C86 9392   4.804   3.892   4.010 -1.0297  0.1997 -0.0083
   34MOL    C87 9393   4.696   3.805   4.054  0.0956 -0.2050  0.2429
   34MOL    C88 9394   4.562   3.843   4.040 -0.2658  0.1769  0.1815
   34MOL    C89 9395   4.524   3.956   3.969  0.3561 -0.2626 -0.5578
   34MOL    C90 9396   4.387   3.997   3.946 -0.1232 -0.3456  1.1957
   34MOL    C91 9397   4.268   3.945   3.982 -0.1698 -0.2953  0.2516
   34MOL    C92 9398   4.628   4.038   3.915  0.4147  0.3911  0.2192
   34MOL    C93 9399   4.764   4.009   3.941 -0.2906  0.7782  0.3063
   34MOL    H94 9400   4.711   3.709   4.100  1.6500 -0.3753 -0.5908
   34MOL    H95 9401   4.489   3.773   4.078 -1.8199  1.1774 -0.9035
   34MOL    H96 9402   4.379   4.091   3.894 -1.3326 -1.0716  0.0515
   34MOL    H97 9403   4.267   3.852   4.038  1.5778 -0.9449 -0.7672
   34MOL    H98 9404   4.619   4.132   3.863  2.8962  1.0978  0.9855
   34MOL    H99 9405   4.843   4.076   3.910  1.2381 -0.1663  2.0870
   34MOL   C100 9406   4.139   4.003   3.957  0.3610 -0.8614  0.9458
   34MOL   C101 9407   4.025   3.919   3.935 -1.8403  0.4888  0.6758
   34MOL   C102 9408   3.899   3.970   3.910  0.5746 -1.3360 -0.9760
   34MOL   C103 9409   3.880   4.112   3.900  0.2236 -0.1163 -0.4010
   34MOL   C104 9410   3.752   4.175   3.894 -0.7586 -0.0409  0.6110
   34MOL   C105 9411   3.626   4.127   3.875 -0.7087  0.0299  0.4595
   34MOL   C106 9412   3.994   4.198   3.910  0.9116 -0.1127 -0.5220
   34MOL   C107 9413   4.119   4.140   3.934 -0.5583  0.0787  0.0177
   34MOL   H108 9414   4.038   3.812   3.945  1.3098  0.5894 -1.6118
   34MOL   H109 9415   3.815   3.902   3.908 -0.3698 -0.1741 -1.4939
   34MOL   H110 9416   3.765   4.282   3.904  3.1245 -0.4963  1.1738
   34MOL   H111 9417   3.604   4.023   3.853  1.6639 -1.2467  3.7301
   34MOL   H112 9418   3.982   4.305   3.914 -1.6097 -0.4134  0.8830
   34MOL   H113 9419   4.205   4.205   3.946 -0.1482  0.4354 -4.1498
   34MOL   C114 9420   3.510   4.219   3.867  0.0971 -0.1307 -0.4005
   34MOL   C115 9421   3.512   4.335   3.947  1.0147  0.2301 -0.2753
   34MOL   C116 9422   3.400   4.424   3.945 -0.1665  0.0092  0.4901
   34MOL   C117 9423   3.295   4.404   3.851 -0.8398 -0.1895 -0.2925
   34MOL   C118 9424   3.187   4.502   3.824  0.5958  0.6040 -0.6281
   34MOL   C119 9425   3.089   4.490   3.729 -0.1105 -0.4859  0.7178
   34MOL   C120 9426   3.293   4.276   3.782  0.0661  0.7969 -0.4394
   34MOL   C121 9427   3.397   4.187   3.792 -0.2781  0.3635  0.1563
   34MOL   H122 9428   3.595   4.360   4.011  1.7950  0.4043 -1.3345
   34MOL   H123 9429   3.412   4.522   3.989 -1.2922  0.2086  0.3603
   34MOL   H124 9430   3.192   4.596   3.878  0.0165  1.2152 -1.6248
   34MOL   H125 9431   3.090   4.396   3.676 -1.8814  1.9122 -3.9035
   34MOL   H126 9432   3.216   4.251   3.711  1.0547  0.1188 -1.3032
   34MOL   H127 9433   3.394   4.092   3.740  0.1574  1.0339 -1.1259
   34MOL   C128 9434   2.983   4.585   3.704 -1.2729  0.1169  0.3282
   34MOL   C129 9435   2.889   4.566   3.601  0.7990  0.6927 -0.5024
   34MOL   C130 9436   2.786   4.658   3.574  0.1827 -0.2832 -0.0720
   34MOL   C131 9437   2.768   4.771   3.652  0.9969 -0.4603 -0.1119
   34MOL   C132 9438   2.663   4.867   3.630  0.8346 -0.3082 -1.2936
   34MOL   C133 9439   2.630   4.968   3.716  0.8403 -0.0852  0.7289
   34MOL   C134 9440   2.856   4.790   3.754 -0.1928  0.1710  0.3657
   34MOL   C135 9441   2.962   4.698   3.788  0.5093  1.2509  0.3159
   34MOL   H136 9442   2.893   4.479   3.536  0.0794  1.6067 -1.8133
   34MOL   H137 9443   2.723   4.642   3.488  0.1309  2.5800 -0.5967
   34MOL   H138 9444   2.627   4.854   3.529 -0.7895  0.9939 -0.9012
   34MOL   H139 9445   2.681   4.978   3.810 -0.2232  0.1249  1.2935
   34MOL   H140 9446   2.853   4.881   3.812  0.2038 -0.5114  1.4842
   34MOL   H141 9447   3.012   4.726   3.879 -2.6229  2.3115  1.7995
   34MOL   C142 9448   2.520   5.056   3.689 -0.1869 -0.8416  0.0899
   34MOL   C143 9449   2.488   5.153   3.788  0.1694 -0.6752 -0.4345
   34MOL   C144 9450   2.381   5.236   3.776  0.4536  0.2807 -0.5991
   34MOL   C145 9451   2.289   5.218   3.668  0.1156  0.0391 -0.2844
   34MOL   C146 9452   2.160   5.287   3.666 -0.7262 -0.5378 -0.8772
   34MOL   C147 9453   2.101   5.367   3.760 -0.0320 -0.0021 -0.3911
   34MOL   C148 9454   2.319   5.120   3.571  0.6759 -0.7920  1.2108
   34MOL   C149 9455   2.433   5.037   3.577 -1.0190 -0.5387 -0.2263
   34MOL   H150 9456   2.558   5.177   3.867  0.4050  2.7934 -1.6571
   34MOL   H151 9457   2.356   5.310   3.851  0.1453 -0.0542 -0.3663
   34MOL   H152 9458   2.106   5.273   3.573 -0.7231 -0.9332 -0.8214
   34MOL   H153 9459   2.145   5.384   3.857 -1.3383 -0.5568  0.3027
   34MOL   H154 9460   2.253   5.090   3.490 -0.1207  3.2256  0.2939
   34MOL   H155 9461   2.438   4.955   3.508 -2.5275 -0.0090 -0.9707
   34MOL   C156 9462   1.982   5.448   3.744  0.7926  0.3634 -0.0180
   34MOL   C157 9463   1.909   5.505   3.847 -0.2478  0.5238 -0.7463
   34MOL   C158 9464   1.796   5.587   3.826  0.0857 -0.5249  0.2277
   34MOL   C159 9465   1.744   5.611   3.695 -0.0315  0.5371 -0.1010
   34MOL   C160 9466   1.619   5.683   3.670  0.2699  0.2005 -0.4362
   34MOL   C161 9467   1.542   5.753   3.754  0.8508  0.2423 -0.0102
   34MOL   C162 9468   1.813   5.543   3.593  0.3488  0.3008  0.8278
   34MOL   C163 9469   1.935   5.471   3.616  0.2321 -0.6989  0.4758
   34MOL   H164 9470   1.944   5.495   3.949  0.2031 -1.0834 -1.0374
   34MOL   H165 9471   1.756   5.636   3.914 -0.0421  0.3092 -0.2792
   34MOL   H166 9472   1.592   5.678   3.565  0.7799  0.0764 -0.5631
   34MOL   H167 9473   1.569   5.752   3.859  1.0073 -0.4944 -0.0534
   34MOL   H168 9474   1.777   5.551   3.491 -0.8631  4.3457  1.4966
   34MOL   H169 9475   1.971   5.428   3.524  0.0287  1.6081 -0.7054
   34MOL   C170 9476   1.427   5.830   3.720 -0.5384  0.1224  0.2580
   34MOL   C171 9477   1.380   5.855   3.592  0.1265  0.5828  0.1422
   34MOL   C172 9478   1.263   5.931   3.570 -0.3801  0.5114  0.0917
   34MOL   C173 9479   1.191   5.982   3.681  0.0119 -0.1509  0.4141
   34MOL   C174 9480   1.068   6.065   3.669  0.1919 -0.0811  0.1698
   34MOL   C175 9481   0.989   6.090   3.560 -0.5267  0.2446  0.3647
   34MOL   C176 9482   1.225   5.941   3.809 -0.3559  0.3698 -0.0904
   34MOL   C177 9483   1.344   5.867   3.832  0.2943 -0.0749 -0.5135
   34MOL   H178 9484   1.434   5.820   3.505 -1.6105 -0.9608 -0.3487
   34MOL   H179 9485   1.232   5.961   3.470 -1.8685  2.3075  1.0531
   34MOL   H180 9486   1.029   6.112   3.758 -1.3728  0.7927 -0.9575
   34MOL   H181 9487   1.021   6.044   3.467  2.5506 -0.1848  1.5514
   34MOL   H182 9488   1.165   5.966   3.895 -1.7862 -1.5128 -0.5094
   34MOL   H183 9489   1.367   5.847   3.936 -2.8790  2.6969  0.8049
   34MOL   C184 9490   0.871   6.173   3.555 -0.2718 -0.6328 -0.4656
   34MOL   C185 9491   0.773   6.142   3.466 -0.2479  0.0542  0.2890
   34MOL   C186 9492   0.655   6.225   3.450 -0.0536  0.4792 -0.6363
   34MOL   C187 9493   0.630   6.337   3.541 -0.1128  0.3345 -0.1800
   34MOL   C188 9494   0.507   6.413   3.537  0.3209 -0.0577 -0.5915
   34MOL   C189 9495   0.402   6.400   3.454  0.0237  0.6134  0.5336
   34MOL   C190 9496   0.730   6.358   3.639  0.8540 -0.2881 -0.1539
   34MOL   C191 9497   0.853   6.288   3.639  0.5280  0.0079 -0.1331
   34MOL   H192 9498   0.793   6.060   3.399 -2.5798  0.3887 -0.8612
   34MOL   H193 9499   0.594   6.206   3.363 -0.2187  3.2642 -1.1613
   34MOL   H194 9500   0.500   6.497   3.604 -1.3368  1.8791 -3.1038
   34MOL   H195 9501   0.405   6.325   3.375  0.0940  0.8568  0.3040
   34MOL   H196 9502   0.706   6.440   3.705 -0.0505  0.0005 -0.8303
   34MOL   H197 9503   0.922   6.305   3.720  0.2250  3.1022 -0.4397
   34MOL   C198 9504   0.267   6.462   3.451 -0.1070  0.4560  0.0836
   34MOL   C199 9505   0.220   6.542   3.561  0.2744  0.1522 -0.0658
   34MOL   C200 9506   0.096   6.613   3.546  0.0290 -0.5039 -0.2133
   34MOL   C201 9507   0.015   6.604   3.428 -0.0544  0.3164  0.1502
   34MOL   C202 9508   8.026   6.667   3.421 -0.6508  0.0751 -0.2951
   34MOL   C203 9509   7.940   6.653   3.317  1.1155  0.1220  1.0787
   34MOL   C204 9510   0.067   6.512   3.332 -0.1129  0.8979  0.0185
   34MOL   C205 9511   0.192   6.449   3.338  0.6032 -0.1064 -0.1784
   34MOL   H206 9512   0.279   6.564   3.649  0.8248 -0.3780 -0.2982
   34MOL   H207 9513   0.063   6.677   3.626  0.1058 -0.3392 -0.3130
   34MOL   H208 9514   7.995   6.729   3.503  0.1871 -0.3801  0.3738
   34MOL   H209 9515   7.972   6.589   3.237  1.4856  1.1700  0.3727
   34MOL   H210 9516   0.017   6.508   3.236 -0.2609 -1.1780  0.1526
   34MOL   H211 9517   0.234   6.411   3.246  0.5956  1.8005 -0.9910
   34MOL   C212 9518   7.803   6.714   3.307  0.3252  0.1462  0.3874
   34MOL   C213 9519   7.735   6.690   3.186  0.0270 -0.3429  0.0180
   34MOL   C214 9520   7.604   6.734   3.161 -0.3374  0.3552  0.1648
   34MOL   C215 9521   7.538   6.808   3.261  0.0657 -0.7929  0.0299
   34MOL   C216 9522   7.410   6.867   3.240 -0.1093  0.7118  0.5569
   34MOL   C217 9523   7.319   6.821   3.153 -0.2482  0.4487  0.1135
   34MOL   C218 9524   7.611   6.848   3.376  0.1272  0.4091 -0.0421
   34MOL   C219 9525   7.741   6.803   3.399 -0.2077 -0.4971  0.4585
   34MOL   H220 9526   7.780   6.627   3.110  1.1196  0.1906  0.2159
   34MOL   H221 9527   7.554   6.720   3.066 -0.3915  0.0681  0.2366
   34MOL   H222 9528   7.385   6.957   3.295  1.1968  0.9639  0.7499
   34MOL   H223 9529   7.345   6.731   3.099 -0.2495 -0.0861  1.0009
   34MOL   H224 9530   7.575   6.900   3.464  0.7859 -0.5140  0.7841
   34MOL   H225 9531   7.794   6.842   3.484 -1.3210  2.2119 -0.0425
   34MOL   C226 9532   7.183   6.872   3.107 -0.3468 -1.0333 -0.4068
   34MOL   C227 9533   7.103   6.807   3.013 -0.5069 -0.0098  0.2529
   34MOL   C228 9534   6.973   6.858   2.981  0.0798 -0.3198 -0.4084
   34MOL   C229 9535   6.918   6.966   3.054  0.2986  0.0171  0.1254
   34MOL   C230 9536   6.780   7.007   3.041 -0.3327  0.2393  0.2742
   34MOL   C231 9537   6.695   6.959   2.946 -0.1577  0.8759 -0.6662
   34MOL   C232 9538   6.997   7.029   3.149  0.0375  0.2745  0.6132
   34MOL   C233 9539   7.126   6.985   3.170  0.3605 -0.6274  0.1749
   34MOL   H234 9540   7.142   6.722   2.959  0.7010  1.0136 -0.4946
   34MOL   H235 9541   6.919   6.796   2.910 -0.8262 -1.0711  0.9067
   34MOL   H236 9542   6.749   7.076   3.118  1.8227  1.6627 -0.1059
   34MOL   H237 9543   6.736   6.896   2.869  1.1410  0.0832  0.6689
   34MOL   H238 9544   6.958   7.114   3.202  2.2043  3.1336 -2.2348
   34MOL   H239 9545   7.190   7.032   3.243  1.9510  0.9979 -2.1910
   34MOL   C240 9546   6.551   6.995   2.933  0.5498 -0.8930  0.4023
   34MOL   C241 9547   6.480   7.073   3.034 -0.2804  0.8309  0.5467
   34MOL   C242 9548   6.337   7.095   3.021  0.0833 -0.2227  0.1207
   34MOL   C243 9549   6.269   7.048   2.901 -0.1337 -0.0573 -0.6273
   34MOL   C244 9550   6.122   7.088   2.893  0.0448  0.4065  0.1207
   34MOL   C245 9551   6.027   7.034   2.811 -0.1749  1.4368  0.2159
   34MOL   C246 9552   6.342   6.976   2.801 -0.4671  0.1786 -0.7315
   34MOL   C247 9553   6.479   6.949   2.819  0.1017 -0.1025 -0.4864
   34MOL   H248 9554   6.527   7.110   3.123  0.5777 -0.7481  0.7724
   34MOL   H249 9555   6.277   7.141   3.098 -0.3517 -1.1400  0.3391
   34MOL   H250 9556   6.100   7.166   2.964  1.6823 -0.5827  1.7695
   34MOL   H251 9557   6.053   6.957   2.740  1.1314  1.3392  0.7846
   34MOL   H252 9558   6.301   6.927   2.714 -0.5555  1.1034 -1.2227
   34MOL   H253 9559   6.539   6.892   2.750  2.6939  2.0202 -0.0797
   34MOL   C254 9560   5.891   7.081   2.797  0.3050  0.0217  0.6951
   34MOL   C255 9561   5.842   7.186   2.873 -0.1270 -0.6817 -0.0944
   34MOL   C256 9562   5.709   7.223   2.864  0.8097  0.4449  0.3188
   34MOL   C257 9563   5.623   7.154   2.781  0.7470  0.1932  0.4808
   34MOL   C258 9564   5.486   7.195   2.759  0.1075 -0.1326  0.0338
   34MOL   C259 9565   5.415   7.199   2.644 -0.0762  0.4508  0.3804
   34MOL   C260 9566   5.672   7.047   2.710 -0.5891 -0.1737  0.5636
   34MOL   C261 9567   5.808   7.014   2.710  0.0014 -0.5366 -0.1404
   34MOL   H262 9568   5.911   7.246   2.931  1.0996 -0.0667 -2.1285
   34MOL   H263 9569   5.675   7.314   2.912 -2.4974 -0.9647  0.7804
   34MOL   H264 9570   5.432   7.229   2.847 -1.8367  0.6457 -1.4252
   34MOL   H265 9571   5.318   7.245   2.649 -0.8335 -0.5996 -3.4448
   34MOL   H266 9572   5.614   6.982   2.646 -1.9369  0.5149  1.0580
   34MOL   H267 9573   5.846   6.927   2.659  0.6012 -0.9077  0.9393
   34MOL   C268 9574   5.461   7.160   2.515  0.6312 -0.0787  0.5610
   34MOL   C269 9575   5.362   7.104   2.432 -0.3720  0.4325  0.7220
   34MOL   C270 9576   5.383   7.084   2.293 -0.0511  0.4731  0.6402
   34MOL   C271 9577   5.511   7.114   2.238 -0.5213  0.3418 -0.4094
   34MOL   C272 9578   5.549   7.087   2.091  0.0171 -0.7322 -0.0091
   34MOL   C273 9579   5.469   7.059   1.983 -0.2341  0.6041  0.8520
   34MOL   C274 9580   5.608   7.170   2.321 -0.4566  0.5144 -0.0633
   34MOL   C275 9581   5.584   7.193   2.460 -0.0528 -0.6220 -0.2350
   34MOL   H276 9582   5.267   7.079   2.476 -0.8010  2.9905  1.3094
   34MOL   H277 9583   5.306   7.035   2.236 -0.1518  1.1903  0.1512
   34MOL   H278 9584   5.653   7.093   2.065  0.1853 -0.5825  0.6830
   34MOL   H279 9585   5.364   7.035   1.996 -0.8198  2.6384  0.0686
   34MOL   H280 9586   5.708   7.189   2.284  0.6880 -0.7926  2.2044
   34MOL   H281 9587   5.671   7.231   2.511  0.1519 -2.3532  0.7338
   34MOL   H282 9588   5.508   7.053   1.883 -0.2956 -2.4185  0.9638
   35MOL     C1 9589   1.783   4.203   4.630 -0.3929 -0.0057  0.3740
   35MOL     C2 9590   1.872   4.218   4.520  0.0846  0.0438 -0.3032
   35MOL     C3 9591   1.833   4.213   4.386  0.8322  0.1062 -0.7535
   35MOL     C4 9592   1.700   4.201   4.358 -0.4053 -0.2299 -0.4828
   35MOL     C5 9593   1.651   4.191   4.223  0.7431  0.4908  0.9408
   35MOL     C6 9594   1.713   4.135   4.122  0.1571 -0.3899 -0.0496
   35MOL     C7 9595   1.608   4.187   4.463  0.0748  0.1204 -0.1102
   35MOL     C8 9596   1.648   4.184   4.598  0.3215  0.4458 -0.3888
   35MOL     H9 9597   1.978   4.232   4.529  0.1763 -0.4302 -0.6209
   35MOL    H10 9598   1.905   4.233   4.307 -0.4391  0.3524 -1.8719
   35MOL    H11 9599   1.549   4.224   4.205  0.0659 -1.3712  1.2758
   35MOL    H12 9600   1.812   4.097   4.146  0.4435  1.3302  1.5959
   35MOL    H13 9601   1.501   4.180   4.448 -0.2847  0.7141  2.0294
   35MOL    H14 9602   1.574   4.180   4.677  0.9393  0.4243  0.1869
   35MOL    H15 9603   1.828   4.208   4.728  1.6167 -0.1278 -0.5153
   35MOL    C16 9604   1.655   4.137   3.991  0.3599 -0.2160  0.4360
   35MOL    C17 9605   1.546   4.223   3.944  0.4014  0.1009  0.3012
   35MOL    C18 9606   1.485   4.200   3.819  0.4751 -0.1141  0.7354
   35MOL    C19 9607   1.528   4.106   3.727  0.2740 -0.4772 -0.7761
   35MOL    C20 9608   1.464   4.078   3.600 -0.7601 -0.6782  0.1689
   35MOL    C21 9609   1.370   4.146   3.539  0.1434  0.5794 -0.0071
   35MOL    C22 9610   1.632   4.026   3.769 -0.7706 -0.1965 -0.4682
   35MOL    C23 9611   1.700   4.039   3.895 -0.2969 -0.3979 -0.4069
   35MOL    H24 9612   1.501   4.290   4.016  1.5230  0.0350  1.0627
   35MOL    H25 9613   1.393   4.256   3.811  0.3670 -0.1416  1.7705
   35MOL    H26 9614   1.512   3.992   3.555  1.6707  1.3124 -1.1649
   35MOL    H27 9615   1.333   4.231   3.595 -0.7406 -0.4585  1.0108
   35MOL    H28 9616   1.660   3.946   3.702  2.1588  1.8457 -1.8349
   35MOL    H29 9617   1.781   3.970   3.915 -0.9063 -0.3227  2.5394
   35MOL    C30 9618   1.314   4.126   3.408 -0.6048  0.1305  0.6510
   35MOL    C31 9619   1.193   4.189   3.369 -0.4580 -0.2746  0.5153
   35MOL    C32 9620   1.138   4.172   3.244  0.2432 -0.4444  0.3320
   35MOL    C33 9621   1.200   4.097   3.144  0.4062  0.1383  0.0882
   35MOL    C34 9622   1.149   4.074   3.010 -0.1123  0.2549  0.2727
   35MOL    C35 9623   1.014   4.072   2.983 -0.0786  0.9924 -0.3313
   35MOL    C36 9624   1.318   4.024   3.187  0.4363 -0.0780  0.3133
   35MOL    C37 9625   1.372   4.042   3.313 -0.0335  0.1927  0.2345
   35MOL    H38 9626   1.142   4.254   3.439 -1.7477  0.7549 -1.3420
   35MOL    H39 9627   1.049   4.226   3.214 -0.0474 -0.1495  1.6846
   35MOL    H40 9628   1.221   4.055   2.932  0.0811 -0.2076  0.5568
   35MOL    H41 9629   0.943   4.102   3.060  0.9900 -0.0359  1.0866
   35MOL    H42 9630   1.363   3.962   3.111 -0.1527 -0.1256 -0.0014
   35MOL    H43 9631   1.460   3.986   3.341  0.6491  0.4150 -1.3722
   35MOL    C44 9632   0.958   4.035   2.852  0.0049  0.1453  0.4422
   35MOL    C45 9633   0.829   3.989   2.846 -0.0892  0.2446 -0.6612
   35MOL    C46 9634   0.781   3.925   2.735  0.0711 -0.2822 -0.4033
   35MOL    C47 9635   0.851   3.918   2.615 -1.1079  0.1198 -0.9077
   35MOL    C48 9636   0.807   3.846   2.493 -1.0847 -0.3581 -0.5507
   35MOL    C49 9637   0.693   3.784   2.471  0.2495  0.6569 -0.0644
   35MOL    C50 9638   0.985   3.969   2.610  0.8995 -0.0737 -1.4012
   35MOL    C51 9639   1.036   4.024   2.732 -0.1118  0.3648 -0.1363
   35MOL    H52 9640   0.768   3.996   2.935  0.1442  0.8157 -0.5390
   35MOL    H53 9641   0.680   3.888   2.722 -0.1980  0.2951  0.0340
   35MOL    H54 9642   0.876   3.847   2.410 -0.7690 -0.2118 -0.2907
   35MOL    H55 9643   0.640   3.787   2.564 -0.8289  2.9506 -0.7011
   35MOL    H56 9644   1.050   3.947   2.527  2.9819 -0.2701  0.2375
   35MOL    H57 9645   1.141   4.045   2.739 -0.0053 -0.4718  1.1147
   35MOL    C58 9646   0.655   3.705   2.357  0.5077 -0.4438  0.6213
   35MOL    C59 9647   0.756   3.654   2.267 -0.2553 -0.2470  0.4408
   35MOL    C60 9648   0.716   3.578   2.158  0.9122  0.0551  0.7737
   35MOL    C61 9649   0.582   3.550   2.129  0.2595  0.1414  0.3141
   35MOL    C62 9650   0.551   3.464   2.012 -0.7596 -0.4837  0.2234
   35MOL    C63 9651   0.432   3.411   1.980 -0.4590 -0.2259 -0.3848
   35MOL    C64 9652   0.479   3.598   2.216  0.3040  0.1120 -0.2174
   35MOL    C65 9653   0.517   3.678   2.327  0.4295  0.2273 -0.6491
   35MOL    H66 9654   0.862   3.668   2.280 -0.1688 -0.6695  0.2040
   35MOL    H67 9655   0.791   3.555   2.084 -1.9562 -0.2473 -2.1455
   35MOL    H68 9656   0.642   3.445   1.957 -0.0651 -2.9979  2.1535
   35MOL    H69 9657   0.352   3.434   2.048  1.3974  0.4607  1.6493
   35MOL    H70 9658   0.378   3.566   2.195  0.1182  0.1610  0.5852
   35MOL    H71 9659   0.443   3.718   2.396  1.5872  0.0934  0.6885
   35MOL    C72 9660   0.396   3.331   1.861 -0.1848 -0.9965  1.1305
   35MOL    C73 9661   0.263   3.317   1.825  0.2308 -0.1092  0.2594
   35MOL    C74 9662   0.226   3.250   1.707  0.1718  0.0963 -0.1644
   35MOL    C75 9663   0.322   3.196   1.618  0.1277 -0.0987 -0.0158
   35MOL    C76 9664   0.273   3.144   1.492 -1.0605  0.1897 -0.1608
   35MOL    C77 9665   0.358   3.098   1.396  0.4225  0.9714  0.2105
   35MOL    C78 9666   0.455   3.204   1.655  0.0240  0.5471 -0.7567
   35MOL    C79 9667   0.499   3.271   1.773 -0.3116 -0.0473 -0.5504
   35MOL    H80 9668   0.186   3.352   1.892  1.0129 -0.8860  1.5710
   35MOL    H81 9669   0.120   3.239   1.693 -0.0977  0.3159  1.6217
   35MOL    H82 9670   0.166   3.153   1.482 -0.8341  5.0752  0.6830
   35MOL    H83 9671   0.464   3.088   1.416  0.6048  0.5259 -0.9275
   35MOL    H84 9672   0.527   3.150   1.596  0.5004  0.1410  0.1827
   35MOL    H85 9673   0.604   3.278   1.798 -0.9540  1.1921  1.8731
   35MOL    C86 9674   0.315   3.064   1.254  0.7004 -0.1983 -0.5337
   35MOL    C87 9675   0.411   3.074   1.151  0.5273 -0.1540  0.6184
   35MOL    C88 9676   0.379   3.085   1.015 -0.7385  0.3017 -0.3005
   35MOL    C89 9677   0.240   3.083   0.983  0.0007 -0.2062  0.0596
   35MOL    C90 9678   0.196   3.111   0.849  0.0254  0.5905  0.6513
   35MOL    C91 9679   0.270   3.183   0.765  0.6126  0.0767 -0.1315
   35MOL    C92 9680   0.146   3.059   1.081  0.0225 -0.3951  0.3212
   35MOL    C93 9681   0.186   3.056   1.213 -0.0351  0.3644  0.3105
   35MOL    H94 9682   0.518   3.076   1.167  0.3706  0.0855  1.6618
   35MOL    H95 9683   0.463   3.108   0.951  2.3660 -1.9016  2.7163
   35MOL    H96 9684   0.101   3.068   0.820  1.0582 -0.4611 -1.2880
   35MOL    H97 9685   0.366   3.220   0.796  0.5137 -0.3851  0.7471
   35MOL    H98 9686   0.040   3.048   1.060 -0.4158  0.3576  2.0857
   35MOL    H99 9687   0.111   3.040   1.289  1.9614 -0.2546  2.1876
   35MOL   C100 9688   0.237   3.213   0.628  0.1036  0.4567 -0.1691
   35MOL   C101 9689   0.327   3.295   0.547  1.0799 -0.1318 -0.5647
   35MOL   C102 9690   0.299   3.316   0.412  0.2633 -0.0592 -0.6626
   35MOL   C103 9691   0.175   3.282   0.349 -0.7339 -0.4775 -1.4569
   35MOL   C104 9692   0.142   3.325   0.217  0.0373 -0.6615 -1.1146
   35MOL   C105 9693   0.227   3.363   0.122 -0.8603 -0.2391  1.0640
   35MOL   C106 9694   0.083   3.209   0.431  0.8391  0.1683 -0.2899
   35MOL   C107 9695   0.110   3.179   0.568  1.0347 -0.3177 -0.1449
   35MOL   H108 9696   0.420   3.335   0.585  0.5840  2.0095 -1.5243
   35MOL   H109 9697   0.375   3.366   0.353  0.6383 -0.5223 -0.5733
   35MOL   H110 9698   0.038   3.340   0.191  0.0065 -1.4806 -1.4522
   35MOL   H111 9699   0.334   3.362   0.133 -0.8990  0.6802  1.4968
   35MOL   H112 9700   8.130   3.182   0.391 -0.0932  0.2840  1.8079
   35MOL   H113 9701   0.036   3.127   0.627  0.2644  1.9167  0.9208
   35MOL   C114 9702   0.189   3.410   8.134 -0.0487 -0.6739 -1.2391
   35MOL   C115 9703   0.065   3.379   8.077  0.3737  0.2585  0.0287
   35MOL   C116 9704   0.033   3.424   7.950  0.0798  0.0051 -0.1269
   35MOL   C117 9705   0.112   3.512   7.877  0.2404  0.6153 -0.5889
   35MOL   C118 9706   0.066   3.581   7.755 -0.5365 -0.0951 -0.3650
   35MOL   C119 9707   8.086   3.586   7.705  0.0052  0.2135  0.1869
   35MOL   C120 9708   0.238   3.547   7.931 -0.2574 -0.1360 -0.3699
   35MOL   C121 9709   0.279   3.495   8.058  0.9409  0.4750 -0.8492
   35MOL   H122 9710   8.131   3.324   8.127 -0.6073  0.4841 -1.2107
   35MOL   H123 9711   8.073   3.414   7.925 -0.3561  0.2509  1.5698
   35MOL   H124 9712   0.142   3.628   7.694 -1.4968 -1.1757 -2.4161
   35MOL   H125 9713   8.002   3.539   7.755 -0.5050  0.0832 -0.7732
   35MOL   H126 9714   0.302   3.623   7.888 -0.8090  1.1970  1.1115
   35MOL   H127 9715   0.379   3.520   8.089  0.7903  0.4981 -0.3771
   35MOL   C128 9716   8.053   3.657   7.581  0.4983  0.0517  0.1329
   35MOL   C129 9717   7.924   3.728   7.574  0.0625  0.5749  0.3606
   35MOL   C130 9718   7.893   3.817   7.469  0.5261 -0.2969  0.0710
   35MOL   C131 9719   7.995   3.846   7.376  0.4367 -0.1036  0.0559
   35MOL   C132 9720   7.978   3.947   7.273  0.0627  0.1719  0.0607
   35MOL   C133 9721   7.865   3.996   7.223  0.2918  0.1644 -0.2854
   35MOL   C134 9722   8.112   3.768   7.372  0.1045  0.4326  0.2508
   35MOL   C135 9723   0.002   3.677   7.478 -1.3472 -0.9862 -0.7981
   35MOL   H136 9724   7.856   3.720   7.658 -1.1898 -1.9530 -0.8616
   35MOL   H137 9725   7.799   3.870   7.462  1.0189  0.4070 -1.6427
   35MOL   H138 9726   8.068   3.988   7.231  1.0976  0.9036  2.9007
   35MOL   H139 9727   7.772   3.949   7.252  0.6611 -1.8615 -2.1875
   35MOL   H140 9728   0.045   3.799   7.303  0.5735  1.5071  1.2267
   35MOL   H141 9729   0.099   3.631   7.468  0.6263  2.7024  0.0787
   35MOL   C142 9730   7.850   4.100   7.118 -0.0462  0.0732 -0.6330
   35MOL   C143 9731   7.735   4.180   7.130 -0.0647 -0.3488  0.4054
   35MOL   C144 9732   7.711   4.292   7.045 -0.4092  0.3104 -0.1014
   35MOL   C145 9733   7.820   4.338   6.964  0.1639  0.3466  0.1427
   35MOL   C146 9734   7.796   4.464   6.897  0.5274 -0.2736 -0.5391
   35MOL   C147 9735   7.895   4.551   6.867  0.5034 -0.3024 -0.2806
   35MOL   C148 9736   7.940   4.269   6.963  0.0795  0.6091 -0.0639
   35MOL   C149 9737   7.954   4.142   7.032 -0.0245 -0.0233 -0.5582
   35MOL   H150 9738   7.646   4.158   7.186 -0.4226 -1.2500 -0.4994
   35MOL   H151 9739   7.624   4.353   7.064 -0.0880  0.4362  0.9621
   35MOL   H152 9740   7.696   4.498   6.873  0.0767 -0.0089  1.5422
   35MOL   H153 9741   7.994   4.523   6.898  1.1355  1.1016 -0.9696
   35MOL   H154 9742   8.026   4.301   6.907  1.3831 -0.0186  1.5351
   35MOL   H155 9743   8.048   4.091   7.039 -0.4170 -0.9456 -1.8382
   35MOL   C156 9744   7.884   4.695   6.814 -0.4666 -0.6528 -0.2597
   35MOL   C157 9745   7.768   4.758   6.768  0.0365 -0.0249  0.0168
   35MOL   C158 9746   7.767   4.887   6.710 -0.2923 -0.1840 -0.3104
   35MOL   C159 9747   7.884   4.968   6.704 -0.4153  0.0532  0.3381
   35MOL   C160 9748   7.886   5.101   6.631 -0.7887 -0.3260 -0.0185
   35MOL   C161 9749   8.002   5.155   6.589  0.4772 -0.8333 -0.6712
   35MOL   C162 9750   8.002   4.911   6.759  0.5246  0.1623  0.8176
   35MOL   C163 9751   8.000   4.779   6.810  0.3049  0.3358  0.3275
   35MOL   H164 9752   7.677   4.700   6.766 -0.0175 -0.0206  1.6370
   35MOL   H165 9753   7.675   4.934   6.678 -0.6242  0.1124  1.0413
   35MOL   H166 9754   7.791   5.151   6.628 -0.5489  0.1444  0.2054
   35MOL   H167 9755   8.095   5.106   6.612 -0.0808 -0.2052  3.2063
   35MOL   H168 9756   8.102   4.953   6.759  0.2622  0.8834 -1.5306
   35MOL   H169 9757   8.094   4.736   6.842  0.4805  1.1943  1.0061
   35MOL   C170 9758   8.012   5.278   6.512  0.2198  0.4818  0.5608
   35MOL   C171 9759   7.895   5.357   6.480 -0.8890  0.4638 -0.4057
   35MOL   C172 9760   7.908   5.476   6.408 -0.3782 -0.0424 -0.2501
   35MOL   C173 9761   8.032   5.522   6.371 -0.0168 -0.4446  0.2142
   35MOL   C174 9762   8.042   5.661   6.315 -0.1703 -0.2615 -0.0264
   35MOL   C175 9763   7.944   5.757   6.298  0.0236 -0.4464 -0.2832
   35MOL   C176 9764   0.005   5.442   6.387 -0.1872 -0.1703  0.6361
   35MOL   C177 9765   8.136   5.325   6.455 -0.1824  0.5895 -0.7742
   35MOL   H178 9766   7.797   5.319   6.505 -0.6014  0.0130  0.0408
   35MOL   H179 9767   7.820   5.537   6.396 -0.3463  0.2743  0.9975
   35MOL   H180 9768   8.144   5.690   6.297 -0.3978  1.4578  1.3429
   35MOL   H181 9769   7.846   5.721   6.324 -0.0365 -0.5364 -0.6327
   35MOL   H182 9770   0.101   5.479   6.354 -0.4362  0.5806  0.7322
   35MOL   H183 9771   0.083   5.269   6.464 -0.4589 -0.1883 -2.5687
   35MOL   C184 9772   7.965   5.895   6.247 -0.2252 -0.4278 -0.2730
   35MOL   C185 9773   8.093   5.945   6.215  0.4585 -0.2668 -0.3046
   35MOL   C186 9774   8.116   6.084   6.185 -0.0349  0.5580 -1.2829
   35MOL   C187 9775   8.007   6.172   6.178 -0.7367  0.1608  0.8553
   35MOL   C188 9776   8.029   6.304   6.130  0.3451 -0.1940 -0.1643
   35MOL   C189 9777   8.141   6.347   6.069 -0.0940  0.0947  0.6670
   35MOL   C190 9778   7.882   6.126   6.208  0.3212  1.1229  0.5639
   35MOL   C191 9779   7.862   5.987   6.232 -0.0924 -0.4296 -0.6854
   35MOL   H192 9780   0.038   5.884   6.225  1.0711  0.3612 -1.8499
   35MOL   H193 9781   0.074   6.111   6.168 -0.8179  1.5788 -4.6334
   35MOL   H194 9782   7.953   6.378   6.151 -1.2537 -1.3408 -1.7687
   35MOL   H195 9783   0.072   6.271   6.052 -0.0804  0.6567 -1.9137
   35MOL   H196 9784   7.797   6.194   6.213 -0.0891  0.6325  0.2595
   35MOL   H197 9785   7.762   5.956   6.257  0.5517 -1.1657  1.0261
   35MOL   C198 9786   0.031   6.489   6.029 -0.1692 -0.3720 -0.5141
   35MOL   C199 9787   0.161   6.520   5.994 -0.1865 -0.1010 -1.1185
   35MOL   C200 9788   0.205   6.653   5.962  0.0656  0.5297 -0.4627
   35MOL   C201 9789   0.114   6.756   5.962 -0.2800 -0.4252 -0.3102
   35MOL   C202 9790   0.141   6.893   5.927 -0.4570  0.3725  0.6347
   35MOL   C203 9791   0.249   6.928   5.850 -0.0285  0.3850 -0.3985
   35MOL   C204 9792   8.128   6.723   6.001 -0.0871  0.2966  0.0763
   35MOL   C205 9793   8.082   6.595   6.039  0.4288 -0.5050 -0.3872
   35MOL   H206 9794   0.233   6.439   5.991 -0.4136 -0.3655  0.0878
   35MOL   H207 9795   0.308   6.666   5.933  0.3663  0.0747  0.3760
   35MOL   H208 9796   0.072   6.966   5.966  0.9065  2.9472 -1.5894
   35MOL   H209 9797   0.304   6.840   5.819  0.9838  0.8777 -0.0186
   35MOL   H210 9798   8.058   6.805   6.008  0.2195  0.6775 -1.1201
   35MOL   H211 9799   7.977   6.583   6.062 -0.0541  3.3514 -0.1844
   35MOL   C212 9800   0.305   7.060   5.811 -0.4296 -0.2715 -0.5829
   35MOL   C213 9801   0.244   7.184   5.843 -0.0345 -0.1525 -0.5745
   35MOL   C214 9802   0.311   7.303   5.820 -0.7586  0.0219 -0.1175
   35MOL   C215 9803   0.441   7.309   5.774  0.3211  0.7902 -0.4082
   35MOL   C216 9804   0.502   7.434   5.748  1.0430 -0.5898  0.4832
   35MOL   C217 9805   0.638   7.449   5.752  0.3025  0.2358 -0.5627
   35MOL   C218 9806   0.497   7.188   5.745 -0.4496 -0.6396  0.7538
   35MOL   C219 9807   0.430   7.069   5.755  0.0070 -0.2701 -0.7545
   35MOL   H220 9808   0.150   7.192   5.895 -0.4331 -0.9962 -1.1468
   35MOL   H221 9809   0.262   7.398   5.837 -0.6894  0.0351  0.0038
   35MOL   H222 9810   0.442   7.522   5.733  2.1035  0.1457  0.4991
   35MOL   H223 9811   0.701   7.364   5.772 -1.4431 -0.7121  1.1385
   35MOL   H224 9812   0.590   7.175   5.691 -1.5295 -1.7616 -0.8729
   35MOL   H225 9813   0.468   6.980   5.706 -0.9409 -0.7321 -0.6655
   35MOL   C226 9814   0.706   7.577   5.728 -0.1716 -0.2326 -0.3337
   35MOL   C227 9815   0.834   7.601   5.791 -0.0090 -0.3569 -0.9890
   35MOL   C228 9816   0.903   7.716   5.765  0.2722 -0.4250 -0.0421
   35MOL   C229 9817   0.845   7.815   5.682 -0.5113  0.5630  0.0702
   35MOL   C230 9818   0.905   7.945   5.669  0.1588  0.0665  0.2526
   35MOL   C231 9819   1.012   7.990   5.736 -0.1650 -0.1378 -0.5401
   35MOL   C232 9820   0.716   7.800   5.628 -0.0425 -1.4668  0.5632
   35MOL   C233 9821   0.645   7.680   5.652  0.1552  0.2369 -0.1661
   35MOL   H234 9822   0.875   7.524   5.855 -0.8508 -1.2483 -1.5046
   35MOL   H235 9823   1.006   7.719   5.797 -0.5772 -0.6690  2.8401
   35MOL   H236 9824   0.865   8.016   5.599  3.4370  0.0183 -1.7601
   35MOL   H237 9825   1.050   7.915   5.803  0.2304  0.3710 -0.2020
   35MOL   H238 9826   0.660   7.874   5.573 -0.8199 -0.7214  2.3251
   35MOL   H239 9827   0.545   7.681   5.610  0.2955  1.4306 -0.4842
   35MOL   C240 9828   1.080   8.118   5.715  0.0336 -0.2089 -0.1722
   35MOL   C241 9829   1.070   0.043   5.591  0.9586 -0.0719  0.1205
   35MOL   C242 9830   1.145   0.154   5.562 -0.0712 -0.2779 -0.1108
   35MOL   C243 9831   1.231   0.209   5.656  0.9998 -0.1547 -0.0099
   35MOL   C244 9832   1.311   0.326   5.618  0.5433  0.2035 -0.3073
   35MOL   C245 9833   1.358   0.411   5.714 -0.1387 -0.5490 -0.5215
   35MOL   C246 9834   1.234   0.153   5.786  0.1813 -0.6592 -0.5209
   35MOL   C247 9835   1.156   0.038   5.815  0.1898 -0.0854  0.0754
   35MOL   H248 9836   1.001   0.011   5.514 -1.9989  0.1483  2.5846
   35MOL   H249 9837   1.138   0.208   5.469  0.8615 -1.9837 -1.1771
   35MOL   H250 9838   1.318   0.336   5.511 -0.2631 -0.0745 -0.3946
   35MOL   H251 9839   1.328   0.405   5.817  2.3532  2.0297  0.4101
   35MOL   H252 9840   1.296   0.196   5.864  1.9317  0.3870 -2.4119
   35MOL   H253 9841   1.146   8.131   5.909  0.5888 -1.8724 -0.8302
   35MOL   C254 9842   1.433   0.532   5.704  0.4473  0.1184  0.4986
   35MOL   C255 9843   1.481   0.591   5.823 -0.6920  0.7196  0.5325
   35MOL   C256 9844   1.566   0.701   5.814  0.1123 -1.0354  0.0755
   35MOL   C257 9845   1.613   0.753   5.695 -0.2645 -0.9771  0.1301
   35MOL   C258 9846   1.714   0.861   5.690 -0.3092  0.0909  0.1805
   35MOL   C259 9847   1.812   0.886   5.606  0.0735 -0.8789  0.4333
   35MOL   C260 9848   1.568   0.691   5.575  0.4513 -0.8399  0.7145
   35MOL   C261 9849   1.476   0.580   5.580  0.0339 -0.0055  0.1703
   35MOL   H262 9850   1.457   0.559   5.923 -1.6452 -1.4293 -0.3468
   35MOL   H263 9851   1.605   0.749   5.903  1.8448 -0.3932 -0.9882
   35MOL   H264 9852   1.714   0.936   5.768  0.0206 -1.4032  1.6579
   35MOL   H265 9853   1.875   0.974   5.599  0.7275 -1.3439  0.4129
   35MOL   H266 9854   1.591   0.729   5.476 -0.1940 -2.9695 -0.2965
   35MOL   H267 9855   1.446   0.537   5.486 -0.0754  0.4924 -0.0271
   35MOL   C268 9856   1.864   0.802   5.501 -0.1500 -0.4742 -0.2296
   35MOL   C269 9857   1.876   0.666   5.518 -0.3166  0.0022  0.3625
   35MOL   C270 9858   1.912   0.591   5.406  0.8188  0.4297 -0.7726
   35MOL   C271 9859   1.935   0.645   5.279  0.3555  0.5354  0.1882
   35MOL   C272 9860   1.945   0.563   5.158  0.4620  0.0994  0.2911
   35MOL   C273 9861   1.891   0.438   5.144 -0.5796 -0.5665  0.1573
   35MOL   C274 9862   1.926   0.784   5.272 -0.8185 -0.1879  0.3699
   35MOL   C275 9863   1.888   0.866   5.377  0.7842  0.6268 -0.7102
   35MOL   H276 9864   1.855   0.618   5.613 -3.9969 -2.0562 -1.3749
   35MOL   H277 9865   1.900   0.484   5.417  2.8258  0.3626  0.9491
   35MOL   H278 9866   2.002   0.606   5.077  2.8731 -1.7195  0.9755
   35MOL   H279 9867   1.838   0.399   5.230 -1.8906  2.5660  0.8508
   35MOL   H280 9868   1.923   0.832   5.175  0.8520 -0.8504 -0.0332
   35MOL   H281 9869   1.876   0.973   5.360  1.1046  0.4768 -1.9702
   35MOL   H282 9870   1.907   0.386   5.051 -1.4338  0.2930 -0.4682
   36MOL     C1 9871   7.526   7.398   4.755 -0.2787 -0.6524 -0.0865
   36MOL     C2 9872   7.470   7.524   4.768  1.1362 -0.4282 -0.2338
   36MOL     C3 9873   7.367   7.570   4.679 -0.0281 -0.2069 -1.0917
   36MOL     C4 9874   7.317   7.483   4.577 -0.3717  0.9449  0.2926
   36MOL     C5 9875   7.189   7.521   4.504 -0.3941 -0.1594 -0.1935
   36MOL     C6 9876   7.110   7.429   4.455  0.3205 -0.0840 -0.0179
   36MOL     C7 9877   7.373   7.350   4.571  0.0625  0.9406  0.0737
   36MOL     C8 9878   7.477   7.310   4.658  0.1386  0.6193 -0.6370
   36MOL     H9 9879   7.497   7.588   4.850 -1.1483  1.8035 -1.1464
   36MOL    H10 9880   7.333   7.670   4.700  2.4289  0.5657 -0.5432
   36MOL    H11 9881   7.171   7.627   4.500  1.9940  0.2745 -0.1630
   36MOL    H12 9882   7.122   7.323   4.475 -1.7121 -0.6226 -1.5056
   36MOL    H13 9883   7.337   7.283   4.494  0.5762 -0.9190  1.4332
   36MOL    H14 9884   7.522   7.212   4.651 -1.2435 -0.0527 -0.1501
   36MOL    H15 9885   7.597   7.366   4.830 -0.8711  0.6626  1.0544
   36MOL    C16 9886   6.984   7.457   4.381  0.0996  0.3344  0.3709
   36MOL    C17 9887   6.928   7.356   4.304  0.5412 -0.3191  0.7197
   36MOL    C18 9888   6.802   7.379   4.244  0.0307 -0.1119 -0.0384
   36MOL    C19 9889   6.732   7.497   4.260 -0.3877  0.1036  0.4468
   36MOL    C20 9890   6.608   7.523   4.192 -0.2882  0.5676  0.0345
   36MOL    C21 9891   6.557   7.443   4.097  0.2166  0.2408 -0.9215
   36MOL    C22 9892   6.792   7.598   4.334  0.1010 -0.4706 -0.0580
   36MOL    C23 9893   6.921   7.582   4.391  0.1168  0.4000  0.0202
   36MOL    H24 9894   6.985   7.265   4.291  0.4230 -0.0023 -2.2282
   36MOL    H25 9895   6.772   7.307   4.170  0.0622 -0.0342 -0.1252
   36MOL    H26 9896   6.555   7.609   4.229  0.1443  0.3124  1.2730
   36MOL    H27 9897   6.616   7.364   4.053 -0.1347  0.1329 -1.1976
   36MOL    H28 9898   6.742   7.694   4.336 -0.9793 -1.0008 -0.6317
   36MOL    H29 9899   6.957   7.659   4.458  0.0182  0.7145 -0.2871
   36MOL    C30 9900   6.420   7.461   4.041 -0.2971  0.0277  0.2082
   36MOL    C31 9901   6.383   7.364   3.939 -0.9485 -0.0858  0.8081
   36MOL    C32 9902   6.256   7.375   3.878 -0.0815  0.6335 -0.6187
   36MOL    C33 9903   6.163   7.467   3.920 -0.4374 -0.4035 -0.2238
   36MOL    C34 9904   6.024   7.466   3.868 -0.2830 -0.4423 -0.6661
   36MOL    C35 9905   5.967   7.370   3.792  0.0871 -0.3233 -0.0471
   36MOL    C36 9906   6.202   7.567   4.017  0.0889  0.4375  0.3352
   36MOL    C37 9907   6.330   7.566   4.067  1.0414  0.1878 -0.4835
   36MOL    H38 9908   6.447   7.287   3.899 -0.8218 -0.0458  0.9289
   36MOL    H39 9909   6.233   7.305   3.799 -1.4449 -0.5667  0.7928
   36MOL    H40 9910   5.967   7.554   3.892  2.7899  1.1621  1.0777
   36MOL    H41 9911   6.025   7.286   3.759  0.7009 -0.7736  2.1096
   36MOL    H42 9912   6.134   7.636   4.066  0.1272  1.6270 -1.2788
   36MOL    H43 9913   6.360   7.642   4.137 -0.6352 -1.1071  1.7195
   36MOL    C44 9914   5.832   7.376   3.746  0.3404 -0.7480  0.6077
   36MOL    C45 9915   5.746   7.485   3.770 -0.1326  0.2569  0.7462
   36MOL    C46 9916   5.616   7.481   3.713  0.3455 -0.5419 -0.6261
   36MOL    C47 9917   5.573   7.376   3.629 -0.1117  0.0609 -0.4975
   36MOL    C48 9918   5.443   7.383   3.561  0.2735  0.0809 -0.1046
   36MOL    C49 9919   5.356   7.485   3.558  1.1777 -0.2558  0.0429
   36MOL    C50 9920   5.661   7.268   3.613  0.5988 -0.5935  0.0269
   36MOL    C51 9921   5.791   7.271   3.666  1.2580  0.5552 -0.3658
   36MOL    H52 9922   5.768   7.575   3.827  1.3166  0.1577  0.3553
   36MOL    H53 9923   5.545   7.559   3.740  0.2859 -1.0772  0.8414
   36MOL    H54 9924   5.400   7.297   3.512  0.4134  0.7313 -1.3773
   36MOL    H55 9925   5.381   7.579   3.606 -1.0667  1.3479 -1.8331
   36MOL    H56 9926   5.633   7.179   3.559  3.1303 -0.5861 -1.4050
   36MOL    H57 9927   5.853   7.184   3.653  0.7472  0.4126 -1.8778
   36MOL    C58 9928   5.224   7.505   3.492 -0.2212  0.8406  0.5554
   36MOL    C59 9929   5.174   7.427   3.388 -0.2981  0.0710 -0.1227
   36MOL    C60 9930   5.043   7.452   3.339  0.2463 -0.1109  0.1767
   36MOL    C61 9931   4.960   7.559   3.392 -0.4727 -0.3300  0.1807
   36MOL    C62 9932   4.830   7.594   3.335 -0.5285  0.6488 -0.3697
   36MOL    C63 9933   4.757   7.694   3.386 -0.0187 -0.1135 -0.3298
   36MOL    C64 9934   5.020   7.635   3.495  0.7942  0.1351  0.1634
   36MOL    C65 9935   5.147   7.618   3.537  1.1134 -0.3588  0.2265
   36MOL    H66 9936   5.226   7.337   3.359  3.4915  2.1089  0.0334
   36MOL    H67 9937   4.998   7.392   3.261  0.5554  0.8292 -0.7482
   36MOL    H68 9938   4.790   7.536   3.254 -0.3089  1.9804 -1.4532
   36MOL    H69 9939   4.786   7.741   3.478 -0.3741 -1.7512  0.6295
   36MOL    H70 9940   4.974   7.717   3.548  1.4814 -0.1288  1.1741
   36MOL    H71 9941   5.195   7.684   3.608  2.0086 -2.0692  1.2655
   36MOL    C72 9942   4.624   7.742   3.338 -0.4519  0.1274 -0.3882
   36MOL    C73 9943   4.579   7.868   3.394  0.4150  0.0766  0.8402
   36MOL    C74 9944   4.454   7.923   3.359 -0.2165 -0.4095 -0.3295
   36MOL    C75 9945   4.373   7.866   3.257 -0.1964 -0.1267 -1.0822
   36MOL    C76 9946   4.243   7.919   3.213 -0.1141 -0.2657  0.0582
   36MOL    C77 9947   4.177   8.027   3.263  0.4695 -0.5319  0.3440
   36MOL    C78 9948   4.421   7.744   3.199 -0.3200 -0.4581  0.4510
   36MOL    C79 9949   4.545   7.690   3.231  0.1080 -0.6758  0.4896
   36MOL    H80 9950   4.638   7.922   3.467 -1.4200  1.0149  1.6410
   36MOL    H81 9951   4.424   8.008   3.419  0.2753 -0.6484  0.2528
   36MOL    H82 9952   4.199   7.868   3.128  1.5458  0.9739 -1.5765
   36MOL    H83 9953   4.219   8.076   3.349  1.1287  0.0640 -0.3104
   36MOL    H84 9954   4.361   7.697   3.123 -1.7517 -0.4178  1.5338
   36MOL    H85 9955   4.573   7.596   3.186  2.2715  0.2833 -0.2704
   36MOL    C86 9956   4.055   8.086   3.214 -0.4794  0.2756 -0.0808
   36MOL    C87 9957   4.029   0.078   3.249  0.3152  0.3078 -0.0413
   36MOL    C88 9958   3.914   0.138   3.216  0.8021 -0.2271  1.0716
   36MOL    C89 9959   3.820   0.064   3.137 -0.5441 -0.4203  0.0622
   36MOL    C90 9960   3.698   0.141   3.097  0.7703 -0.2209 -0.6965
   36MOL    C91 9961   3.578   0.096   3.062 -0.2734  0.1558  0.4379
   36MOL    C92 9962   3.843   8.077   3.099  0.7579 -0.2187 -0.2577
   36MOL    C93 9963   3.964   8.015   3.133  0.9440 -0.2958 -0.5973
   36MOL    H94 9964   4.103   0.139   3.298  1.3234 -1.4864  0.6812
   36MOL    H95 9965   3.898   0.244   3.233 -1.7214 -0.7966  2.5961
   36MOL    H96 9966   3.716   0.247   3.102  3.2964 -0.4642 -2.9959
   36MOL    H97 9967   3.553   8.136   3.059 -0.7026  0.2848 -2.6658
   36MOL    H98 9968   3.761   8.031   3.046  0.0371  1.9802 -1.1164
   36MOL    H99 9969   3.981   7.912   3.107  0.9736  0.1333 -2.3555
   36MOL   C100 9970   3.469   0.175   3.002  0.1421 -0.7523 -0.0103
   36MOL   C101 9971   3.479   0.308   2.955  0.2902 -0.5692 -0.1233
   36MOL   C102 9972   3.370   0.379   2.893  0.2137  0.6423  0.6089
   36MOL   C103 9973   3.245   0.319   2.881 -0.0752 -1.1028 -0.0721
   36MOL   C104 9974   3.134   0.389   2.817  0.5130  0.4871 -0.2068
   36MOL   C105 9975   3.012   0.342   2.792 -0.3254  0.7311 -0.2033
   36MOL   C106 9976   3.238   0.185   2.918 -0.2728  0.5214  0.3761
   36MOL   C107 9977   3.343   0.115   2.975 -1.2396  0.3965  0.9366
   36MOL   H108 9978   3.576   0.354   2.959  0.6587 -1.0882 -2.5063
   36MOL   H109 9979   3.385   0.478   2.854  1.5717 -0.2726 -1.2631
   36MOL   H110 9980   3.160   0.491   2.792 -2.6433  1.4916  0.4117
   36MOL   H111 9981   2.991   0.238   2.815 -1.1227  1.0326  0.4723
   36MOL   H112 9982   3.149   0.124   2.916  1.4509 -2.0678  0.3585
   36MOL   H113 9983   3.326   0.009   2.988  0.2024 -0.1447 -1.3971
   36MOL   C114 9984   2.914   0.421   2.711 -0.4202  0.0696  0.2372
   36MOL   C115 9985   2.948   0.506   2.600 -0.1990  0.0050 -0.1258
   36MOL   C116 9986   2.851   0.585   2.539  0.3964 -0.2444 -0.5951
   36MOL   C117 9987   2.716   0.565   2.557  0.9440  0.3045  0.6540
   36MOL   C118 9988   2.621   0.640   2.471  0.5096  0.4947 -0.3953
   36MOL   C119 9989   2.646   0.749   2.396  1.0299 -0.3784 -0.6579
   36MOL   C120 9990   2.676   0.483   2.663 -0.5124 -0.1379 -0.4105
   36MOL   C121 9991   2.776   0.409   2.733 -0.3711  0.2282 -0.5079
   36MOL   H122 9992   3.054   0.509   2.583 -0.3236  2.1763 -0.7471
   36MOL   H123 9993   2.888   0.651   2.462  0.5814  0.9202  0.4705
   36MOL   H124 9994   2.523   0.595   2.469  1.1828 -1.0814  0.7494
   36MOL   H125 9995   2.744   0.794   2.393  0.2919  1.1864 -2.0481
   36MOL   H126 9996   2.574   0.476   2.700  0.1299 -0.5904  1.3014
   36MOL   H127 9997   2.740   0.342   2.808  1.9336 -1.3117 -0.7246
   36MOL   C128 9998   2.555   0.807   2.298  0.3580  0.1589  0.0840
   36MOL   C129 9999   2.593   0.922   2.226  0.0983 -0.5419 -0.2866
   36MOL   C13010000   2.524   0.964   2.115  0.1700  0.3320 -0.2071
   36MOL   C13110001   2.402   0.902   2.082 -0.3462 -0.9423  0.3446
   36MOL   C13210002   2.339   0.926   1.947 -0.5553 -0.6605  0.6940
   36MOL   C13310003   2.402   0.985   1.836  0.1890 -0.3514  0.3975
   36MOL   C13410004   2.353   0.794   2.160 -0.8621  0.0891 -0.8327
   36MOL   C13510005   2.425   0.757   2.274  0.4270  0.1862  0.8605
   36MOL   H13610006   2.690   0.970   2.238  0.7128 -0.9537 -3.2831
   36MOL   H13710007   2.566   1.035   2.045 -3.3826  0.4902 -2.2876
   36MOL   H13810008   2.238   0.889   1.940 -1.6456  2.2975  0.3309
   36MOL   H13910009   2.508   1.003   1.835 -0.0342  0.9809 -0.9593
   36MOL   H14010010   2.258   0.746   2.142  0.0019 -1.8919 -0.3415
   36MOL   H14110011   2.383   0.676   2.333  0.4309  0.6260  1.4731
   36MOL   C14210012   2.336   1.015   1.713  1.0944  0.3097  0.7586
   36MOL   C14310013   2.192   1.001   1.696 -0.6779  0.7640 -0.4913
   36MOL   C14410014   2.135   1.011   1.565  0.5628 -0.0386 -0.0052
   36MOL   C14510015   2.218   1.035   1.455  0.4591  0.4832  0.8658
   36MOL   C14610016   2.160   1.023   1.317  0.3528 -0.6422 -0.0504
   36MOL   C14710017   2.227   0.987   1.210  0.1769  0.1790 -0.8276
   36MOL   C14810018   2.361   1.046   1.469 -0.7777  0.7040 -0.1283
   36MOL   C14910019   2.413   1.038   1.596 -0.8091  0.4719 -0.4115
   36MOL   H15010020   2.135   0.970   1.783 -0.3180  1.6818  0.0775
   36MOL   H15110021   2.031   0.982   1.562  0.3064  0.6710  1.6793
   36MOL   H15210022   2.056   1.049   1.301  0.5173 -0.9396 -1.6050
   36MOL   H15310023   2.332   0.963   1.219 -0.1302 -1.6381 -1.6397
   36MOL   H15410024   2.436   1.050   1.391 -1.3790  0.1677 -0.7443
   36MOL   H15510025   2.520   1.048   1.612 -0.6944  1.0617 -1.4924
   36MOL   C15610026   2.175   0.963   1.074  0.4429  0.3015  0.9323
   36MOL   C15710027   2.037   0.949   1.039  0.5101 -0.3350 -0.2202
   36MOL   C15810028   2.004   0.917   0.909  1.2039  0.0760 -0.2842
   36MOL   C15910029   2.101   0.903   0.805 -0.2858 -0.4409 -0.0953
   36MOL   C16010030   2.055   0.834   0.683 -0.1764 -0.6735  0.1093
   36MOL   C16110031   2.138   0.770   0.602  0.2342 -0.3532  0.2333
   36MOL   C16210032   2.232   0.937   0.839  1.1054  0.3929  0.9022
   36MOL   C16310033   2.270   0.961   0.970 -0.4171  0.0496 -0.4762
   36MOL   H16410034   1.966   0.945   1.120  1.8091  0.7427  0.9969
   36MOL   H16510035   1.902   0.889   0.889  1.6936 -0.2521 -2.4549
   36MOL   H16610036   1.949   0.838   0.665 -0.0715  1.9291 -0.0734
   36MOL   H16710037   2.244   0.765   0.622  0.3355  2.8399  0.6494
   36MOL   H16810038   2.299   0.942   0.755  0.2977 -1.4201  0.1141
   36MOL   H16910039   2.375   0.981   0.990 -0.4872 -2.7677  3.1160
   36MOL   C17010040   2.104   0.696   0.481 -0.1314 -0.2531 -0.9282
   36MOL   C17110041   2.193   0.597   0.436 -0.1669 -0.7770  0.4033
   36MOL   C17210042   2.153   0.510   0.326 -0.7464 -0.1335 -0.5345
   36MOL   C17310043   2.034   0.530   0.260  0.6829 -0.8453 -0.2966
   36MOL   C17410044   1.993   0.449   0.147 -0.0620 -0.0418 -0.3711
   36MOL   C17510045   2.074   0.364   0.074  0.3427 -0.9667  0.0728
   36MOL   C17610046   1.946   0.631   0.300 -0.4130 -0.6080 -0.6158
   36MOL   C17710047   1.988   0.713   0.407  0.6016  0.1020 -0.2332
   36MOL   H17810048   2.293   0.572   0.467  0.3949 -4.8126 -4.1127
   36MOL   H17910049   2.219   0.430   0.296 -1.1978  0.5910 -3.6418
   36MOL   H18010050   1.889   0.456   0.118 -0.0483 -0.2916 -0.4794
   36MOL   H18110051   2.177   0.360   0.106  0.0487  0.2828  1.2088
   36MOL   H18210052   1.847   0.647   0.261 -0.6612 -0.7957 -0.0712
   36MOL   H18310053   1.908   0.784   0.423  0.2953  0.0634 -1.5749
   36MOL   C18410054   2.037   0.277   8.101  0.1756 -0.0789 -0.1443
   36MOL   C18510055   2.126   0.168   8.061  0.0037 -0.4804 -0.0113
   36MOL   C18610056   2.099   0.094   7.948 -0.5436  0.0533  0.1866
   36MOL   C18710057   1.975   0.118   7.876  0.1088  0.2541 -0.3053
   36MOL   C18810058   1.948   0.026   7.758 -0.2940 -0.6073 -0.9906
   36MOL   C18910059   1.825   0.001   7.713 -0.3754  0.8898 -0.3530
   36MOL   C19010060   1.886   0.211   7.923  0.2864 -0.3979 -0.2923
   36MOL   C19110061   1.918   0.294   8.029 -0.3334 -0.1688 -0.1819
   36MOL   H19210062   2.214   0.146   8.119  0.3139  0.2849 -0.1815
   36MOL   H19310063   2.159   0.011   7.914 -0.2301  0.2158  0.3478
   36MOL   H19410064   2.035   8.123   7.715 -1.1205 -0.8216 -2.4547
   36MOL   H19510065   1.745   0.065   7.746 -1.5365  0.9238 -3.0687
   36MOL   H19610066   1.787   0.226   7.882 -0.4800 -2.6830  0.6516
   36MOL   H19710067   1.841   0.365   8.056 -1.0426 -1.3517  0.9642
   36MOL   C19810068   1.775   8.046   7.610  0.3523  0.5289 -0.0116
   36MOL   C19910069   1.637   8.047   7.572 -1.1294  0.3219  0.3172
   36MOL   C20010070   1.594   7.972   7.464  0.6679 -0.0217  0.6256
   36MOL   C20110071   1.683   7.903   7.385 -0.0699  0.7783 -0.3001
   36MOL   C20210072   1.645   7.822   7.266 -0.2808 -0.4542 -0.1029
   36MOL   C20310073   1.704   7.713   7.219  0.1039  0.1038  0.4903
   36MOL   C20410074   1.822   7.896   7.425  0.3694  0.4260  0.1220
   36MOL   C20510075   1.869   7.963   7.537  0.4297 -0.2820 -0.1036
   36MOL   H20610076   1.561   8.102   7.626 -2.0290 -2.4891  2.0522
   36MOL   H20710077   1.490   7.954   7.439  0.5695 -1.8057  2.1497
   36MOL   H20810078   1.562   7.860   7.208 -1.4565 -0.8475  1.2922
   36MOL   H20910079   1.790   7.666   7.264  0.6807  3.0135  2.5438
   36MOL   H21010080   1.887   7.839   7.360 -1.6691 -0.1255 -1.4785
   36MOL   H21110081   1.971   7.956   7.574  1.0855  3.0410 -1.1118
   36MOL   C21210082   1.640   7.634   7.104 -0.1216 -0.6204  0.0018
   36MOL   C21310083   1.501   7.637   7.074 -0.0810  0.6778  0.1520
   36MOL   C21410084   1.454   7.543   6.985  0.3252 -0.2311  0.2042
   36MOL   C21510085   1.538   7.450   6.925 -0.0380 -0.0753 -0.1012
   36MOL   C21610086   1.464   7.336   6.855  0.3576 -0.2978 -0.3201
   36MOL   C21710087   1.497   7.207   6.864  0.6575  0.7875  0.2384
   36MOL   C21810088   1.678   7.445   6.953  0.2787  0.2743 -0.1882
   36MOL   C21910089   1.726   7.548   7.040 -0.2028  0.2326 -0.5498
   36MOL   H22010090   1.434   7.706   7.121  0.1249 -0.5560  2.3481
   36MOL   H22110091   1.348   7.544   6.963  0.4272  2.5777 -0.3515
   36MOL   H22210092   1.383   7.368   6.792  0.5338 -0.0761 -0.4359
   36MOL   H22310093   1.580   7.171   6.922 -1.4908 -0.8848  2.3687
   36MOL   H22410094   1.747   7.372   6.913  0.2155 -1.4152  2.6438
   36MOL   H22510095   1.827   7.542   7.078 -0.0284 -0.3872 -1.0828
   36MOL   C22610096   1.425   7.098   6.792 -0.5078  0.1905 -0.3604
   36MOL   C22710097   1.450   6.968   6.836 -0.2192 -0.4851 -0.2397
   36MOL   C22810098   1.396   6.849   6.782  0.7645  0.0650 -0.3380
   36MOL   C22910099   1.302   6.868   6.670 -0.2369 -0.7547  0.2294
   36MOL   C23010100   1.234   6.753   6.612  0.4849  0.0113  0.1391
   36MOL   C23110101   1.217   6.630   6.671  0.3579 -0.6728  0.5977
   36MOL   C23210102   1.275   6.998   6.626  0.5418  0.1376 -0.4785
   36MOL   C23310103   1.331   7.113   6.689 -0.4284  0.2777  0.3146
   36MOL   H23410104   1.521   6.949   6.915 -1.2586 -3.2197  0.1151
   36MOL   H23510105   1.432   6.753   6.817 -1.2980  0.4666  3.1266
   36MOL   H23610106   1.184   6.773   6.518  0.7027 -0.5639 -0.1045
   36MOL   H23710107   1.261   6.618   6.769 -0.1261 -1.7747  0.6883
   36MOL   H23810108   1.201   7.003   6.548 -1.8651  0.0253  1.7288
   36MOL   H23910109   1.309   7.209   6.645 -2.5045 -1.0334 -1.6416
   36MOL   C24010110   1.151   6.508   6.626 -0.3063  0.8984  0.3625
   36MOL   C24110111   1.074   6.507   6.508 -0.2445  0.0544  0.9298
   36MOL   C24210112   1.010   6.390   6.464 -0.0561  1.1896 -0.6444
   36MOL   C24310113   1.031   6.262   6.529 -0.2744  0.2595  0.0879
   36MOL   C24410114   0.961   6.143   6.484  0.1874 -0.2303  0.2167
   36MOL   C24510115   0.968   6.021   6.536 -0.2271  0.3349 -1.3460
   36MOL   C24610116   1.120   6.257   6.640 -0.3743 -0.3647  0.5677
   36MOL   C24710117   1.170   6.379   6.694  0.5370  0.3913  0.3362
   36MOL   H24810118   1.056   6.602   6.461  0.9848  1.3288  3.0059
   36MOL   H24910119   0.946   6.390   6.377 -2.1405 -2.9303  0.7427
   36MOL   H25010120   0.901   6.145   6.395  0.2925  0.8921  0.1623
   36MOL   H25110121   1.025   6.009   6.627  0.1270  1.4111 -1.4122
   36MOL   H25210122   1.144   6.163   6.686  4.1508  0.5824  0.4237
   36MOL   H25310123   1.246   6.372   6.770  2.3764 -1.1820 -1.5779
   36MOL   C25410124   0.896   5.901   6.482  0.0148  0.1630 -0.5362
   36MOL   C25510125   0.807   5.902   6.373  0.4943 -0.2089 -0.5681
   36MOL   C25610126   0.753   5.780   6.328 -0.1090 -0.3834 -0.5607
   36MOL   C25710127   0.786   5.660   6.385 -0.2792  0.1788  0.3430
   36MOL   C25810128   0.717   5.546   6.345 -0.1581 -0.0502 -0.3219
   36MOL   C25910129   0.667   5.445   6.413 -0.1543  0.2772  0.9158
   36MOL   C26010130   0.883   5.655   6.486 -0.1489 -0.3446 -1.1018
   36MOL   C26110131   0.935   5.779   6.539 -0.2721  0.5181  0.6017
   36MOL   H26210132   0.771   5.997   6.336 -0.2372 -0.1699  0.2311
   36MOL   H26310133   0.674   5.779   6.254 -0.0704  1.4546 -0.6654
   36MOL   H26410134   0.701   5.520   6.241  0.1447 -0.7522 -0.2006
   36MOL   H26510135   0.633   5.367   6.347  0.3088  2.6454 -2.2201
   36MOL   H26610136   0.914   5.555   6.510 -0.6205 -1.0822 -3.4552
   36MOL   H26710137   1.002   5.770   6.624 -0.0511 -2.7380  0.1415
   36MOL   C26810138   0.658   5.421   6.558 -0.2779  0.1188  0.5643
   36MOL   C26910139   0.662   5.527   6.657  0.2684 -0.5468  0.1689
   36MOL   C27010140   0.652   5.492   6.794 -0.8427  0.2353 -0.6176
   36MOL   C27110141   0.635   5.359   6.830 -0.2293  0.5155  0.2355
   36MOL   C27210142   0.626   5.321   6.977 -0.2022 -0.3045 -0.3190
   36MOL   C27310143   0.654   5.200   7.037  0.6273  0.2910  0.2847
   36MOL   C27410144   0.639   5.258   6.733 -0.4271  0.3544 -0.1238
   36MOL   C27510145   0.645   5.286   6.595  0.3816 -0.2586  0.3841
   36MOL   H27610146   0.680   5.630   6.629  0.7148 -1.0356 -1.3787
   36MOL   H27710147   0.651   5.561   6.876  0.6292 -0.7731  0.2740
   36MOL   H27810148   0.577   5.400   7.032  0.6576 -1.1406  1.7041
   36MOL   H27910149   0.698   5.110   6.997 -0.3662  1.0285 -2.6659
   36MOL   H28010150   0.643   5.155   6.765  0.2599  0.1246 -0.9141
   36MOL   H28110151   0.645   5.203   6.526  3.3151 -1.0815  1.3171
   36MOL   H28210152   0.623   5.193   7.140 -0.5700 -0.7324 -0.1296
   37MOL     C110153   1.214   3.035   2.800 -0.5859 -0.1325 -0.2685
   37MOL     C210154   1.130   3.129   2.867 -0.3371  0.3490  0.0150
   37MOL     C310155   0.991   3.105   2.865  0.1058 -0.0325  0.3460
   37MOL     C410156   0.934   2.989   2.809  0.6451  0.6166  0.0600
   37MOL     C510157   0.786   2.968   2.802 -0.3242  0.8593  0.1828
   37MOL     C610158   0.700   3.033   2.878 -0.1761 -0.0371  0.4936
   37MOL     C710159   1.030   2.890   2.763 -0.0285 -0.7622  0.0487
   37MOL     C810160   1.167   2.909   2.766  0.4771 -0.2117 -0.6347
   37MOL     H910161   1.161   3.218   2.920  0.1259  0.0164  0.3111
   37MOL    H1010162   0.935   3.190   2.899 -1.4742 -0.4113 -1.2058
   37MOL    H1110163   0.751   2.891   2.735 -0.4706  1.4149 -0.3744
   37MOL    H1210164   0.737   3.098   2.957 -0.9938  0.1425  0.7306
   37MOL    H1310165   0.992   2.801   2.714  0.1775 -0.3221 -0.9184
   37MOL    H1410166   1.239   2.838   2.727  0.2513 -1.4014  1.0760
   37MOL    H1510167   1.321   3.044   2.786 -0.3898 -0.5481  0.8552
   37MOL    C1610168   0.558   3.037   2.865  0.4402  0.3209  0.0993
   37MOL    C1710169   0.485   3.131   2.930 -0.2619 -0.4716  0.1760
   37MOL    C1810170   0.347   3.139   2.911  0.3380 -0.2928 -0.1807
   37MOL    C1910171   0.272   3.058   2.819  0.5450 -0.7661 -0.3203
   37MOL    C2010172   0.128   3.079   2.810  0.3487 -0.1021  0.1042
   37MOL    C2110173   0.035   2.994   2.765 -0.3665 -0.2360 -0.1074
   37MOL    C2210174   0.347   2.957   2.753  0.9879 -0.3776  0.4209
   37MOL    C2310175   0.489   2.945   2.779  0.7106  0.1984  0.5608
   37MOL    H2410176   0.537   3.190   3.005  0.0648 -1.4078  0.7049
   37MOL    H2510177   0.293   3.216   2.964  0.2269  0.1988 -1.0092
   37MOL    H2610178   0.109   3.180   2.843 -1.2942 -0.9982  1.9862
   37MOL    H2710179   0.076   2.902   2.727  1.2335  0.0363  0.9319
   37MOL    H2810180   0.286   2.898   2.686 -2.1761  3.2167 -0.0595
   37MOL    H2910181   0.543   2.865   2.731  2.0150  1.6162 -0.3474
   37MOL    C3010182   8.033   3.016   2.754 -0.1180 -0.4837  0.6143
   37MOL    C3110183   7.963   3.137   2.795 -0.4188  0.7520 -0.0339
   37MOL    C3210184   7.826   3.158   2.802 -0.5827  0.8906  0.2559
   37MOL    C3310185   7.742   3.052   2.748  0.7603 -0.2632 -0.6431
   37MOL    C3410186   7.595   3.069   2.755  0.0108 -0.0918 -0.0164
   37MOL    C3510187   7.497   3.002   2.695  0.8856 -0.1349 -0.2247
   37MOL    C3610188   7.802   2.935   2.699 -1.0941 -0.4155 -0.2599
   37MOL    C3710189   7.942   2.912   2.711  0.2549 -0.0942 -0.0942
   37MOL    H3810190   8.033   3.211   2.832  0.7752 -0.2715 -0.2192
   37MOL    H3910191   7.787   3.256   2.829 -2.2338  0.3317  0.0009
   37MOL    H4010192   7.560   3.148   2.819 -0.4961 -0.4921  0.2045
   37MOL    H4110193   7.532   2.919   2.636 -1.6924 -0.5085 -1.2953
   37MOL    H4210194   7.743   2.852   2.661 -3.0780  0.3068  1.1576
   37MOL    H4310195   7.982   2.823   2.665 -0.8326 -0.2516 -0.7427
   37MOL    C4410196   7.354   3.033   2.701  0.0454  0.0126  0.2718
   37MOL    C4510197   7.305   3.154   2.739  0.9430  0.0567 -0.5324
   37MOL    C4610198   7.166   3.188   2.747  0.3872 -0.0894  0.1173
   37MOL    C4710199   7.070   3.101   2.692  0.2064  0.0475  0.0789
   37MOL    C4810200   6.927   3.145   2.678 -0.9109  0.2463  0.5508
   37MOL    C4910201   6.830   3.062   2.708  0.5234 -0.4414  0.5078
   37MOL    C5010202   7.115   2.966   2.666 -0.1744 -0.4005 -0.7845
   37MOL    C5110203   7.256   2.937   2.668  0.7108 -0.9178 -0.9623
   37MOL    H5210204   7.383   3.222   2.769  3.2221 -3.1779  1.2255
   37MOL    H5310205   7.132   3.289   2.765  1.6363  0.1175  1.3891
   37MOL    H5410206   6.910   3.237   2.624 -0.0864  0.3547  0.4786
   37MOL    H5510207   6.856   2.968   2.754  1.0054  0.5989  2.4511
   37MOL    H5610208   7.038   2.901   2.625 -0.5847 -0.7381  0.5137
   37MOL    H5710209   7.275   2.833   2.646 -0.3004 -1.7639  1.9448
   37MOL    C5810210   6.691   3.082   2.666  0.1412 -0.5508 -0.0408
   37MOL    C5910211   6.639   3.201   2.604  0.2728  0.0777  0.1057
   37MOL    C6010212   6.502   3.208   2.568  0.4517  0.2708  0.1937
   37MOL    C6110213   6.417   3.093   2.587  0.0165  0.2969 -0.1029
   37MOL    C6210214   6.273   3.091   2.543 -0.1059 -0.4415  0.0830
   37MOL    C6310215   6.173   3.017   2.593  0.6871  0.2408  0.3086
   37MOL    C6410216   6.470   2.979   2.648  0.4676  0.8688  0.2234
   37MOL    C6510217   6.605   2.973   2.683  0.5036 -0.2611 -0.5455
   37MOL    H6610218   6.711   3.280   2.596  1.4348 -0.9277  0.4746
   37MOL    H6710219   6.468   3.299   2.521  0.4409  0.0895 -0.1497
   37MOL    H6810220   6.248   3.160   2.464  1.5030 -1.0127 -0.9545
   37MOL    H6910221   6.196   2.953   2.677  2.9734  0.8946  0.2038
   37MOL    H7010222   6.401   2.897   2.661  0.6655  0.6535 -0.0696
   37MOL    H7110223   6.634   2.884   2.738 -1.8003 -0.5176  0.3333
   37MOL    C7210224   6.035   3.016   2.549  0.2167  0.8204 -0.2553
   37MOL    C7310225   5.990   3.078   2.430 -0.6085 -0.3488  0.5029
   37MOL    C7410226   5.855   3.063   2.386 -0.6514 -0.4758  0.0990
   37MOL    C7510227   5.756   2.992   2.459  0.4542  0.8461  0.4720
   37MOL    C7610228   5.621   2.965   2.411  0.4870 -0.3289  0.2662
   37MOL    C7710229   5.577   2.982   2.286 -0.1600 -0.0909 -0.3907
   37MOL    C7810230   5.799   2.931   2.576  0.4206 -0.4472  0.0289
   37MOL    C7910231   5.935   2.941   2.620 -1.4093 -0.5378 -0.1486
   37MOL    H8010232   6.050   3.141   2.365 -0.8979  1.4155  1.8940
   37MOL    H8110233   5.831   3.111   2.292  1.2318  1.2193  0.4556
   37MOL    H8210234   5.558   2.917   2.484 -0.1004 -0.8272 -0.5493
   37MOL    H8310235   5.643   3.032   2.217  0.3885  1.9992  1.5914
   37MOL    H8410236   5.731   2.865   2.629  0.6933 -0.3743  0.4689
   37MOL    H8510237   5.954   2.888   2.712  0.3416  2.6530  1.4283
   37MOL    C8610238   5.443   2.938   2.230 -0.3766 -0.5875 -0.4140
   37MOL    C8710239   5.421   2.961   2.089  0.2250  0.4630  0.3125
   37MOL    C8810240   5.298   2.936   2.027 -0.3486  0.7439 -0.4713
   37MOL    C8910241   5.190   2.881   2.104  0.2483 -0.1316 -0.6304
   37MOL    C9010242   5.066   2.827   2.048 -0.1905 -0.1792 -0.9806
   37MOL    C9110243   5.009   2.855   1.934  0.0037 -0.0895  0.8554
   37MOL    C9210244   5.212   2.870   2.241  0.0572 -0.7951  0.0504
   37MOL    C9310245   5.331   2.892   2.304  0.5025  0.2945 -0.1337
   37MOL    H9410246   5.491   3.014   2.025 -0.7316  1.1388 -0.1836
   37MOL    H9510247   5.288   2.944   1.920 -0.6805  0.3514 -0.4688
   37MOL    H9610248   5.017   2.764   2.120  1.0996  0.9097  0.8800
   37MOL    H9710249   5.065   2.921   1.870 -0.1538 -1.4380 -0.7159
   37MOL    H9810250   5.131   2.836   2.304 -0.8594  0.8957 -0.1810
   37MOL    H9910251   5.333   2.881   2.411  0.4944 -0.7588 -0.2383
   37MOL   C10010252   4.894   2.813   1.866  0.2984  0.2284 -0.0655
   37MOL   C10110253   4.860   2.883   1.748 -0.0121  0.4035 -0.1029
   37MOL   C10210254   4.742   2.855   1.681 -0.6963  0.4545  0.5881
   37MOL   C10310255   4.654   2.758   1.735 -0.4522  0.1950  0.7691
   37MOL   C10410256   4.531   2.720   1.658 -0.5428  0.4620 -0.3911
   37MOL   C10510257   4.472   2.598   1.655  0.1682 -0.4185 -0.8623
   37MOL   C10610258   4.690   2.689   1.849  0.5499  0.5229 -0.3687
   37MOL   C10710259   4.810   2.711   1.919  0.0295 -0.1359  0.5869
   37MOL   H10810260   4.917   2.967   1.711 -3.3513  2.4344 -0.8034
   37MOL   H10910261   4.719   2.910   1.591 -1.8111 -1.9925 -0.6391
   37MOL   H11010262   4.492   2.799   1.596  1.4171  0.5562 -1.5370
   37MOL   H11110263   4.516   2.518   1.712  0.2088 -0.6354 -1.1997
   37MOL   H11210264   4.636   2.605   1.891 -0.2637  1.4573  0.4656
   37MOL   H11310265   4.823   2.654   2.010  0.1356 -0.6002  0.2818
   37MOL   C11410266   4.347   2.562   1.583  0.4744  0.1415 -0.4365
   37MOL   C11510267   4.290   2.436   1.601 -0.0949 -0.0159  0.1459
   37MOL   C11610268   4.176   2.390   1.530 -0.5176  0.4359 -0.1436
   37MOL   C11710269   4.106   2.478   1.447  0.9267 -0.3188 -0.2232
   37MOL   C11810270   3.981   2.432   1.389  0.5472  1.4351  0.4781
   37MOL   C11910271   3.930   2.483   1.278 -0.1022  0.0797  0.4298
   37MOL   C12010272   4.154   2.614   1.440  0.4716  0.1325  0.8463
   37MOL   C12110273   4.272   2.650   1.501  0.2953 -0.4530  0.1031
   37MOL   H12210274   4.342   2.366   1.664  0.0007  1.9592  2.3423
   37MOL   H12310275   4.145   2.287   1.522 -2.4207  1.0564 -1.0583
   37MOL   H12410276   3.932   2.351   1.441 -2.4598  2.0503 -1.3129
   37MOL   H12510277   3.986   2.561   1.229 -0.6268  0.6186  0.6908
   37MOL   H12610278   4.114   2.683   1.367 -1.1809 -1.1920  0.4662
   37MOL   H12710279   4.300   2.754   1.494  1.2592 -0.6387  0.9725
   37MOL   C12810280   3.805   2.461   1.217 -0.7854 -0.9236  0.3331
   37MOL   C12910281   3.782   2.506   1.090 -0.1331  0.0968 -0.0365
   37MOL   C13010282   3.662   2.469   1.027 -0.3746 -0.5005 -0.7009
   37MOL   C13110283   3.559   2.393   1.083  0.2227  0.0985 -0.2780
   37MOL   C13210284   3.439   2.351   1.008 -0.1659 -0.3882  0.1862
   37MOL   C13310285   3.322   2.302   1.059  0.0338 -0.4105  0.0724
   37MOL   C13410286   3.577   2.358   1.216 -0.2306  0.6509 -0.5039
   37MOL   C13510287   3.701   2.384   1.276  0.0479  0.2545  0.5611
   37MOL   H13610288   3.865   2.550   1.037 -1.2180  0.8984 -1.1062
   37MOL   H13710289   3.667   2.513   0.928 -1.1451  2.6287  0.5873
   37MOL   H13810290   3.456   2.355   0.902 -2.4018 -1.2710 -0.2346
   37MOL   H13910291   3.315   2.286   1.166 -0.6758 -0.6917 -0.0124
   37MOL   H14010292   3.506   2.292   1.264  0.3073 -1.2477 -2.2498
   37MOL   H14110293   3.713   2.337   1.372 -1.1241 -0.1504  0.5213
   37MOL   C14210294   3.204   2.266   0.975  0.4600  0.1639  0.5349
   37MOL   C14310295   3.190   2.289   0.841  0.3778 -0.6842 -0.0253
   37MOL   C14410296   3.085   2.244   0.760 -0.2293 -0.1547  0.4203
   37MOL   C14510297   2.989   2.161   0.816  0.5140 -0.1840  0.2947
   37MOL   C14610298   2.894   2.093   0.730  0.0328  0.1497 -0.2771
   37MOL   C14710299   2.852   1.967   0.748 -0.5020  0.5963 -0.0737
   37MOL   C14810300   2.992   2.140   0.958 -0.6216  0.2854  0.4488
   37MOL   C14910301   3.105   2.184   1.034 -0.4838 -1.3909 -0.3567
   37MOL   H15010302   3.273   2.331   0.786 -1.1147 -0.5250 -2.2598
   37MOL   H15110303   3.079   2.248   0.652  3.0871 -2.0599  0.0909
   37MOL   H15210304   2.848   2.148   0.649 -1.1538  0.4116  0.5500
   37MOL   H15310305   2.887   1.902   0.827 -3.9425 -1.2465  0.0626
   37MOL   H15410306   2.911   2.091   1.010 -1.3013  1.0516  0.1269
   37MOL   H15510307   3.111   2.158   1.139  1.5961  0.4801  0.0037
   37MOL   C15610308   2.750   1.900   0.664  0.3844  0.9034  0.6761
   37MOL   C15710309   2.679   1.790   0.716  0.4379  0.5021 -0.0031
   37MOL   C15810310   2.600   1.705   0.631  0.1034 -0.7127 -0.4685
   37MOL   C15910311   2.571   1.750   0.503  0.6850  0.0472 -0.0641
   37MOL   C16010312   2.497   1.658   0.416  0.0296  0.1052 -0.3202
   37MOL   C16110313   2.480   1.665   0.285  0.2211 -0.4385 -0.5687
   37MOL   C16210314   2.632   1.870   0.454 -0.4949  0.0676 -0.1390
   37MOL   C16310315   2.722   1.945   0.534 -0.4014  0.3871  0.8766
   37MOL   H16410316   2.712   1.759   0.815  1.7565 -3.1158 -1.4808
   37MOL   H16510317   2.559   1.614   0.672  1.1942 -1.1756 -0.3799
   37MOL   H16610318   2.454   1.574   0.468  1.3349 -0.0064  0.5890
   37MOL   H16710319   2.517   1.750   0.230 -1.4993 -0.3218 -1.5895
   37MOL   H16810320   2.618   1.901   0.352 -0.9608 -0.7298 -0.3229
   37MOL   H16910321   2.776   2.024   0.483  0.8154 -1.1954 -0.3935
   37MOL   C17010322   2.424   1.572   0.196  0.3829 -0.3603  0.0815
   37MOL   C17110323   2.413   1.609   0.057 -0.1417  0.1354  0.8161
   37MOL   C17210324   2.358   1.519   8.108  0.0804  0.2582 -0.7292
   37MOL   C17310325   2.321   1.388   0.003  0.3507 -0.1203  0.4955
   37MOL   C17410326   2.300   1.288   8.043  0.1792  0.2452 -0.3145
   37MOL   C17510327   2.275   1.311   7.914 -1.4808 -0.4101 -0.7036
   37MOL   C17610328   2.309   1.364   0.142 -0.2123  0.1046 -0.2236
   37MOL   C17710329   2.361   1.451   0.238  0.9454  0.5443  0.9430
   37MOL   H17810330   2.441   1.705   0.016 -0.7557 -0.3574 -0.8177
   37MOL   H17910331   2.345   1.557   8.008  0.0057 -0.1045 -0.8551
   37MOL   H18010332   2.316   1.184   8.066 -0.6018  0.0657 -0.5613
   37MOL   H18110333   2.268   1.413   7.880 -0.0731  0.7508  2.3108
   37MOL   H18210334   2.273   1.265   0.168  0.3691 -0.0534 -0.0115
   37MOL   H18310335   2.344   1.435   0.343 -0.0888 -3.0544  0.3114
   37MOL   C18410336   2.265   1.217   7.796 -0.2075 -0.7189  0.4736
   37MOL   C18510337   2.185   1.247   7.683 -0.1696  0.6527 -0.1665
   37MOL   C18610338   2.193   1.157   7.571  0.1901  0.1387  0.0271
   37MOL   C18710339   2.258   1.036   7.583  0.2197 -0.2131 -0.3575
   37MOL   C18810340   2.280   0.961   7.455 -0.5737  0.3339  0.3675
   37MOL   C18910341   2.365   0.858   7.440  0.6344 -0.2530  0.2169
   37MOL   C19010342   2.317   0.992   7.706  0.2816 -0.2258 -0.4865
   37MOL   C19110343   2.322   1.085   7.808  0.8123  0.7145  0.6761
   37MOL   H19210344   2.130   1.340   7.678 -1.0947  0.1202 -0.0970
   37MOL   H19310345   2.136   1.176   7.481  1.2854  0.8043 -0.5310
   37MOL   H19410346   2.212   1.000   7.381 -1.2187 -2.0504 -0.3401
   37MOL   H19510347   2.420   0.813   7.522 -1.4004 -1.7089  0.8209
   37MOL   H19610348   2.362   0.894   7.711 -1.6506 -1.1318 -0.2638
   37MOL   H19710349   2.385   1.083   7.895  1.4698  1.6591  0.2303
   37MOL   C19810350   2.400   0.806   7.311  0.9600 -0.0998  0.1058
   37MOL   C19910351   2.361   0.872   7.186  0.4900  0.4229 -0.5534
   37MOL   C20010352   2.423   0.840   7.058  0.7797 -0.1874 -0.0371
   37MOL   C20110353   2.519   0.739   7.063 -0.4039  0.1806  0.3086
   37MOL   C20210354   2.615   0.721   6.950  0.7995  0.1163  0.4833
   37MOL   C20310355   2.649   0.820   6.863  0.5036  0.0307 -0.6428
   37MOL   C20410356   2.541   0.659   7.174  0.2659  0.1266 -0.0615
   37MOL   C20510357   2.472   0.688   7.293 -0.4137  0.0676  0.7928
   37MOL   H20610358   2.294   0.957   7.181  1.7375  1.4746  0.4071
   37MOL   H20710359   2.399   0.899   6.970  1.1884  3.0185  1.9058
   37MOL   H20810360   2.652   0.620   6.936 -1.2813 -0.7411  1.0492
   37MOL   H20910361   2.610   0.916   6.894 -2.3129 -0.4512 -2.5284
   37MOL   H21010362   2.626   0.593   7.167  1.3630  1.3388  1.5963
   37MOL   H21110363   2.506   0.633   7.379 -2.0202 -2.7757 -0.3248
   37MOL   C21210364   2.737   0.820   6.745 -0.1227  0.4717  0.3816
   37MOL   C21310365   2.821   0.720   6.710 -0.8342 -0.1072 -0.4533
   37MOL   C21410366   2.897   0.726   6.593  0.0164  0.0869  0.0418
   37MOL   C21510367   2.901   0.838   6.512 -0.2093 -0.4874  0.5407
   37MOL   C21610368   2.988   0.829   6.391  0.3028  0.1872  0.0381
   37MOL   C21710369   2.977   0.920   6.289 -0.5172 -0.4565  0.6270
   37MOL   C21810370   2.826   0.951   6.555  0.1759 -0.1745 -0.3444
   37MOL   C21910371   2.742   0.937   6.666  0.0425 -0.0512  0.3804
   37MOL   H22010372   2.820   0.630   6.770 -1.8999 -2.4593 -3.8561
   37MOL   H22110373   2.939   0.636   6.551  0.1863 -0.6611  1.7830
   37MOL   H22210374   3.065   0.754   6.383 -1.3280 -1.4726 -0.5140
   37MOL   H22310375   2.907   1.001   6.282  0.5520  0.6249  2.2225
   37MOL   H22410376   2.844   1.041   6.499  0.7480 -1.1419 -1.7268
   37MOL   H22510377   2.682   1.021   6.698 -2.4107 -0.3952 -3.0469
   37MOL   C22610378   3.062   0.914   6.170 -0.6229  0.3136  0.4957
   37MOL   C22710379   3.065   1.028   6.093 -0.1730  0.1786  0.2844
   37MOL   C22810380   3.143   1.030   5.975  0.1569 -0.0600  0.1970
   37MOL   C22910381   3.210   0.914   5.926  0.5801 -0.8999  0.2956
   37MOL   C23010382   3.276   0.909   5.788  0.2031  0.6093 -0.1412
   37MOL   C23110383   3.277   0.997   5.688 -1.4927  0.3905 -0.0662
   37MOL   C23210384   3.215   0.796   6.012  0.3834  0.7945 -0.4047
   37MOL   C23310385   3.141   0.798   6.132  0.3278  0.7117 -0.1647
   37MOL   H23410386   3.006   1.113   6.121  1.7393  2.1709 -1.4761
   37MOL   H23510387   3.143   1.116   5.909 -0.0641  1.0690  1.6222
   37MOL   H23610388   3.331   0.819   5.767  0.9016  0.6644  1.3801
   37MOL   H23710389   3.224   1.090   5.703 -0.0533  1.1356  0.4986
   37MOL   H23810390   3.279   0.711   5.990 -1.8094 -0.3541 -2.5535
   37MOL   H23910391   3.131   0.702   6.181  1.5306  0.7773  0.2165
   37MOL   C24010392   3.348   0.978   5.565 -0.1336 -0.3443  0.2797
   37MOL   C24110393   3.401   1.090   5.501 -0.8153  0.0753 -0.2755
   37MOL   C24210394   3.485   1.072   5.391  0.1855 -0.4740 -0.3209
   37MOL   C24310395   3.506   0.944   5.332 -0.0631  0.2196  0.2887
   37MOL   C24410396   3.581   0.921   5.206 -0.3139 -0.1430  0.5776
   37MOL   C24510397   3.643   1.010   5.124  0.4622  0.6199  0.9133
   37MOL   C24610398   3.457   0.830   5.398  0.4488 -0.2444 -0.1255
   37MOL   C24710399   3.377   0.846   5.516  0.0809  0.3586 -0.7554
   37MOL   H24810400   3.371   1.189   5.534 -0.8795  0.3023 -1.0073
   37MOL   H24910401   3.533   1.160   5.351  0.4143 -0.1057  0.7708
   37MOL   H25010402   3.591   0.817   5.181 -0.0892  0.0598 -0.1830
   37MOL   H25110403   3.633   1.116   5.143 -1.5718  0.4194  1.0340
   37MOL   H25210404   3.481   0.734   5.355 -1.5618  0.1000 -2.1280
   37MOL   H25310405   3.333   0.756   5.559 -1.2278 -0.2261 -3.1930
   37MOL   C25410406   3.715   0.979   5.001 -0.6962  0.2244 -0.4093
   37MOL   C25510407   3.809   1.076   4.954 -0.1701  0.6657  0.0623
   37MOL   C25610408   3.884   1.052   4.837  0.1902  0.5032  0.3471
   37MOL   C25710409   3.865   0.941   4.762 -0.2628  0.4535  0.3966
   37MOL   C25810410   3.955   0.916   4.644  0.5517 -0.0137 -0.0442
   37MOL   C25910411   3.922   0.859   4.525  0.1385 -0.8385  0.0373
   37MOL   C26010412   3.781   0.839   4.813  0.4601 -0.1712  0.1550
   37MOL   C26110413   3.706   0.853   4.933  0.5017  0.0257  0.4742
   37MOL   H26210414   3.823   1.171   5.003 -0.3742  0.8819 -0.3028
   37MOL   H26310415   3.948   1.132   4.803 -2.9623  2.1940 -1.9064
   37MOL   H26410416   4.052   0.962   4.658 -0.3249  1.9819 -0.3788
   37MOL   H26510417   4.006   0.855   4.457 -0.3008 -1.9963 -0.4438
   37MOL   H26610418   3.780   0.746   4.758  1.3668  0.0870 -0.3126
   37MOL   H26710419   3.646   0.770   4.970 -2.3830  1.2826 -1.1670
   37MOL   C26810420   3.796   0.798   4.483 -0.4100 -0.7025 -0.7979
   37MOL   C26910421   3.804   0.690   4.395  0.4151  0.8230  0.6850
   37MOL   C27010422   3.689   0.639   4.328 -0.3073  0.0573 -0.2898
   37MOL   C27110423   3.563   0.682   4.373 -0.3211  0.5916  0.0810
   37MOL   C27210424   3.435   0.617   4.317  0.2179 -0.4902  0.7101
   37MOL   C27310425   3.431   0.524   4.216  0.0377 -0.2829 -0.4612
   37MOL   C27410426   3.551   0.781   4.470 -0.1838  0.7211 -0.1309
   37MOL   C27510427   3.667   0.848   4.519  0.7279  0.9366 -0.6256
   37MOL   H27610428   3.901   0.655   4.363 -0.4409 -1.0073  0.0579
   37MOL   H27710429   3.691   0.560   4.254  2.2690  0.2808 -0.5037
   37MOL   H27810430   3.338   0.635   4.362 -0.0224  1.2456 -0.4473
   37MOL   H27910431   3.524   0.497   4.170  0.8814  2.0240 -0.2040
   37MOL   H28010432   3.461   0.827   4.509  0.3133  2.3969 -0.9298
   37MOL   H28110433   3.668   0.928   4.591 -0.9301  0.3640  0.0669
   37MOL   H28210434   3.341   0.472   4.186  0.5911 -0.8907 -1.0729
   38MOL     C110435   4.333   3.542   7.400 -0.2392  0.1656 -0.1815
   38MOL     C210436   4.247   3.644   7.448  0.0953 -0.7762  0.1433
   38MOL     C310437   4.230   3.654   7.586 -0.4357 -0.3856  0.3293
   38MOL     C410438   4.294   3.555   7.668 -0.1343  0.4579 -0.3340
   38MOL     C510439   4.271   3.553   7.813  0.3918  0.3263 -0.4642
   38MOL     C610440   4.334   3.485   7.910 -0.2626 -0.4443 -0.2689
   38MOL     C710441   4.387   3.466   7.620 -0.3241  0.4664 -0.3571
   38MOL     C810442   4.406   3.457   7.481 -0.3880  0.0854 -0.2519
   38MOL     H910443   4.188   3.702   7.379  0.1314 -1.6115 -0.6041
   38MOL    H1010444   4.150   3.710   7.631 -0.2893  0.3088 -0.2660
   38MOL    H1110445   4.197   3.626   7.845 -1.4718 -0.0449 -3.6930
   38MOL    H1210446   4.413   3.415   7.886  0.1439 -0.2511  0.4832
   38MOL    H1310447   4.432   3.389   7.680 -0.2506  1.4025  0.8111
   38MOL    H1410448   4.465   3.379   7.436  0.6657 -0.3951  1.9183
   38MOL    H1510449   4.346   3.529   7.293  0.2617  0.8000 -0.2049
   38MOL    C1610450   4.292   3.499   8.051  0.8122 -0.2568  0.3704
   38MOL    C1710451   4.162   3.534   8.089 -0.7492  0.0560  1.0305
   38MOL    C1810452   4.129   3.544   0.082 -0.5208 -0.6148 -0.5563
   38MOL    C1910453   4.221   3.520   0.181  0.5972 -0.0187 -0.8044
   38MOL    C2010454   4.182   3.547   0.319 -0.0062 -0.5397  0.2404
   38MOL    C2110455   4.267   3.594   0.411 -0.1459  0.1557  0.4687
   38MOL    C2210456   4.350   3.485   0.143 -0.7398 -0.6363 -0.0452
   38MOL    C2310457   4.391   3.476   0.007  0.5452 -0.8344 -0.0020
   38MOL    H2410458   4.086   3.553   8.016  1.6424 -0.8910 -1.7893
   38MOL    H2510459   4.027   3.569   0.105 -0.5007  1.7319 -2.8187
   38MOL    H2610460   4.078   3.535   0.344 -0.4788 -0.1718 -1.4821
   38MOL    H2710461   4.372   3.610   0.391 -0.4527  2.4970  0.6040
   38MOL    H2810462   4.421   3.476   0.224 -0.3055  0.2595 -0.3172
   38MOL    H2910463   4.494   3.457   8.128  1.7532  2.7680  2.0371
   38MOL    C3010464   4.228   3.617   0.552 -0.1579  0.4359  1.0401
   38MOL    C3110465   4.314   3.674   0.642  0.6259  0.8088 -0.7420
   38MOL    C3210466   4.270   3.726   0.771 -0.4926 -0.5631  0.5637
   38MOL    C3310467   4.139   3.705   0.810  0.5668 -0.1805 -0.1671
   38MOL    C3410468   4.085   3.775   0.930 -0.2293 -0.8152 -0.3336
   38MOL    C3510469   3.983   3.858   0.917  0.3146 -0.5973  0.1875
   38MOL    C3610470   4.051   3.637   0.728 -0.7916  0.5105 -0.1663
   38MOL    C3710471   4.088   3.598   0.599 -0.1771  0.6282  0.3300
   38MOL    H3810472   4.415   3.691   0.608  1.1649 -1.1422 -0.1512
   38MOL    H3910473   4.335   3.784   0.835  0.0234  0.5762 -0.9543
   38MOL    H4010474   4.122   3.765   1.031  0.6563  1.9153 -0.3412
   38MOL    H4110475   3.940   3.883   0.822  1.0476  0.9800  0.2700
   38MOL    H4210476   3.949   3.635   0.761 -0.3632 -1.3925  1.1170
   38MOL    H4310477   4.011   3.569   0.530 -2.1844  0.9774  2.3804
   38MOL    C4410478   3.911   3.915   1.032  1.1273 -0.2756 -0.8830
   38MOL    C4510479   3.838   4.032   1.010  0.8261  0.2125  0.3566
   38MOL    C4610480   3.776   4.104   1.110  0.6641  0.3425  0.5366
   38MOL    C4710481   3.782   4.051   1.241  0.1601  0.8111 -0.4628
   38MOL    C4810482   3.725   4.134   1.351  0.0712 -0.2086  0.1444
   38MOL    C4910483   3.752   4.133   1.484  1.0060 -0.0411  0.0233
   38MOL    C5010484   3.851   3.932   1.269  1.0753 -0.6143 -0.7868
   38MOL    C5110485   3.915   3.866   1.164 -0.9583 -0.2673  0.0908
   38MOL    H5210486   3.843   4.079   0.913 -0.4140  0.6854  0.5129
   38MOL    H5310487   3.735   4.203   1.096 -2.7435 -1.2016 -1.1165
   38MOL    H5410488   3.655   4.210   1.321 -0.1986 -0.1656  0.8955
   38MOL    H5510489   3.821   4.062   1.528  1.2885 -0.0166 -0.3879
   38MOL    H5610490   3.861   3.894   1.369 -0.7187  1.7399  0.3613
   38MOL    H5710491   3.970   3.776   1.187 -0.0241 -0.1183 -1.4645
   38MOL    C5810492   3.698   4.235   1.573  0.3620 -0.4714  0.3970
   38MOL    C5910493   3.686   4.369   1.527 -0.1368  0.0995  0.2554
   38MOL    C6010494   3.630   4.465   1.613  0.1338  0.0465  0.5460
   38MOL    C6110495   3.577   4.436   1.742 -0.6357 -0.2130  0.1477
   38MOL    C6210496   3.514   4.539   1.824  0.5154 -0.6863  0.1032
   38MOL    C6310497   3.470   4.533   1.951 -0.8701  0.4223  0.5939
   38MOL    C6410498   3.588   4.306   1.785  0.1743  0.5309 -0.1396
   38MOL    C6510499   3.648   4.204   1.700 -0.1044  0.2927 -0.0829
   38MOL    H6610500   3.723   4.397   1.430 -1.1685  0.0878 -0.1501
   38MOL    H6710501   3.633   4.569   1.584  0.0989  0.2624  1.3032
   38MOL    H6810502   3.485   4.622   1.762  0.3244  0.2561  1.4199
   38MOL    H6910503   3.490   4.447   2.014  0.7609  1.5993  1.6890
   38MOL    H7010504   3.542   4.286   1.881 -0.7711 -1.5720 -1.0028
   38MOL    H7110505   3.646   4.102   1.736  2.6458  0.4644  0.7202
   38MOL    C7210506   3.396   4.629   2.018  0.1617  0.5149 -0.6915
   38MOL    C7310507   3.396   4.761   1.975  0.0598 -0.1830 -0.3326
   38MOL    C7410508   3.318   4.861   2.031  0.3409 -0.3931  0.4351
   38MOL    C7510509   3.227   4.822   2.134 -0.3000 -0.1029  0.6775
   38MOL    C7610510   3.116   4.908   2.171  0.6062  0.0740 -0.1266
   38MOL    C7710511   3.050   4.984   2.084  0.3879 -0.7783  0.4379
   38MOL    C7810512   3.230   4.693   2.189 -0.0914 -0.8010  0.3628
   38MOL    C7910513   3.311   4.594   2.132  0.3299 -0.3005  0.0698
   38MOL    H8010514   3.452   4.798   1.889 -1.7616 -1.7611 -2.2400
   38MOL    H8110515   3.321   4.958   1.984  1.7715  0.6847  2.6393
   38MOL    H8210516   3.084   4.903   2.274  1.2999  3.3557  0.2930
   38MOL    H8310517   3.089   4.975   1.984 -1.1814 -0.7482 -0.1959
   38MOL    H8410518   3.155   4.671   2.263 -0.8417  0.7628  0.0991
   38MOL    H8510519   3.312   4.491   2.164 -0.4536 -0.2961  0.1207
   38MOL    C8610520   2.937   5.074   2.101 -0.0790 -0.2143  0.5280
   38MOL    C8710521   2.860   5.116   1.988  0.3910 -0.0581 -0.5265
   38MOL    C8810522   2.741   5.190   2.009  0.2482 -0.8735  0.0501
   38MOL    C8910523   2.704   5.232   2.139 -0.3391 -0.3943 -0.4493
   38MOL    C9010524   2.580   5.303   2.158 -0.1197  0.0955  0.2928
   38MOL    C9110525   2.492   5.343   2.064  0.6056  0.7128 -0.2028
   38MOL    C9210526   2.785   5.200   2.249 -0.2491  0.0328 -0.0095
   38MOL    C9310527   2.905   5.119   2.232  0.0082 -0.0165  0.5049
   38MOL    H9410528   2.874   5.081   1.887 -4.7267  2.1828 -2.1756
   38MOL    H9510529   2.679   5.218   1.925  1.0715  1.8104  0.2768
   38MOL    H9610530   2.563   5.325   2.263  2.6318  0.3733  0.7142
   38MOL    H9710531   2.514   5.327   1.959 -1.1206  0.8130 -0.6006
   38MOL    H9810532   2.764   5.252   2.341  2.0418  3.4207 -1.2745
   38MOL    H9910533   2.952   5.086   2.324  0.9078 -1.3690 -0.4337
   38MOL   C10010534   2.368   5.419   2.085  0.1484  0.4946 -0.0554
   38MOL   C10110535   2.304   5.435   2.213 -0.4200  0.6714 -0.5388
   38MOL   C10210536   2.180   5.508   2.225  0.3371  0.0462 -0.0364
   38MOL   C10310537   2.112   5.559   2.111 -0.2451  0.1228 -0.7453
   38MOL   C10410538   1.987   5.632   2.124  0.0121 -0.3859 -0.2784
   38MOL   C10510539   1.927   5.710   2.028 -0.2937  0.1195  0.2127
   38MOL   C10610540   2.176   5.556   1.989  0.3304  0.0427  0.4918
   38MOL   C10710541   2.296   5.479   1.983  0.0832 -0.1109 -0.0154
   38MOL   H10810542   2.349   5.402   2.306  1.4736  5.4608  0.3775
   38MOL   H10910543   2.142   5.522   2.325  0.6533 -1.3568  0.2860
   38MOL   H11010544   1.942   5.625   2.222  0.4443  1.4025  0.0681
   38MOL   H11110545   1.971   5.715   1.930 -0.7779 -1.9880 -0.1200
   38MOL   H11210546   2.138   5.589   1.893  0.5072 -4.0227 -1.1129
   38MOL   H11310547   2.336   5.482   1.882 -0.7313 -3.5207 -0.4919
   38MOL   C11410548   1.804   5.783   2.031 -0.8674  0.5207  0.2767
   38MOL   C11510549   1.736   5.823   2.145 -0.3239  0.3165 -0.0821
   38MOL   C11610550   1.609   5.881   2.130 -0.2883 -0.0773 -0.7531
   38MOL   C11710551   1.552   5.922   2.004 -0.0623  0.4308  0.1038
   38MOL   C11810552   1.421   5.978   1.988 -0.4647  0.1126 -0.8938
   38MOL   C11910553   1.379   6.033   1.877 -0.1841 -0.2094  1.2997
   38MOL   C12010554   1.642   5.903   1.895  0.3169 -0.0055 -0.2417
   38MOL   C12110555   1.765   5.834   1.908  0.0310  0.3494 -0.6229
   38MOL   H12210556   1.760   5.785   2.244  1.2865 -2.1448 -1.3762
   38MOL   H12310557   1.548   5.896   2.218  0.8027  2.4759 -0.3932
   38MOL   H12410558   1.362   5.974   2.078 -2.7093  0.2595 -2.3093
   38MOL   H12510559   1.449   6.044   1.795 -1.3539  0.7721  0.4140
   38MOL   H12610560   1.618   5.933   1.794  1.0040 -1.4165 -0.8430
   38MOL   H12710561   1.818   5.805   1.818  0.1713 -1.5013  0.0255
   38MOL   C12810562   1.250   6.088   1.854 -0.0303  0.6992 -0.6633
   38MOL   C12910563   1.147   6.106   1.956 -0.4204 -0.4963 -0.3538
   38MOL   C13010564   1.011   6.153   1.918  0.2193 -0.5058 -1.0762
   38MOL   C13110565   0.985   6.192   1.787  0.0612  0.5869  0.2768
   38MOL   C13210566   0.862   6.250   1.743 -0.2470 -0.8640 -0.4808
   38MOL   C13310567   0.750   6.276   1.809 -0.4157  0.3887  0.1732
   38MOL   C13410568   1.084   6.168   1.692  0.4775  0.6277 -0.4930
   38MOL   C13510569   1.214   6.133   1.728 -0.2661 -0.2037 -0.3925
   38MOL   H13610570   1.159   6.086   2.061 -1.2024  1.0895  0.0694
   38MOL   H13710571   0.938   6.156   1.997  0.6283 -0.4508 -0.7011
   38MOL   H13810572   0.855   6.277   1.639  0.4588 -1.9466 -0.8168
   38MOL   H13910573   0.746   6.244   1.912  0.7721  1.5344  0.5881
   38MOL   H14010574   1.069   6.186   1.586 -0.6997 -1.0457 -0.6236
   38MOL   H14110575   1.281   6.116   1.645  0.6679 -0.7173  0.4504
   38MOL   C14210576   0.626   6.329   1.757  0.0844  0.0885  0.3818
   38MOL   C14310577   0.510   6.346   1.841  0.2796  0.0830 -0.4434
   38MOL   C14410578   0.396   6.411   1.795 -0.3303 -0.1511  0.5804
   38MOL   C14510579   0.397   6.447   1.660  0.3154  0.3039  0.0228
   38MOL   C14610580   0.276   6.506   1.600 -0.0203  0.3167  1.0014
   38MOL   C14710581   0.147   6.504   1.647 -0.8498 -0.1569 -0.5585
   38MOL   C14810582   0.502   6.434   1.572  0.4504  0.0623 -0.1927
   38MOL   C14910583   0.620   6.371   1.619 -0.1852  0.1316 -0.3023
   38MOL   H15010584   0.501   6.319   1.946  2.4280  2.1035  0.3169
   38MOL   H15110585   0.306   6.425   1.854 -0.9557 -0.6202 -0.2515
   38MOL   H15210586   0.301   6.558   1.509  0.7003  0.0100  1.0261
   38MOL   H15310587   0.116   6.451   1.735  0.2324  0.7805  0.4140
   38MOL   H15410588   0.487   6.465   1.470  1.3854 -1.2146 -0.7288
   38MOL   H15510589   0.700   6.361   1.547 -0.5836 -0.9004 -0.6180
   38MOL   C15610590   0.032   6.573   1.578  0.2250  0.1646 -0.6685
   38MOL   C15710591   8.062   6.605   1.649  0.0247 -0.6394 -0.7976
   38MOL   C15810592   7.949   6.669   1.588 -0.4585 -0.4514 -0.2159
   38MOL   C15910593   7.955   6.686   1.452 -0.4750 -0.1087  1.1017
   38MOL   C16010594   7.831   6.725   1.376 -0.2646  0.0023 -0.0246
   38MOL   C16110595   7.712   6.730   1.423 -0.4039  0.0482  0.3772
   38MOL   C16210596   8.072   6.658   1.378 -0.9453  0.5269 -0.0183
   38MOL   C16310597   0.038   6.607   1.442  0.4437  1.2327  0.7996
   38MOL   H16410598   8.047   6.566   1.748  1.5805  2.5595  0.7544
   38MOL   H16510599   7.864   6.692   1.652 -0.0677 -0.2300  0.2331
   38MOL   H16610600   7.853   6.764   1.278  2.5777  0.4440  0.7203
   38MOL   H16710601   7.705   6.693   1.524  1.9807 -3.5427 -0.6598
   38MOL   H16810602   8.078   6.670   1.271  0.3299 -1.6815 -0.2259
   38MOL   H16910603   0.123   6.589   1.378 -1.5527 -0.6700 -1.4190
   38MOL   C17010604   7.586   6.763   1.357 -0.2473 -0.1407 -0.4884
   38MOL   C17110605   7.573   6.811   1.224 -0.7297  0.0792  0.1046
   38MOL   C17210606   7.449   6.852   1.170 -0.4066  0.6771  0.3671
   38MOL   C17310607   7.334   6.854   1.253 -1.2232  0.0737 -0.4149
   38MOL   C17410608   7.203   6.890   1.196 -0.3612 -0.2303  0.5691
   38MOL   C17510609   7.085   6.873   1.262 -0.0461 -0.1902 -0.6233
   38MOL   C17610610   7.351   6.810   1.385  0.2120 -0.2729  0.2955
   38MOL   C17710611   7.468   6.761   1.438 -0.5818  0.2354 -0.2646
   38MOL   H17810612   7.661   6.821   1.163 -1.4038 -0.2325 -0.9282
   38MOL   H17910613   7.436   6.893   1.071  0.4336 -0.5919 -0.2888
   38MOL   H18010614   7.208   6.935   1.098 -3.0951  1.1491  1.0050
   38MOL   H18110615   7.086   6.818   1.356 -2.7208 -0.3866 -0.6601
   38MOL   H18210616   7.267   6.815   1.452  0.9202  0.5497  1.1348
   38MOL   H18310617   7.471   6.722   1.539  0.6208 -0.1254 -0.4319
   38MOL   C18410618   6.946   6.899   1.215 -0.0684 -0.1839 -0.3943
   38MOL   C18510619   6.923   6.952   1.083 -0.5216 -0.8379 -0.3189
   38MOL   C18610620   6.794   6.990   1.049 -0.7294 -0.4659  0.4650
   38MOL   C18710621   6.685   6.975   1.133 -0.3812  0.3935 -0.3702
   38MOL   C18810622   6.535   6.994   1.098  0.4533 -0.2074 -0.2363
   38MOL   C18910623   6.492   7.032   0.980 -0.0316  0.3476  0.2590
   38MOL   C19010624   6.710   6.928   1.265  0.5338  0.3274 -0.0089
   38MOL   C19110625   6.844   6.897   1.307  0.2046  0.2962  0.0147
   38MOL   H19210626   7.004   6.974   1.014 -1.5912 -0.4295 -1.4679
   38MOL   H19310627   6.775   7.033   0.952  0.6060  0.7913  0.7229
   38MOL   H19410628   6.468   6.975   1.181  2.1348  0.7907  1.3920
   38MOL   H19510629   6.566   7.046   0.903 -1.2769 -1.4481 -1.3073
   38MOL   H19610630   6.626   6.913   1.331  1.0058  2.4089  1.0999
   38MOL   H19710631   6.861   6.856   1.405  3.0402 -2.2363 -1.4504
   38MOL   C19810632   6.344   7.067   0.956  0.0028 -0.3679  0.6793
   38MOL   C19910633   6.231   7.041   1.044 -0.2323  0.1636  0.2786
   38MOL   C20010634   6.101   7.061   0.995 -0.7386 -0.0595  0.1412
   38MOL   C20110635   6.076   7.106   0.862  0.3088  0.4060  0.1796
   38MOL   C20210636   5.944   7.147   0.810 -0.2822  0.2836  0.2962
   38MOL   C20310637   5.837   7.162   0.885 -0.1719 -1.0106 -0.2946
   38MOL   C20410638   6.191   7.122   0.770  0.9215 -0.6910 -0.1969
   38MOL   C20510639   6.318   7.106   0.824 -0.4963 -0.3828 -0.6360
   38MOL   H20610640   6.235   7.010   1.147  1.0516 -0.9918 -0.1027
   38MOL   H20710641   6.023   7.052   1.070  0.1928  1.2210  1.3034
   38MOL   H20810642   5.937   7.169   0.705  1.8153 -0.0105  0.0711
   38MOL   H20910643   5.848   7.148   0.991 -1.9340 -1.4316 -0.1665
   38MOL   H21010644   6.180   7.161   0.670  3.6794  1.4552  0.2872
   38MOL   H21110645   6.393   7.116   0.747 -0.4051 -0.9757 -0.6286
   38MOL   C21210646   5.703   7.196   0.832  0.7356  1.0691 -0.0082
   38MOL   C21310647   5.682   7.225   0.696 -0.0799 -0.1824 -0.1135
   38MOL   C21410648   5.546   7.226   0.648 -0.7653  0.5305 -0.0555
   38MOL   C21510649   5.439   7.231   0.738 -0.3228  0.7618 -0.0373
   38MOL   C21610650   5.301   7.260   0.704  0.2953  0.2827  0.2000
   38MOL   C21710651   5.257   7.341   0.604  0.4120  0.1085  0.1554
   38MOL   C21810652   5.464   7.189   0.869 -0.2573  0.2855 -0.1688
   38MOL   C21910653   5.590   7.174   0.917  0.4934  0.2906 -0.9243
   38MOL   H22010654   5.763   7.226   0.624  0.6722 -0.5429  0.7202
   38MOL   H22110655   5.535   7.247   0.543  3.7331  1.2378 -0.4736
   38MOL   H22210656   5.224   7.212   0.763 -0.4042  0.3006 -0.6843
   38MOL   H22310657   5.325   7.387   0.534  0.1250 -0.5386 -0.5623
   38MOL   H22410658   5.376   7.183   0.932 -0.4470  1.8405 -0.2592
   38MOL   H22510659   5.616   7.142   1.017 -1.5644 -0.2540 -0.5442
   38MOL   C22610660   5.118   7.370   0.571 -0.4594 -0.3612  0.2938
   38MOL   C22710661   5.089   7.398   0.439  0.0787  0.4804  0.2963
   38MOL   C22810662   4.960   7.441   0.402  1.5215 -0.2495 -0.0169
   38MOL   C22910663   4.853   7.424   0.492  0.2431  0.2700 -0.5229
   38MOL   C23010664   4.716   7.459   0.448 -0.1549 -0.2777 -0.2711
   38MOL   C23110665   4.604   7.443   0.528  0.4977 -0.0105  0.0970
   38MOL   C23210666   4.877   7.389   0.625  0.4439  0.4811  0.3683
   38MOL   C23310667   5.010   7.369   0.661 -0.6198 -1.0169 -0.0850
   38MOL   H23410668   5.177   7.396   0.376  1.4786  0.4012  2.2071
   38MOL   H23510669   4.944   7.463   0.297 -1.7049  0.0935  0.4921
   38MOL   H23610670   4.709   7.499   0.348  0.9068 -0.7625 -0.5466
   38MOL   H23710671   4.616   7.400   0.627  1.7074  0.0947  0.0104
   38MOL   H23810672   4.808   7.384   0.708  0.2124  1.2860  0.2321
   38MOL   H23910673   5.028   7.350   0.766 -0.2544  2.2886  0.4897
   38MOL   C24010674   4.474   7.496   0.503  0.2136 -0.4073 -0.7974
   38MOL   C24110675   4.370   7.470   0.594 -0.1914  0.0741  0.0652
   38MOL   C24210676   4.246   7.542   0.586 -0.2635 -0.5378  0.3049
   38MOL   C24310677   4.224   7.643   0.494 -0.6965  0.1353 -0.0329
   38MOL   C24410678   4.107   7.720   0.514 -0.1787 -0.3376 -0.6642
   38MOL   C24510679   4.100   7.849   0.475  0.6090  0.3277 -0.1229
   38MOL   C24610680   4.323   7.666   0.396 -0.3537  0.0723 -0.8536
   38MOL   C24710681   4.447   7.597   0.403  0.5079 -0.0833 -0.2777
   38MOL   H24810682   4.383   7.401   0.676 -2.0320 -0.7221 -0.2824
   38MOL   H24910683   4.182   7.522   0.670  0.5550  0.5376  1.2019
   38MOL   H25010684   4.020   7.677   0.562 -0.8578 -1.7243 -3.0430
   38MOL   H25110685   4.189   7.896   0.437 -1.0234  2.6771 -1.1805
   38MOL   H25210686   4.319   7.743   0.321 -0.7069 -0.7049 -1.6428
   38MOL   H25310687   4.531   7.619   0.339  1.4334  0.1694  1.0047
   38MOL   C25410688   3.981   7.940   0.480  0.1149 -0.0037 -0.1436
   38MOL   C25510689   4.002   8.079   0.481 -0.2114 -0.3116 -0.0207
   38MOL   C25610690   3.901   0.028   0.500  0.5867 -0.2437  0.3019
   38MOL   C25710691   3.762   8.132   0.512  0.2777 -0.2206 -0.0636
   38MOL   C25810692   3.644   0.078   0.530  0.2730 -0.3957  0.1700
   38MOL   C25910693   3.536   0.107   0.450  0.2569 -0.2677  0.3943
   38MOL   C26010694   3.741   7.989   0.500  0.1405  0.3873 -0.3173
   38MOL   C26110695   3.844   7.893   0.482 -0.2980  1.0482  0.0492
   38MOL   H26210696   4.101   8.121   0.489 -0.1985 -0.6148  1.5669
   38MOL   H26310697   3.933   0.131   0.508 -2.0793  0.5290  1.3648
   38MOL   H26410698   3.656   0.133   0.623  1.5791 -0.2104 -0.0968
   38MOL   H26510699   3.457   0.171   0.488  0.5188 -0.4281  1.2179
   38MOL   H26610700   3.641   7.955   0.521 -0.4162  0.7852 -2.2654
   38MOL   H26710701   3.815   7.789   0.486  0.2379  0.8200 -1.4303
   38MOL   C26810702   3.526   0.059   0.312  0.3882 -0.0938 -0.2913
   38MOL   C26910703   3.641   0.035   0.227  0.1036  0.3581 -1.2044
   38MOL   C27010704   3.625   8.144   0.095 -0.0601 -0.1475  0.0462
   38MOL   C27110705   3.497   8.127   0.039 -0.1056 -0.0450  0.2533
   38MOL   C27210706   3.486   8.111   8.041 -0.2330  0.1561 -0.6303
   38MOL   C27310707   3.370   8.115   7.968  0.3090 -0.0002  0.7213
   38MOL   C27410708   3.383   8.143   0.128 -0.3783 -0.1151  0.4245
   38MOL   C27510709   3.395   0.034   0.261 -0.0088 -0.7421  0.4749
   38MOL   H27610710   3.736   0.050   0.276 -0.6421 -2.1815  1.1459
   38MOL   H27710711   3.714   8.141   0.034  0.9963  3.3938  1.2812
   38MOL   H27810712   3.582   8.091   7.996  0.6955  0.1629  1.3138
   38MOL   H27910713   3.271   8.139   8.004 -0.2302 -0.2547 -0.5580
   38MOL   H28010714   3.289   8.134   0.076 -0.4393  1.3918  0.2300
   38MOL   H28110715   3.314   0.063   0.325 -0.5054 -0.9208 -0.0616
   38MOL   H28210716   3.374   8.097   7.861 -0.2684  1.9734  0.3553
   39MOL     C110717   2.800   7.542   7.056  0.4021 -0.7217 -0.2696
   39MOL     C210718   2.821   7.665   7.118  0.7679  0.1177  1.0609
   39MOL     C310719   2.895   7.763   7.047 -0.2323  0.0143 -0.1713
   39MOL     C410720   2.955   7.732   6.923 -0.8606 -0.0484 -0.0420
   39MOL     C510721   3.041   7.841   6.867  0.1341 -0.2723 -0.2439
   39MOL     C610722   3.106   7.839   6.749  0.2147  0.5440  0.2216
   39MOL     C710723   2.941   7.604   6.865  0.3770 -0.3134 -0.2152
   39MOL     C810724   2.862   7.508   6.931 -0.4035 -0.7407  0.1599
   39MOL     H910725   2.764   7.689   7.207  0.2788  0.5547  0.6362
   39MOL    H1010726   2.911   7.860   7.092  0.0996 -1.9012  4.0589
   39MOL    H1110727   3.055   7.929   6.928  0.7073  1.1004 -2.3105
   39MOL    H1210728   3.105   7.760   6.676 -2.2358  1.0379 -0.3069
   39MOL    H1310729   2.989   7.583   6.771 -0.0346  1.0490 -0.7361
   39MOL    H1410730   2.853   7.409   6.889 -0.2996  0.2993 -2.3922
   39MOL    H1510731   2.750   7.467   7.115  0.3844 -0.8803 -0.4894
   39MOL    C1610732   3.190   7.952   6.708 -0.3183 -0.3708  0.1313
   39MOL    C1710733   3.158   8.088   6.725 -0.6670 -0.9863  0.2973
   39MOL    C1810734   3.249   0.042   6.683 -0.6015 -1.1421  0.0857
   39MOL    C1910735   3.370   0.008   6.630 -0.2501 -0.3088  0.6023
   39MOL    C2010736   3.468   0.115   6.597 -0.1218 -0.0485 -0.3370
   39MOL    C2110737   3.458   0.251   6.613 -0.2345  0.0921  0.2902
   39MOL    C2210738   3.405   8.019   6.614  0.0334 -0.3347 -0.1195
   39MOL    C2310739   3.310   7.920   6.649  0.0192  0.5445  0.5479
   39MOL    H2410740   3.076   8.127   6.783  1.1157 -0.0534  2.2844
   39MOL    H2510741   3.224   0.146   6.700  3.4406  0.0522 -0.6256
   39MOL    H2610742   3.559   0.078   6.552  0.5058  1.4854 -0.3814
   39MOL    H2710743   3.364   0.295   6.643 -0.4683  0.4511 -0.9441
   39MOL    H2810744   3.500   8.012   6.563 -0.3334 -0.4168 -0.7954
   39MOL    H2910745   3.330   7.815   6.632 -2.4069 -0.0843  1.2922
   39MOL    C3010746   3.570   0.342   6.586 -0.5415 -0.2599  0.3402
   39MOL    C3110747   3.568   0.474   6.638 -0.1646 -1.0738  0.0442
   39MOL    C3210748   3.673   0.565   6.629 -0.8810 -0.6101  0.0753
   39MOL    C3310749   3.785   0.528   6.557  0.2175  0.2461 -0.3893
   39MOL    C3410750   3.903   0.614   6.547  0.2262 -0.1474 -0.5879
   39MOL    C3510751   3.914   0.745   6.588  0.0408 -0.4817  0.3844
   39MOL    C3610752   3.785   0.402   6.486 -0.5317 -0.5465  0.1657
   39MOL    C3710753   3.679   0.308   6.500 -0.6493  0.0655  0.6385
   39MOL    H3810754   3.470   0.508   6.669  0.4942  1.1172 -0.1973
   39MOL    H3910755   3.657   0.670   6.651 -1.1885 -0.1087 -2.3835
   39MOL    H4010756   3.990   0.558   6.516 -0.5433 -1.9482  0.3952
   39MOL    H4110757   3.835   0.794   6.643 -1.0161 -0.8006 -0.8087
   39MOL    H4210758   3.872   0.390   6.423  0.9486 -0.9703  2.2360
   39MOL    H4310759   3.690   0.219   6.440 -0.1437  0.0630  0.7394
   39MOL    C4410760   4.028   0.836   6.575  0.1244 -0.0124 -0.5007
   39MOL    C4510761   4.021   0.960   6.635 -0.1871  0.2791 -0.1729
   39MOL    C4610762   4.133   1.041   6.647  0.3522  0.2458 -0.0327
   39MOL    C4710763   4.259   0.999   6.594 -0.1506  0.3335  0.7244
   39MOL    C4810764   4.387   1.063   6.610  0.6566 -0.4698 -0.0591
   39MOL    C4910765   4.410   1.181   6.669  0.5595 -0.3004  0.0856
   39MOL    C5010766   4.260   0.874   6.523  0.2690  0.0556  1.0816
   39MOL    C5110767   4.147   0.796   6.513  0.5169  0.1466  1.0784
   39MOL    H5210768   3.937   1.000   6.690  0.7766  1.0300  0.7728
   39MOL    H5310769   4.132   1.141   6.689  2.3920 -0.2715  1.3207
   39MOL    H5410770   4.474   1.015   6.567  0.7635  0.2648 -0.6677
   39MOL    H5510771   4.322   1.234   6.702 -0.8014 -1.9379 -0.8630
   39MOL    H5610772   4.352   0.833   6.483 -0.6395 -0.3439 -0.6732
   39MOL    H5710773   4.158   0.702   6.461  0.3431  0.6833  0.0704
   39MOL    C5810774   4.547   1.236   6.689  0.1619 -0.2027 -0.2630
   39MOL    C5910775   4.655   1.192   6.615  0.1386 -0.1108 -0.5791
   39MOL    C6010776   4.788   1.227   6.655  0.3804 -0.0195 -0.4016
   39MOL    C6110777   4.806   1.320   6.761  0.4506 -1.4194  0.3602
   39MOL    C6210778   4.944   1.367   6.782 -0.4903 -0.0953  0.9587
   39MOL    C6310779   4.986   1.488   6.828  0.6508  0.2970 -0.6124
   39MOL    C6410780   4.696   1.374   6.827  0.1470 -0.5791  0.2586
   39MOL    C6510781   4.565   1.326   6.795 -0.0363  0.4257 -0.1117
   39MOL    H6610782   4.643   1.122   6.533 -1.7769  0.2753 -0.6553
   39MOL    H6710783   4.873   1.192   6.599  0.3972 -1.3594  0.4402
   39MOL    H6810784   5.016   1.289   6.766 -0.1990  0.2347  0.6727
   39MOL    H6910785   4.913   1.564   6.850  1.4564 -0.0168  3.6595
   39MOL    H7010786   4.716   1.440   6.910  0.6097  1.1630 -1.2176
   39MOL    H7110787   4.483   1.357   6.858  0.9282 -1.0379  1.9431
   39MOL    C7210788   5.122   1.529   6.842 -0.3604 -0.1616  0.5786
   39MOL    C7310789   5.225   1.475   6.766 -0.3401  0.6879  0.1361
   39MOL    C7410790   5.355   1.534   6.768 -0.2329  0.0514  0.4234
   39MOL    C7510791   5.390   1.634   6.859 -0.4048  0.2026 -0.0908
   39MOL    C7610792   5.523   1.689   6.863 -0.7318 -0.4521  0.2211
   39MOL    C7710793   5.561   1.797   6.937  0.5812  0.4420 -0.3071
   39MOL    C7810794   5.288   1.678   6.943  0.0354 -0.5153 -0.0832
   39MOL    C7910795   5.157   1.638   6.928 -0.3739  0.2780 -0.2025
   39MOL    H8010796   5.209   1.389   6.704 -2.0049  1.8703 -1.1128
   39MOL    H8110797   5.426   1.499   6.694  1.1690  0.6306  1.4800
   39MOL    H8210798   5.594   1.637   6.801  1.4649  1.0951  1.3649
   39MOL    H8310799   5.481   1.855   6.982  0.5130 -0.7309  1.1168
   39MOL    H8410800   5.299   1.760   7.012  0.0278  0.2835 -1.0076
   39MOL    H8510801   5.081   1.691   6.983 -0.9654 -2.6516  1.9694
   39MOL    C8610802   5.695   1.853   6.953 -0.2598 -0.3050  0.0112
   39MOL    C8710803   5.726   1.948   7.051 -0.2340 -0.2107 -0.0798
   39MOL    C8810804   5.855   2.001   7.068  0.0607 -0.4866  0.6755
   39MOL    C8910805   5.955   1.962   6.978 -1.5867  0.4279 -0.0888
   39MOL    C9010806   6.092   2.013   6.986 -0.1436  0.3135  0.3840
   39MOL    C9110807   6.138   2.128   7.031  0.6691  0.1911  0.6930
   39MOL    C9210808   5.922   1.869   6.871 -0.7564 -0.9813 -0.5331
   39MOL    C9310809   5.798   1.812   6.871  0.1266  0.8645  0.5618
   39MOL    H9410810   5.648   1.975   7.120 -1.5342 -0.1432 -1.5490
   39MOL    H9510811   5.889   2.067   7.147  1.7860 -0.4582 -0.0731
   39MOL    H9610812   6.163   1.940   6.949  0.2445  0.2352  1.2632
   39MOL    H9710813   6.075   2.207   7.069 -1.5863 -1.1219 -0.2121
   39MOL    H9810814   5.999   1.838   6.802  0.9508  0.3394  0.7155
   39MOL    H9910815   5.797   1.734   6.796 -1.3871 -0.6434  2.0896
   39MOL   C10010816   6.279   2.163   7.033  0.8529  0.3362 -0.4170
   39MOL   C10110817   6.376   2.088   6.958 -0.0724  0.1901  0.3882
   39MOL   C10210818   6.512   2.120   6.972 -0.1572 -0.5887 -0.3761
   39MOL   C10310819   6.552   2.233   7.049 -0.9199 -0.1828  0.3117
   39MOL   C10410820   6.699   2.268   7.044 -0.3891  0.4633  0.1714
   39MOL   C10510821   6.762   2.375   7.106 -0.5053 -0.1014 -0.1430
   39MOL   C10610822   6.455   2.308   7.119  0.6383 -0.8421 -0.2058
   39MOL   C10710823   6.320   2.273   7.109 -0.5377 -0.6080 -0.1860
   39MOL   H10810824   6.349   2.014   6.884 -0.4191 -1.6451  2.3082
   39MOL   H10910825   6.583   2.065   6.911  1.8851  1.6629 -0.1141
   39MOL   H11010826   6.758   2.191   6.996 -0.2862  0.2950  0.5605
   39MOL   H11110827   6.704   2.451   7.155  0.3418 -0.9585  2.2469
   39MOL   H11210828   6.486   2.400   7.166  1.8368 -1.1994 -0.2982
   39MOL   H11310829   6.246   2.333   7.160 -2.2005 -1.7458 -1.1953
   39MOL   C11410830   6.905   2.400   7.114 -0.3175  0.4110 -0.2169
   39MOL   C11510831   6.946   2.510   7.186 -0.7600  0.0051  0.3341
   39MOL   C11610832   7.084   2.536   7.189 -0.5410  0.6471 -0.4351
   39MOL   C11710833   7.175   2.438   7.144  0.0064 -0.4034  0.2517
   39MOL   C11810834   7.318   2.466   7.169 -1.0486 -0.0436  0.9153
   39MOL   C11910835   7.410   2.374   7.137  0.7884 -0.1106  0.3387
   39MOL   C12010836   7.127   2.321   7.078  0.5305  0.4489 -0.0797
   39MOL   C12110837   6.993   2.301   7.063  0.6188 -0.6172  0.3736
   39MOL   H12210838   6.878   2.577   7.236 -1.6938  0.1763 -1.1473
   39MOL   H12310839   7.108   2.625   7.245  0.1617  1.8846 -2.6532
   39MOL   H12410840   7.351   2.567   7.188 -0.4395  0.2381 -1.5291
   39MOL   H12510841   7.377   2.276   7.105 -1.4605  1.5042 -2.5377
   39MOL   H12610842   7.191   2.247   7.032  0.1676  0.1956 -0.1799
   39MOL   H12710843   6.962   2.209   7.014  0.4588  0.2684 -1.2199
   39MOL   C12810844   7.556   2.386   7.135 -0.2734 -0.1658  1.3264
   39MOL   C12910845   7.635   2.269   7.126 -0.2667 -0.2480  0.5378
   39MOL   C13010846   7.776   2.280   7.115  0.5840 -0.6699 -0.6037
   39MOL   C13110847   7.840   2.402   7.145 -0.1216 -0.2227  0.2704
   39MOL   C13210848   7.986   2.402   7.134 -0.0208  0.2754 -0.5375
   39MOL   C13310849   8.067   2.497   7.170  0.8096  0.7872 -0.3844
   39MOL   C13410850   7.758   2.515   7.168  0.6724 -0.5603 -0.1385
   39MOL   C13510851   7.618   2.505   7.161  0.0166 -0.2776  0.0423
   39MOL   H13610852   7.587   2.178   7.092 -0.0462 -0.2251  0.1583
   39MOL   H13710853   7.837   2.191   7.102  0.9408 -0.6626  0.8374
   39MOL   H13810854   8.031   2.313   7.091 -2.5922 -1.2607 -0.1897
   39MOL   H13910855   8.008   2.576   7.214 -0.8280 -0.1056 -0.9374
   39MOL   H14010856   7.800   2.610   7.198 -1.1823  0.5799 -1.0607
   39MOL   H14110857   7.564   2.598   7.175  0.8778  0.1386  0.6744
   39MOL   C14210858   0.068   2.502   7.166 -0.6538 -0.7688 -0.0910
   39MOL   C14310859   0.133   2.625   7.190  0.0544 -0.3829 -0.0570
   39MOL   C14410860   0.273   2.642   7.167  0.2461  0.7144 -0.3066
   39MOL   C14510861   0.347   2.525   7.125 -0.0899  0.3119 -0.4444
   39MOL   C14610862   0.489   2.528   7.112 -0.7833  0.3154  0.6163
   39MOL   C14710863   0.571   2.621   7.161  0.0698 -0.1835  0.4382
   39MOL   C14810864   0.283   2.400   7.108 -0.3861  0.0060 -0.1200
   39MOL   C14910865   0.145   2.389   7.128  0.1268 -0.1871 -0.2409
   39MOL   H15010866   0.071   2.712   7.209 -2.2111 -1.6593 -1.4458
   39MOL   H15110867   0.323   2.737   7.184  1.0597  0.3140 -0.4291
   39MOL   H15210868   0.535   2.444   7.061  0.9356 -1.0965  4.3163
   39MOL   H15310869   0.530   2.700   7.224  1.5234  0.7583  0.2286
   39MOL   H15410870   0.340   2.319   7.065 -1.6062 -1.4152  0.8633
   39MOL   H15510871   0.098   2.293   7.110 -2.4340  0.7221  1.4383
   39MOL   C15610872   0.716   2.631   7.147 -0.4113  0.9300 -0.4589
   39MOL   C15710873   0.792   2.738   7.210  0.2308  0.0939 -0.2701
   39MOL   C15810874   0.929   2.758   7.188 -0.0570  0.4831  0.1988
   39MOL   C15910875   0.992   2.675   7.095  0.1793 -0.4687 -0.1922
   39MOL   C16010876   1.131   2.690   7.047  0.4787  0.5751  0.1937
   39MOL   C16110877   1.215   2.772   7.107 -0.4039  0.2335 -0.4275
   39MOL   C16210878   0.918   2.577   7.025 -0.7878  0.1177  0.2409
   39MOL   C16310879   0.783   2.554   7.054  0.0871  0.4785  0.6002
   39MOL   H16410880   0.728   2.804   7.267 -0.8870 -0.2164 -1.1426
   39MOL   H16510881   0.978   2.837   7.243  1.7581 -1.6456  1.7682
   39MOL   H16610882   1.152   2.633   6.957  0.1332 -1.2470  1.2399
   39MOL   H16710883   1.176   2.823   7.194 -0.1802 -1.2655  0.5689
   39MOL   H16810884   0.961   2.526   6.939 -0.1163  0.8602  0.1325
   39MOL   H16910885   0.735   2.476   6.996 -0.5454  0.3165  1.3303
   39MOL   C17010886   1.351   2.804   7.061  0.8505  1.0857  0.3384
   39MOL   C17110887   1.396   2.766   6.931  0.4911 -0.3263  0.2144
   39MOL   C17210888   1.528   2.796   6.892 -0.3619  0.0361  0.7305
   39MOL   C17310889   1.612   2.873   6.973  0.0462  0.1449 -0.4868
   39MOL   C17410890   1.739   2.908   6.922 -0.2056  0.7053 -0.5854
   39MOL   C17510891   1.829   2.991   6.978  0.2823  0.1056  0.5375
   39MOL   C17610892   1.568   2.914   7.100  0.0131 -0.0761  0.2913
   39MOL   C17710893   1.438   2.881   7.142 -0.1122  0.2816  0.3523
   39MOL   H17810894   1.331   2.722   6.857  1.2558  0.7569 -1.1141
   39MOL   H17910895   1.558   2.765   6.792  1.2458  2.2745  0.4848
   39MOL   H18010896   1.755   2.858   6.827  0.0481 -1.0552  0.3666
   39MOL   H18110897   1.807   3.028   7.076 -0.5764 -1.9422  1.1333
   39MOL   H18210898   1.627   2.981   7.160 -0.4947  2.5195 -2.0340
   39MOL   H18310899   1.402   2.911   7.240 -2.4200  0.6747 -0.5703
   39MOL   C18410900   1.958   3.034   6.919  0.6384  1.0893 -0.0558
   39MOL   C18510901   1.997   3.008   6.787 -0.3427  0.5771 -0.2443
   39MOL   C18610902   2.125   3.045   6.738  0.0285 -0.5071  0.3191
   39MOL   C18710903   2.216   3.109   6.821 -0.3561  0.3970 -0.2809
   39MOL   C18810904   2.353   3.146   6.769  0.0846 -0.0264  0.2696
   39MOL   C18910905   2.415   3.253   6.817 -0.3410 -0.2058  0.0991
   39MOL   C19010906   2.183   3.147   6.953  0.1908  0.2318  0.6942
   39MOL   C19110907   2.058   3.104   7.003  0.1844  0.9067  0.4406
   39MOL   H19210908   1.924   2.966   6.718  1.5799 -1.1384 -1.2827
   39MOL   H19310909   2.163   3.038   6.637 -1.1060  2.0707 -0.3347
   39MOL   H19410910   2.404   3.088   6.694 -0.0729  0.0188  0.1285
   39MOL   H19510911   2.368   3.314   6.893 -1.0539 -0.3679 -0.2074
   39MOL   H19610912   2.256   3.197   7.015 -2.6144  1.9870  2.7000
   39MOL   H19710913   2.044   3.115   7.110 -2.5025 -1.1410  0.3379
   39MOL   C19810914   2.550   3.298   6.779  0.0646  0.1141  0.0452
   39MOL   C19910915   2.599   3.409   6.845  0.0098 -0.6120 -0.6309
   39MOL   C20010916   2.732   3.459   6.818 -0.3556 -0.7902 -0.1822
   39MOL   C20110917   2.812   3.387   6.722  0.3770  0.0859 -0.4674
   39MOL   C20210918   2.947   3.434   6.692 -0.1342  0.3267  0.0892
   39MOL   C20310919   3.028   3.401   6.588  0.2482 -0.4585  0.0165
   39MOL   C20410920   2.758   3.277   6.656 -0.1376  0.4929 -0.8598
   39MOL   C20510921   2.628   3.233   6.684  0.0049 -0.1536  0.2757
   39MOL   H20610922   2.545   3.458   6.925  0.2764 -2.6032  0.8077
   39MOL   H20710923   2.775   3.537   6.879 -1.0625 -1.9413  1.8207
   39MOL   H20810924   2.985   3.506   6.763 -1.0217  1.5091 -0.6235
   39MOL   H20910925   2.994   3.330   6.514  2.2627 -0.9715 -0.4338
   39MOL   H21010926   2.815   3.226   6.579 -0.7442 -0.2177 -0.8431
   39MOL   H21110927   2.583   3.157   6.622 -1.1296 -0.0157  0.9061
   39MOL   C21210928   3.169   3.455   6.564  0.5202 -0.6580 -0.2234
   39MOL   C21310929   3.233   3.545   6.652 -0.4957  0.0475 -0.4565
   39MOL   C21410930   3.362   3.595   6.614  0.0129  0.4917 -0.3868
   39MOL   C21510931   3.425   3.553   6.495  0.6815 -0.4481  0.3449
   39MOL   C21610932   3.554   3.613   6.451 -0.1078 -0.0545  0.0328
   39MOL   C21710933   3.620   3.600   6.329  0.1621  0.3683 -0.1484
   39MOL   C21810934   3.362   3.463   6.413  0.4765  0.1858 -0.0466
   39MOL   C21910935   3.231   3.421   6.444 -0.0955 -0.4349  0.3907
   39MOL   H22010936   3.194   3.563   6.752  0.9755  2.9160 -0.3294
   39MOL   H22110937   3.416   3.666   6.674 -0.3014  0.5135 -0.1292
   39MOL   H22210938   3.594   3.682   6.524  1.8948 -0.4022 -0.7182
   39MOL   H22310939   3.587   3.527   6.257  0.4600 -2.1633  2.1764
   39MOL   H22410940   3.410   3.424   6.325  1.0733  2.4066 -0.7484
   39MOL   H22510941   3.181   3.359   6.372  1.4781 -0.4900 -0.6856
   39MOL   C22610942   3.736   3.669   6.270  0.2124 -0.7731  0.1417
   39MOL   C22710943   3.789   3.791   6.324  0.0074 -0.4885  0.3873
   39MOL   C22810944   3.885   3.870   6.254  0.8078 -0.4264 -0.4434
   39MOL   C22910945   3.918   3.828   6.127  0.5389 -0.4957 -0.0944
   39MOL   C23010946   4.016   3.902   6.048 -0.4622 -0.7135  0.0366
   39MOL   C23110947   4.096   4.001   6.089  0.4276 -0.0502 -0.6165
   39MOL   C23210948   3.871   3.704   6.073  0.3438  0.2013  0.8312
   39MOL   C23310949   3.787   3.624   6.147 -1.2196  0.0258 -0.6882
   39MOL   H23410950   3.752   3.815   6.423 -4.0028 -0.2578 -1.0547
   39MOL   H23510951   3.922   3.958   6.305 -0.3678  0.2169 -0.6783
   39MOL   H23610952   4.026   3.878   5.943  0.9478 -2.5971  0.5743
   39MOL   H23710953   4.101   4.030   6.193  2.5647  0.6873 -0.8947
   39MOL   H23810954   3.910   3.684   5.974  0.4747 -1.3551  1.1915
   39MOL   H23910955   3.749   3.538   6.094 -0.0441  0.6185 -2.5588
   39MOL   C24010956   4.192   4.074   6.007  0.1933  0.5128 -0.1461
   39MOL   C24110957   4.163   4.102   5.876 -0.6017  0.4251  0.1043
   39MOL   C24210958   4.259   4.174   5.798 -0.0526  1.2133 -0.2479
   39MOL   C24310959   4.375   4.219   5.857  1.1614  0.3634  0.3824
   39MOL   C24410960   4.476   4.293   5.775  0.5530 -0.2126 -0.4108
   39MOL   C24510961   4.603   4.323   5.816 -0.1295  0.0622 -0.4207
   39MOL   C24610962   4.394   4.194   5.993 -0.5618 -0.5422 -0.5288
   39MOL   C24710963   4.306   4.118   6.065 -0.0514 -0.2256  0.3085
   39MOL   H24810964   4.080   4.055   5.826 -0.1138 -1.9228  1.4243
   39MOL   H24910965   4.249   4.175   5.690  2.9790 -0.9710 -0.6027
   39MOL   H25010966   4.443   4.325   5.677  0.2732 -0.1502 -0.2953
   39MOL   H25110967   4.649   4.289   5.908 -0.5717  0.1722 -0.1574
   39MOL   H25210968   4.480   4.236   6.042  0.5580 -0.8250 -2.2026
   39MOL   H25310969   4.325   4.092   6.168 -0.2665  0.0126  0.4060
   39MOL   C25410970   4.702   4.408   5.744  0.3368  0.0471 -0.3540
   39MOL   C25510971   4.838   4.395   5.774 -0.4988  0.1010 -0.2741
   39MOL   C25610972   4.937   4.484   5.716 -0.2848 -0.3337 -0.5614
   39MOL   C25710973   4.899   4.591   5.631 -0.0567  0.2985 -0.4848
   39MOL   C25810974   4.998   4.690   5.577 -0.3608 -0.2455 -0.1822
   39MOL   C25910975   5.118   4.728   5.630  0.2764 -0.2206  0.9224
   39MOL   C26010976   4.760   4.610   5.611  0.4775  0.4004  0.0288
   39MOL   C26110977   4.665   4.516   5.662  0.1712 -0.2664 -0.1097
   39MOL   H26210978   4.869   4.323   5.848 -0.3220  0.5639  0.1077
   39MOL   H26310979   5.043   4.468   5.731 -0.1790  1.7671  1.2754
   39MOL   H26410980   4.970   4.733   5.482 -0.5629 -1.7187 -0.8162
   39MOL   H26510981   5.169   4.806   5.577  2.2359 -1.5659  0.7619
   39MOL   H26610982   4.721   4.691   5.551 -3.1657 -0.2049  1.4531
   39MOL   H26710983   4.558   4.523   5.651 -0.2577 -3.7457  1.1404
   39MOL   C26810984   5.179   4.698   5.762  1.0566  0.5023  0.5324
   39MOL   C26910985   5.106   4.718   5.880  1.5347  0.1407 -0.4923
   39MOL   C27010986   5.152   4.707   6.011 -1.5761  0.2332 -0.2889
   39MOL   C27110987   5.282   4.656   6.031  0.7717  0.0723  0.2275
   39MOL   C27210988   5.344   4.620   6.162  1.0685  0.0334 -0.5605
   39MOL   C27310989   5.280   4.619   6.279  0.2005  0.3065  0.7870
   39MOL   C27410990   5.352   4.630   5.909  0.0936 -0.0405 -0.6220
   39MOL   C27510991   5.302   4.644   5.782 -0.4303 -0.2342 -0.0420
   39MOL   H27610992   5.002   4.740   5.864  1.6603  1.3165  0.2417
   39MOL   H27710993   5.088   4.731   6.094 -1.3058  0.9760 -0.2936
   39MOL   H27810994   5.447   4.590   6.149  2.9844  5.2869  1.1648
   39MOL   H27910995   5.182   4.662   6.291  0.8276  2.4896 -1.6615
   39MOL   H28010996   5.452   4.592   5.925 -0.4856 -0.1883  2.8428
   39MOL   H28110997   5.379   4.627   5.707 -0.7497  1.3183 -0.7285
   39MOL   H28210998   5.340   4.583   6.362  0.1271  0.2352  0.8096
   40MOL     C110999   6.027   3.694   6.724  0.0603  0.4736  0.6474
   40MOL     C211000   6.045   3.597   6.628 -0.1443  0.6342  0.4288
   40MOL     C311001   5.944   3.514   6.586  0.2568  0.0684 -0.0504
   40MOL     C411002   5.817   3.523   6.648 -0.0357 -0.3702  0.6291
   40MOL     C511003   5.709   3.428   6.599 -0.0933 -0.5358 -0.5634
   40MOL     C611004   5.577   3.437   6.639  0.2261 -0.2887 -0.5561
   40MOL     C711005   5.799   3.627   6.737 -0.5127 -0.3808  0.4050
   40MOL     C811006   5.898   3.716   6.783  0.6935 -0.2169  0.2045
   40MOL     H911007   6.139   3.585   6.577  0.7225 -0.3132  2.2103
   40MOL    H1011008   5.958   3.442   6.507 -1.7903 -2.8834  2.1596
   40MOL    H1111009   5.744   3.356   6.528  0.2803  0.3744 -1.3062
   40MOL    H1211010   5.561   3.508   6.718  1.3341  1.7567 -2.0982
   40MOL    H1311011   5.705   3.637   6.790 -0.7771  0.4885 -0.2016
   40MOL    H1411012   5.881   3.789   6.860 -0.8646 -0.8695  0.4907
   40MOL    H1511013   6.105   3.760   6.760  2.5749 -1.3915 -1.2599
   40MOL    C1611014   5.450   3.367   6.606  0.2536 -0.7713  0.3552
   40MOL    C1711015   5.325   3.435   6.602 -1.1476 -0.1610  0.5781
   40MOL    C1811016   5.205   3.386   6.558  0.1252  0.4726 -0.2196
   40MOL    C1911017   5.198   3.255   6.523  1.0470  0.3204  0.1425
   40MOL    C2011018   5.077   3.183   6.491 -0.4332 -0.1261  0.4084
   40MOL    C2111019   4.954   3.241   6.490 -0.1769 -0.0026  0.5001
   40MOL    C2211020   5.316   3.180   6.521  0.4465 -0.1907 -0.6280
   40MOL    C2311021   5.440   3.237   6.551 -0.0293 -0.5685 -0.2327
   40MOL    H2411022   5.342   3.536   6.638  2.6669 -0.1915 -0.9299
   40MOL    H2511023   5.120   3.453   6.557 -0.1951  0.0673 -0.0729
   40MOL    H2611024   5.094   3.081   6.463 -0.2078 -0.0557  0.2857
   40MOL    H2711025   4.953   3.345   6.519 -0.4639 -0.7419  3.3196
   40MOL    H2811026   5.313   3.076   6.492  0.5142  0.3434 -2.5943
   40MOL    H2911027   5.536   3.190   6.537  0.5613  0.2408  1.0645
   40MOL    C3011028   4.824   3.171   6.458  0.0732 -1.2648 -0.7873
   40MOL    C3111029   4.816   3.035   6.425 -0.9942 -0.1411 -0.2249
   40MOL    C3211030   4.697   2.981   6.370  0.1355  0.2127 -0.2166
   40MOL    C3311031   4.582   3.058   6.359  0.3763 -0.1306 -0.0300
   40MOL    C3411032   4.457   2.997   6.307 -0.5704 -0.3763  0.3670
   40MOL    C3511033   4.334   3.046   6.317 -0.0401 -0.0184  0.2127
   40MOL    C3611034   4.587   3.195   6.390  0.2003 -0.4595 -0.3688
   40MOL    C3711035   4.703   3.250   6.454 -0.5348 -0.4088 -0.1455
   40MOL    H3811036   4.904   2.973   6.420  0.4544  1.7435  1.4122
   40MOL    H3911037   4.697   2.881   6.329 -0.6946  0.0701  0.1295
   40MOL    H4011038   4.476   2.906   6.252  0.6585  0.7100 -1.0289
   40MOL    H4111039   4.328   3.138   6.374  3.1259 -0.4411  1.3390
   40MOL    H4211040   4.501   3.261   6.382  0.7479  0.6015  2.0537
   40MOL    H4311041   4.704   3.357   6.466 -0.3659 -0.3045 -1.0465
   40MOL    C4411042   4.219   2.994   6.248  0.6480  0.1632 -0.5912
   40MOL    C4511043   4.224   2.880   6.165 -0.1787  0.1821  0.2261
   40MOL    C4611044   4.105   2.840   6.101  0.2677 -0.4142  0.3512
   40MOL    C4711045   3.976   2.894   6.124  0.8241 -0.4021  0.3823
   40MOL    C4811046   3.852   2.832   6.072 -0.7443  0.3472 -0.4213
   40MOL    C4911047   3.724   2.864   6.106  0.3478 -0.0379  0.2774
   40MOL    C5011048   3.976   3.003   6.215  0.4273  0.7398  0.5101
   40MOL    C5111049   4.098   3.059   6.265  0.3135 -0.4945 -0.1763
   40MOL    H5211050   4.312   2.818   6.153 -0.4716 -0.0170 -0.9222
   40MOL    H5311051   4.109   2.750   6.041  0.6749 -0.7683  0.8962
   40MOL    H5411052   3.867   2.748   6.004 -2.7600 -1.5928  1.4636
   40MOL    H5511053   3.718   2.952   6.169  1.5665  0.9907 -1.0212
   40MOL    H5611054   3.882   3.042   6.250  1.0578  0.3356  2.7577
   40MOL    H5711055   4.084   3.143   6.330 -1.5028  0.3803 -1.6534
   40MOL    C5811056   3.591   2.800   6.070  0.0439 -0.4256 -0.3814
   40MOL    C5911057   3.471   2.870   6.108 -0.3348 -0.9001  0.7154
   40MOL    C6011058   3.342   2.813   6.087  0.2534 -0.5708  0.7755
   40MOL    C6111059   3.339   2.684   6.030 -0.0715  0.0694  0.7377
   40MOL    C6211060   3.206   2.613   6.003 -0.1430 -0.0546 -0.7491
   40MOL    C6311061   3.091   2.654   6.053  0.3103 -0.6817  0.0131
   40MOL    C6411062   3.456   2.613   6.000 -0.1966  0.1496  0.2563
   40MOL    C6511063   3.578   2.673   6.013 -0.9466  0.4082 -0.7096
   40MOL    H6611064   3.493   2.963   6.158 -2.0811  0.5984 -1.2173
   40MOL    H6711065   3.256   2.867   6.122  0.2336 -0.9761  1.3633
   40MOL    H6811066   3.224   2.534   5.932 -0.4298  0.7867 -1.7704
   40MOL    H6911067   3.091   2.738   6.121  1.3846 -0.0749 -0.7299
   40MOL    H7011068   3.454   2.511   5.965  0.5440  0.8067 -1.7739
   40MOL    H7111069   3.664   2.627   5.966 -0.2622  0.2114  0.7088
   40MOL    C7211070   2.968   2.583   6.027 -0.8142  0.1440 -0.5033
   40MOL    C7311071   2.860   2.610   6.116  0.3254 -1.0265  0.1951
   40MOL    C7411072   2.736   2.539   6.108  0.0824  0.3352 -0.0274
   40MOL    C7511073   2.724   2.444   6.005 -0.3970 -0.0177 -0.4174
   40MOL    C7611074   2.598   2.370   5.993  0.0545  0.7642  0.9468
   40MOL    C7711075   2.570   2.263   5.913 -0.6114  0.5466 -0.0388
   40MOL    C7811076   2.837   2.409   5.924  0.5847  1.0431 -0.2873
   40MOL    C7911077   2.955   2.475   5.933  0.0376  0.0705 -0.3634
   40MOL    H8011078   2.875   2.680   6.197  2.3132 -0.0927 -0.9484
   40MOL    H8111079   2.653   2.566   6.172 -0.6199  0.2903 -0.9160
   40MOL    H8211080   2.516   2.412   6.050  0.3134  1.6320  0.6934
   40MOL    H8311081   2.644   2.216   5.849 -0.6472 -1.1361  1.1221
   40MOL    H8411082   2.833   2.328   5.853  2.7424 -1.2464  2.0823
   40MOL    H8511083   3.033   2.460   5.860  0.5300 -1.3432  0.4455
   40MOL    C8611084   2.441   2.192   5.906 -1.1968  0.6625 -0.2190
   40MOL    C8711085   2.429   2.081   5.818  0.1590  0.0044  0.5644
   40MOL    C8811086   2.300   2.015   5.801 -0.4044 -0.5102  0.1577
   40MOL    C8911087   2.187   2.057   5.878 -0.1092  0.0197  0.3369
   40MOL    C9011088   2.063   1.977   5.855  0.0262  0.3584  0.1800
   40MOL    C9111089   1.958   1.974   5.936 -0.2717 -0.0271 -0.3406
   40MOL    C9211090   2.198   2.167   5.963 -0.0069  0.3986  0.1114
   40MOL    C9311091   2.328   2.227   5.983  0.0591 -0.2192  0.5375
   40MOL    H9411092   2.519   2.048   5.767 -0.6053 -1.9420  0.4585
   40MOL    H9511093   2.294   1.930   5.735  0.6756 -0.6545  0.2317
   40MOL    H9611094   2.073   1.914   5.768 -1.7850  2.0665 -1.3152
   40MOL    H9711095   1.974   2.038   6.021 -2.2134  0.8010 -0.5705
   40MOL    H9811096   2.101   2.201   5.999  0.9124  2.0161  1.1061
   40MOL    H9911097   2.339   2.309   6.053 -0.2789  2.0130 -1.9033
   40MOL   C10011098   1.834   1.896   5.925  0.5168 -0.5729 -0.3257
   40MOL   C10111099   1.800   1.811   5.818 -0.6778 -0.0430  0.3775
   40MOL   C10211100   1.683   1.735   5.826 -0.5814  0.0420 -0.3105
   40MOL   C10311101   1.599   1.732   5.940 -0.2434  0.0601  0.2683
   40MOL   C10411102   1.486   1.645   5.958  0.5347  0.2903  0.3283
   40MOL   C10511103   1.449   1.556   5.870 -0.8110  0.6736  0.0596
   40MOL   C10611104   1.631   1.823   6.042 -0.7507 -0.4380 -0.3939
   40MOL   C10711105   1.750   1.905   6.037  0.6151 -0.3707 -0.8583
   40MOL   H10811106   1.856   1.817   5.726 -0.4906  2.2554  0.6060
   40MOL   H10911107   1.660   1.667   5.745 -3.8263 -0.3502  0.8438
   40MOL   H11011108   1.430   1.662   6.049 -0.9292  1.1746 -0.7352
   40MOL   H11111109   1.491   1.539   5.773 -0.0601 -0.4329  0.5645
   40MOL   H11211110   1.568   1.820   6.130  0.9702 -1.5918  0.8239
   40MOL   H11311111   1.774   1.959   6.127  1.5236 -0.1706 -1.2176
   40MOL   C11411112   1.338   1.460   5.893  0.3261 -0.3203 -0.1883
   40MOL   C11511113   1.286   1.389   5.782 -0.0658  0.4104 -0.2104
   40MOL   C11611114   1.182   1.296   5.793 -0.2716  0.0070 -0.0220
   40MOL   C11711115   1.122   1.271   5.917  0.8657 -0.4933  1.0711
   40MOL   C11811116   1.022   1.157   5.934  0.2233 -0.4988 -0.1162
   40MOL   C11911117   1.008   1.093   6.047  0.4579  0.4235 -0.1820
   40MOL   C12011118   1.166   1.348   6.024  0.2827 -0.0644  0.1651
   40MOL   C12111119   1.271   1.437   6.013  0.3746 -0.1155 -0.2387
   40MOL   H12211120   1.317   1.419   5.683  0.5713  1.4031  0.2784
   40MOL   H12311121   1.139   1.258   5.702  1.2333  1.7431 -1.4726
   40MOL   H12411122   0.962   1.139   5.845  1.1353  2.3852 -1.3897
   40MOL   H12511123   1.075   1.119   6.127  0.7355  1.4172 -0.7197
   40MOL   H12611124   1.121   1.324   6.119  1.4998  0.5430  0.9110
   40MOL   H12711125   1.301   1.487   6.105  0.7693  0.9614 -0.9475
   40MOL   C12811126   0.921   0.978   6.081 -0.3154 -0.3144  0.0919
   40MOL   C12911127   0.921   0.933   6.209 -0.4344  0.1323 -0.2610
   40MOL   C13011128   0.841   0.822   6.241  0.1671 -0.1005  0.0360
   40MOL   C13111129   0.781   0.748   6.140 -0.4365 -0.9150  0.1868
   40MOL   C13211130   0.712   0.620   6.161 -0.0158 -0.0596 -0.6130
   40MOL   C13311131   0.689   0.568   6.284  0.2028  0.1299  0.0194
   40MOL   C13411132   0.769   0.799   6.006  0.1794 -0.2738 -0.2334
   40MOL   C13511133   0.850   0.915   5.972 -0.3266 -0.0924 -0.3344
   40MOL   H13611134   0.980   0.980   6.285 -0.6438 -1.3605  0.8378
   40MOL   H13711135   0.846   0.783   6.341 -1.4454  0.6093  0.4108
   40MOL   H13811136   0.686   0.564   6.072 -0.5872 -0.7791  0.0074
   40MOL   H13911137   0.722   0.622   6.372 -0.7963 -1.7232  1.5431
   40MOL   H14011138   0.712   0.751   5.928  0.4061  2.1011 -1.9245
   40MOL   H14111139   0.848   0.959   5.874 -0.1173 -2.6627 -1.5263
   40MOL   C14211140   0.615   0.440   6.319 -0.5376  0.4085 -0.1038
   40MOL   C14311141   0.524   0.381   6.229  0.2110  0.0206  0.0395
   40MOL   C14411142   0.460   0.259   6.261 -0.2728 -0.3140  0.9276
   40MOL   C14511143   0.465   0.203   6.391 -0.0088 -1.0310 -0.6950
   40MOL   C14611144   0.390   0.078   6.422 -0.4861  0.0252  0.1720
   40MOL   C14711145   0.325   8.136   6.341 -0.5556 -0.6041 -0.3541
   40MOL   C14811146   0.545   0.265   6.484 -0.4409 -0.4408  0.2502
   40MOL   C14911147   0.614   0.391   6.447 -0.3150  0.2198 -0.2061
   40MOL   H15011148   0.516   0.405   6.124  1.2575 -3.0780 -0.8292
   40MOL   H15111149   0.403   0.204   6.188 -1.3543  1.3368  0.4902
   40MOL   H15211150   0.382   0.055   6.527 -1.5903 -1.5632 -0.2371
   40MOL   H15311151   0.303   8.142   6.236 -1.5862  0.9712 -0.0563
   40MOL   H15411152   0.558   0.213   6.577  1.9998  0.7877  0.6392
   40MOL   H15511153   0.677   0.435   6.522  1.3345 -1.4378 -0.5763
   40MOL   C15611154   0.271   8.009   6.378 -0.4668 -0.0042 -0.9257
   40MOL   C15711155   0.214   7.987   6.503  0.2592 -0.0342 -0.9046
   40MOL   C15811156   0.188   7.854   6.551 -0.2853 -0.6524 -0.4566
   40MOL   C15911157   0.212   7.743   6.470 -0.9145  0.3763 -0.2556
   40MOL   C16011158   0.207   7.604   6.522 -0.1093 -0.4829  0.3044
   40MOL   C16111159   0.155   7.567   6.642  0.2184 -0.2774  0.4914
   40MOL   C16211160   0.248   7.770   6.335  0.5822  0.4903 -0.5059
   40MOL   C16311161   0.284   7.904   6.289  0.5415  0.1650 -0.5506
   40MOL   H16411162   0.204   8.072   6.570 -0.9561 -1.0440  0.2207
   40MOL   H16511163   0.151   7.844   6.652 -0.0165  1.1150 -0.1710
   40MOL   H16611164   0.253   7.535   6.453  1.9331 -0.9318  2.0409
   40MOL   H16711165   0.112   7.637   6.711 -0.1007 -0.6941  0.7125
   40MOL   H16811166   0.279   7.681   6.282 -0.4066  0.3072 -0.7974
   40MOL   H16911167   0.342   7.916   6.199  0.7973  0.1063 -0.3931
   40MOL   C17011168   0.158   7.423   6.685  0.8288  0.0100 -0.8659
   40MOL   C17111169   0.226   7.316   6.626 -0.0213 -0.2472  0.9096
   40MOL   C17211170   0.230   7.188   6.690  0.0294  0.8610  0.5903
   40MOL   C17311171   0.176   7.167   6.816 -0.4436 -0.1833 -0.0846
   40MOL   C17411172   0.187   7.042   6.890 -0.1370 -0.2894 -0.9913
   40MOL   C17511173   0.246   6.927   6.846 -0.3157  0.3321  0.0652
   40MOL   C17611174   0.095   7.274   6.869  0.1793  0.4046 -0.3683
   40MOL   C17711175   0.087   7.399   6.804 -0.3943  0.0499  0.5586
   40MOL   H17811176   0.276   7.332   6.532  0.6943  3.3443  1.8479
   40MOL   H17911177   0.296   7.114   6.647 -0.0496  0.5297  1.0442
   40MOL   H18011178   0.147   7.048   6.991 -2.1162 -0.8858 -1.7081
   40MOL   H18111179   0.285   6.930   6.745  1.1189  1.1068  0.6429
   40MOL   H18211180   0.042   7.254   6.961 -0.0102 -0.5607 -0.6872
   40MOL   H18311181   0.031   7.480   6.849 -0.5283  0.8563 -1.0223
   40MOL   C18411182   0.278   6.812   6.933 -0.3673 -0.4921 -0.1787
   40MOL   C18511183   0.225   6.803   7.065  0.0755  0.1167 -0.9491
   40MOL   C18611184   0.265   6.688   7.143  0.5736 -0.8091 -0.4758
   40MOL   C18711185   0.369   6.604   7.098  0.6105  0.0211 -0.1249
   40MOL   C18811186   0.427   6.515   7.201 -0.1238  0.1728  0.0543
   40MOL   C18911187   0.526   6.428   7.187 -0.2769  0.0143  0.1728
   40MOL   C19011188   0.422   6.611   6.964  0.2160  0.1225 -0.1154
   40MOL   C19111189   0.367   6.712   6.886 -0.1565 -0.3231  0.7788
   40MOL   H19211190   0.149   6.871   7.101  0.9158  1.2078 -1.1878
   40MOL   H19311191   0.242   6.670   7.247  0.1613 -0.1505 -0.4516
   40MOL   H19411192   0.369   6.510   7.292  0.7588 -1.8873  0.5202
   40MOL   H19511193   0.583   6.442   7.096 -0.8770 -0.1429 -0.2250
   40MOL   H19611194   0.496   6.543   6.925 -2.3979 -2.0430 -1.4180
   40MOL   H19711195   0.403   6.720   6.784  0.4378 -2.5157  0.7975
   40MOL   C19811196   0.575   6.324   7.283 -0.1872 -0.4573 -0.6539
   40MOL   C19911197   0.521   6.318   7.414 -0.5674 -0.7199 -0.1931
   40MOL   C20011198   0.572   6.218   7.497 -0.0942  0.4113 -0.1314
   40MOL   C20111199   0.673   6.128   7.464 -0.1134 -0.0667 -0.3308
   40MOL   C20211200   0.724   6.025   7.558 -0.3641 -0.6512  0.3479
   40MOL   C20311201   0.831   5.949   7.538  0.4653  0.1715 -0.0098
   40MOL   C20411202   0.726   6.143   7.335  0.1810 -0.6559 -0.8361
   40MOL   C20511203   0.670   6.231   7.241 -0.3668  0.1833 -0.3475
   40MOL   H20611204   0.437   6.376   7.449 -0.9610 -0.8187 -0.9651
   40MOL   H20711205   0.531   6.212   7.596 -2.0293  0.5638 -0.8961
   40MOL   H20811206   0.678   6.022   7.656 -0.8884  1.5848  0.1988
   40MOL   H20911207   0.881   5.964   7.444 -0.3737  1.0520 -0.3207
   40MOL   H21011208   0.803   6.072   7.310 -0.9060 -2.8124  1.6616
   40MOL   H21111209   0.722   6.240   7.147 -3.1655  1.7071 -1.8087
   40MOL   C21211210   0.888   5.849   7.628 -0.1048 -0.3586 -0.4376
   40MOL   C21311211   0.966   5.747   7.574  0.3730 -0.3787 -0.0661
   40MOL   C21411212   1.026   5.652   7.662 -0.2154  0.0758 -0.2093
   40MOL   C21511213   0.999   5.648   7.799  0.0482 -0.1839 -0.2675
   40MOL   C21611214   1.064   5.549   7.890 -0.1671 -0.6404  0.1366
   40MOL   C21711215   1.171   5.471   7.855 -0.3297  0.0446 -0.0090
   40MOL   C21811216   0.921   5.747   7.853 -0.1670  0.4379 -0.1105
   40MOL   C21911217   0.874   5.851   7.773  0.4099  0.0815  0.9449
   40MOL   H22011218   0.987   5.744   7.468  1.6374  1.7365  0.1040
   40MOL   H22111219   1.090   5.579   7.615  0.6711  0.0489  1.0251
   40MOL   H22211220   1.028   5.542   7.991  1.5042  0.2390  0.8082
   40MOL   H22311221   1.216   5.466   7.757  0.8758  2.1475  0.4241
   40MOL   H22411222   0.909   5.752   7.960  3.0665 -0.5489  0.3469
   40MOL   H22511223   0.812   5.929   7.818  0.9062  0.4649  0.9677
   40MOL   C22611224   1.237   5.379   7.952 -0.5999 -0.0362  0.0561
   40MOL   C22711225   1.309   5.269   7.900  0.0253  0.0398  0.0984
   40MOL   C22811226   1.370   5.173   7.981  0.2378 -0.5891  0.1424
   40MOL   C22911227   1.365   5.190   8.121 -0.0877  0.4998 -0.1800
   40MOL   C23011228   1.435   5.100   0.067 -0.2378  0.3806  0.3095
   40MOL   C23111229   1.489   4.979   0.045  0.8234  0.5159  0.0423
   40MOL   C23211230   1.296   5.300   0.032  0.1608 -0.0799 -0.1085
   40MOL   C23311231   1.226   5.388   8.092 -0.8036 -0.4805 -0.0833
   40MOL   H23411232   1.316   5.254   7.793 -0.4056 -0.9216  0.1928
   40MOL   H23511233   1.411   5.083   7.939 -0.6185 -1.3507  0.9020
   40MOL   H23611234   1.451   5.141   0.166  3.1637 -0.7878  0.3022
   40MOL   H23711235   1.487   4.937   8.089  1.8071  0.2670  0.1202
   40MOL   H23811236   1.301   5.311   0.139 -2.3588  0.4787 -0.0101
   40MOL   H23911237   1.168   5.469   8.133 -1.1570 -0.7814  0.0190
   40MOL   C24011238   1.566   4.905   0.144 -0.3421  0.6654  0.4879
   40MOL   C24111239   1.648   4.802   0.097 -1.0805  0.3794 -0.2272
   40MOL   C24211240   1.729   4.725   0.179  0.2875 -0.0381 -0.4371
   40MOL   C24311241   1.730   4.760   0.316  0.2768  0.0839 -1.0139
   40MOL   C24411242   1.814   4.684   0.411  0.0535 -0.2316 -0.3243
   40MOL   C24511243   1.923   4.611   0.396  0.4652 -0.0589 -0.0377
   40MOL   C24611244   1.660   4.872   0.369 -0.5024 -0.9180 -0.0525
   40MOL   C24711245   1.574   4.945   0.281 -0.6133 -0.1857  0.8539
   40MOL   H24811246   1.648   4.783   8.135 -1.4262 -0.2247 -0.1223
   40MOL   H24911247   1.788   4.644   0.140 -1.4430 -0.3405 -2.5810
   40MOL   H25011248   1.767   4.688   0.507 -2.3708 -2.2815 -1.3653
   40MOL   H25111249   1.976   4.597   0.303 -0.2466  0.4649 -0.5185
   40MOL   H25211250   1.667   4.900   0.473  0.6649  1.9377 -0.8447
   40MOL   H25311251   1.506   5.021   0.316 -0.5424  1.4746 -2.4373
   40MOL   C25411252   1.981   4.534   0.506  0.4897  0.3835  0.2988
   40MOL   C25511253   1.954   4.557   0.643 -0.5881  0.8290 -0.2249
   40MOL   C25611254   2.021   4.480   0.741  0.2915 -1.4353  0.2636
   40MOL   C25711255   2.114   4.379   0.700 -0.6955  0.3360  0.3814
   40MOL   C25811256   2.170   4.295   0.806  0.5757  0.0070 -0.0911
   40MOL   C25911257   2.294   4.238   0.808 -0.2460 -0.2581  0.7469
   40MOL   C26011258   2.139   4.351   0.565  0.1830 -0.5503  0.0967
   40MOL   C26111259   2.074   4.433   0.469 -0.5011 -0.6367  0.8479
   40MOL   H26211260   1.880   4.627   0.678 -1.5491 -0.1770 -0.2088
   40MOL   H26311261   1.991   4.497   0.843  0.2674  1.4937 -0.2000
   40MOL   H26411262   2.119   4.270   0.897 -0.5069  0.0108 -0.6852
   40MOL   H26511263   2.301   4.175   0.895 -1.1388 -2.5097 -0.7602
   40MOL   H26611264   2.205   4.271   0.538 -0.0195 -0.2741 -1.2467
   40MOL   H26711265   2.098   4.415   0.365  0.5151 -0.8085  1.1035
   40MOL   C26811266   2.417   4.246   0.723 -0.6794 -0.2613  0.2982
   40MOL   C26911267   2.450   4.333   0.620  0.0708 -0.7579 -0.6543
   40MOL   C27011268   2.568   4.331   0.541  0.6067 -0.0307 -0.3050
   40MOL   C27111269   2.672   4.239   0.572 -0.0490 -0.2772 -0.0045
   40MOL   C27211270   2.804   4.225   0.504  0.2965  0.2612  0.7187
   40MOL   C27311271   2.901   4.128   0.513  0.2610 -0.1430 -0.6622
   40MOL   C27411272   2.639   4.146   0.677  0.2614  0.2565 -0.2931
   40MOL   C27511273   2.514   4.146   0.746  0.1892  0.7275 -0.5514
   40MOL   H27611274   2.377   4.411   0.600  1.1050 -0.1627 -2.2123
   40MOL   H27711275   2.581   4.397   0.456 -0.4798 -2.9994 -2.8751
   40MOL   H27811276   2.834   4.298   0.430 -2.5222  1.3983  0.6304
   40MOL   H27911277   2.904   4.044   0.580  0.9037 -0.6538 -1.3311
   40MOL   H28011278   2.705   4.065   0.699  0.5864  0.5675 -0.1212
   40MOL   H28111279   2.490   4.067   0.815  1.4728 -0.4058 -1.3639
   40MOL   H28211280   2.990   4.144   0.454 -0.6627 -0.6568 -2.2074
   41MOL     C111281   0.368   4.338   0.803  0.3037  0.1898 -0.2174
   41MOL     C211282   0.465   4.237   0.775  0.4145 -0.3314 -0.1879
   41MOL     C311283   0.533   4.238   0.653  0.5251 -0.7577  0.3750
   41MOL     C411284   0.519   4.341   0.558  0.0951 -0.2251  0.0309
   41MOL     C511285   0.601   4.336   0.432  0.4258  0.0182  0.0399
   41MOL     C611286   0.610   4.434   0.341  0.0079  0.2145  0.4994
   41MOL     C711287   0.416   4.435   0.579 -0.0902 -0.9137  0.1174
   41MOL     C811288   0.345   4.433   0.699 -0.2812  0.4935 -0.4101
   41MOL     H911289   0.480   4.158   0.847  0.6679 -0.3011 -0.2081
   41MOL    H1011290   0.606   4.160   0.641  1.3102  0.1717 -1.1440
   41MOL    H1111291   0.650   4.243   0.408  0.1127 -0.2765  0.5333
   41MOL    H1211292   0.567   4.531   0.358  0.9230  0.9735 -1.4238
   41MOL    H1311293   0.394   4.505   0.500 -0.9746 -1.9744 -0.6006
   41MOL    H1411294   0.266   4.504   0.720 -0.3237  0.5542 -0.7762
   41MOL    H1511295   0.331   4.346   0.904 -0.8292 -0.8165 -0.5430
   41MOL    C1611296   0.685   4.426   0.214 -0.6047 -0.5725 -0.1409
   41MOL    C1711297   0.786   4.334   0.205 -0.0841  0.9053 -0.2257
   41MOL    C1811298   0.852   4.317   0.075 -0.1045  0.0821 -0.2467
   41MOL    C1911299   0.821   4.406   8.113 -0.3488  0.5689 -0.3810
   41MOL    C2011300   0.895   4.371   7.989  0.1061 -0.8658  0.6515
   41MOL    C2111301   0.896   4.438   7.869 -0.1799 -0.4473 -0.3085
   41MOL    C2211302   0.730   4.510   8.139 -0.0034  0.4649  0.8158
   41MOL    C2311303   0.655   4.516   0.110  0.0024 -0.4632 -0.0598
   41MOL    H2411304   0.803   4.268   0.288  1.3472  0.5345 -0.7977
   41MOL    H2511305   0.921   4.235   0.066  0.1275  0.2566 -0.0721
   41MOL    H2611306   0.948   4.278   7.999  1.5347 -0.3880 -1.9017
   41MOL    H2711307   0.858   4.539   7.860  2.5410  0.7612  1.1256
   41MOL    H2811308   0.701   4.585   8.067 -0.7433 -2.3002 -1.8295
   41MOL    H2911309   0.571   4.584   0.116  1.4212  1.3890 -0.7798
   41MOL    C3011310   0.958   4.384   7.745 -0.4259 -0.1473  0.2898
   41MOL    C3111311   1.005   4.253   7.736  0.7758 -0.7044  0.2037
   41MOL    C3211312   1.055   4.204   7.612  0.3553  0.1200 -0.6394
   41MOL    C3311313   1.055   4.285   7.498  0.2274 -0.6467 -1.0776
   41MOL    C3411314   1.105   4.221   7.375  0.1689 -0.3731 -0.2880
   41MOL    C3511315   1.120   4.283   7.258  0.6514  0.2799 -0.0642
   41MOL    C3611316   1.002   4.415   7.508 -0.1030 -0.4904 -0.3653
   41MOL    C3711317   0.958   4.469   7.631 -0.5777  0.1784 -0.3257
   41MOL    H3811318   0.983   4.182   7.814 -0.4433  0.4693  0.9430
   41MOL    H3911319   1.081   4.099   7.607  2.5640  0.6137 -0.1239
   41MOL    H4011320   1.114   4.114   7.387  1.9736 -0.0749  1.3950
   41MOL    H4111321   1.105   4.390   7.251 -0.7500  0.0858 -0.1347
   41MOL    H4211322   1.009   4.490   7.430 -1.1051 -0.2909 -0.2760
   41MOL    H4311323   0.927   4.572   7.629 -1.0485  0.0447 -0.0095
   41MOL    C4411324   1.146   4.208   7.134 -0.1905  0.2349 -0.7032
   41MOL    C4511325   1.119   4.071   7.125  0.0234 -1.0252 -0.4256
   41MOL    C4611326   1.133   4.001   7.004  0.3527 -0.3939 -0.5820
   41MOL    C4711327   1.190   4.067   6.893  0.4282  0.9828  0.0157
   41MOL    C4811328   1.222   3.989   6.766  0.0230  0.3946  0.1412
   41MOL    C4911329   1.223   3.856   6.759 -0.3069  0.4350  0.9484
   41MOL    C5011330   1.227   4.205   6.909 -0.2899  0.0393 -1.0511
   41MOL    C5111331   1.202   4.279   7.027  0.4827 -0.2780 -0.1031
   41MOL    H5211332   1.070   4.017   7.206 -1.6333  0.2166 -0.5657
   41MOL    H5311333   1.103   3.897   6.997  1.0406 -0.6613  0.3473
   41MOL    H5411334   1.260   4.038   6.677  1.1687 -1.4581 -0.4091
   41MOL    H5511335   1.188   3.800   6.845 -0.7475 -1.1938 -0.2624
   41MOL    H5611336   1.277   4.260   6.830  0.6949  0.8118  0.0903
   41MOL    H5711337   1.249   4.375   7.039  1.1505 -0.3897 -1.6079
   41MOL    C5811338   1.245   3.771   6.635 -0.3717  0.0413 -1.1187
   41MOL    C5911339   1.250   3.627   6.650  0.5007 -0.1074  0.1888
   41MOL    C6011340   1.241   3.543   6.546 -0.3918 -0.0609  0.1808
   41MOL    C6111341   1.228   3.595   6.412 -0.2290  0.4399 -0.0961
   41MOL    C6211342   1.215   3.511   6.291 -0.3095 -0.3175  0.2655
   41MOL    C6311343   1.253   3.379   6.278  0.0058 -0.5984  0.7202
   41MOL    C6411344   1.230   3.732   6.393  0.6155 -0.1422 -0.1760
   41MOL    C6511345   1.231   3.819   6.506 -0.3281  0.3104  0.3611
   41MOL    H6611346   1.254   3.586   6.750  0.5740 -0.0478  0.2106
   41MOL    H6711347   1.248   3.437   6.565  3.3105 -0.3272 -2.1164
   41MOL    H6811348   1.163   3.559   6.211  0.3927 -1.9979 -1.2302
   41MOL    H6911349   1.309   3.344   6.364  0.8193  1.7982  1.1947
   41MOL    H7011350   1.230   3.775   6.294  1.4966  0.2832  0.0067
   41MOL    H7111351   1.233   3.926   6.496 -0.5773  0.3803  1.0222
   41MOL    C7211352   1.244   3.304   6.150 -0.2285 -0.2895  0.6444
   41MOL    C7311353   1.287   3.173   6.154  0.1071 -0.0988 -0.3059
   41MOL    C7411354   1.265   3.089   6.041 -0.6572  0.5946  0.5392
   41MOL    C7511355   1.202   3.146   5.928 -0.0948 -0.6552 -0.2474
   41MOL    C7611356   1.167   3.049   5.823 -0.5443 -0.2105 -0.8985
   41MOL    C7711357   1.112   3.072   5.702 -0.9554  0.8789 -0.2412
   41MOL    C7811358   1.173   3.283   5.922 -0.1844 -0.4840  0.0944
   41MOL    C7911359   1.188   3.361   6.036  0.6673 -0.3679 -0.3261
   41MOL    H8011360   1.323   3.130   6.247  1.3021 -2.4418 -1.7986
   41MOL    H8111361   1.291   2.985   6.051  2.8940  1.4242  0.5668
   41MOL    H8211362   1.183   2.948   5.858  0.6417  0.5198  0.7874
   41MOL    H8311363   1.084   3.170   5.668 -0.7624  1.2959  0.8032
   41MOL    H8411364   1.130   3.318   5.829  1.2742 -0.8545 -0.7482
   41MOL    H8511365   1.142   3.459   6.037  0.6246 -0.3210 -2.9910
   41MOL    C8611366   1.072   2.957   5.612  0.1203  0.2902  0.4776
   41MOL    C8711367   1.036   2.985   5.479 -0.7801  0.3157 -0.1637
   41MOL    C8811368   0.992   2.879   5.390  0.2122  0.4594  0.1202
   41MOL    C8911369   0.958   2.750   5.439  0.2380 -0.2566  0.6132
   41MOL    C9011370   0.905   2.651   5.356  0.2018  0.1579 -0.9580
   41MOL    C9111371   0.934   2.637   5.227  0.1751  0.3371 -0.1301
   41MOL    C9211372   0.996   2.727   5.571 -0.7118 -0.7850  0.5856
   41MOL    C9311373   1.049   2.827   5.657  0.7723 -0.5526 -0.0607
   41MOL    H9411374   1.035   3.087   5.446  0.0979 -0.2365 -1.9629
   41MOL    H9511375   0.963   2.904   5.289 -1.8769  0.2291  0.6228
   41MOL    H9611376   0.845   2.572   5.397  1.2031 -0.1736 -0.1274
   41MOL    H9711377   1.002   2.710   5.184 -0.3665  1.7346  1.3118
   41MOL    H9811378   0.986   2.625   5.606  0.3605 -0.2543  2.4890
   41MOL    H9911379   1.069   2.801   5.760 -2.4099 -0.1096  0.7069
   41MOL   C10011380   0.884   2.530   5.137 -0.3646 -0.2810  0.1538
   41MOL   C10111381   0.935   2.529   5.006 -0.2991  0.3881  0.4323
   41MOL   C10211382   0.858   2.455   4.906 -0.1285  0.4253 -0.0742
   41MOL   C10311383   0.751   2.375   4.944 -0.8449 -0.3314 -0.2566
   41MOL   C10411384   0.676   2.314   4.833 -0.5328 -0.0616 -0.3490
   41MOL   C10511385   0.559   2.254   4.838 -0.1425 -0.8148 -0.4589
   41MOL   C10611386   0.707   2.371   5.077 -0.0565  0.3913 -0.0678
   41MOL   C10711387   0.778   2.443   5.174 -0.0766  0.0155  0.3493
   41MOL   H10811388   1.015   2.594   4.974 -0.7221 -0.4520 -2.4949
   41MOL   H10911389   0.885   2.472   4.803  1.0543 -2.2687 -0.2411
   41MOL   H11011390   0.729   2.323   4.740  1.7106  0.2727  0.9150
   41MOL   H11111391   0.504   2.240   4.930  0.0193  0.8343 -0.0964
   41MOL   H11211392   0.615   2.324   5.108  1.2409 -1.8087  0.6417
   41MOL   H11311393   0.738   2.450   5.274 -0.4614 -2.6859  0.4364
   41MOL   C11411394   0.479   2.202   4.725  0.7634 -0.8372 -0.3012
   41MOL   C11511395   0.349   2.146   4.748  0.5460  0.5883  0.0505
   41MOL   C11611396   0.271   2.090   4.643 -0.2693  0.7322 -0.4192
   41MOL   C11711397   0.322   2.091   4.510 -0.3181  0.2070 -0.1840
   41MOL   C11811398   0.250   2.034   4.397 -0.6102 -0.4539 -0.3448
   41MOL   C11911399   0.120   1.999   4.396  0.5537 -0.0517  0.9772
   41MOL   C12011400   0.445   2.155   4.497  0.1803  0.1425 -0.3411
   41MOL   C12111401   0.524   2.210   4.599  0.4176 -0.0421  0.6290
   41MOL   H12211402   0.307   2.149   4.847  0.2656  1.5155 -0.0860
   41MOL   H12311403   0.171   2.056   4.664  0.1195 -1.1305 -1.5062
   41MOL   H12411404   0.309   2.026   4.307  1.0704 -0.9656  0.7863
   41MOL   H12511405   0.060   1.995   4.486  1.3069 -2.5181  1.4038
   41MOL   H12611406   0.485   2.174   4.399  1.0889  0.4097  0.0729
   41MOL   H12711407   0.615   2.259   4.566  0.4495 -1.6308 -1.8389
   41MOL   C12811408   0.039   1.956   4.276  0.4921 -0.3444  0.3144
   41MOL   C12911409   8.047   1.947   4.292  0.3326 -0.0490 -0.0687
   41MOL   C13011410   7.964   1.918   4.180 -0.1789 -0.3538 -0.0184
   41MOL   C13111411   8.019   1.873   4.060  0.7936  0.1586  0.3601
   41MOL   C13211412   7.925   1.847   3.950 -0.5096  0.3734 -0.1117
   41MOL   C13311413   7.980   1.797   3.834 -0.1042 -0.3532 -0.3739
   41MOL   C13411414   0.017   1.863   4.050  0.1995  0.1387  1.0160
   41MOL   C13511415   0.098   1.909   4.159  0.3173  0.0778 -0.2652
   41MOL   H13611416   7.989   1.978   4.377  2.2236  0.4370  1.0583
   41MOL   H13711417   7.857   1.924   4.198 -0.0348  0.1885  0.6700
   41MOL   H13811418   7.819   1.864   3.947 -0.2267  2.0501 -0.7319
   41MOL   H13911419   8.086   1.775   3.828  0.1837  0.8437  0.2890
   41MOL   H14011420   0.069   1.828   3.962  0.2367 -0.6736  1.3589
   41MOL   H14111421   0.205   1.909   4.149  0.2321 -3.8286 -2.2477
   41MOL   C14211422   7.908   1.759   3.715  0.3646 -0.6450  0.4560
   41MOL   C14311423   7.978   1.749   3.592 -0.3094  0.7346  1.6944
   41MOL   C14411424   7.910   1.722   3.473 -0.2553 -0.0009  0.8828
   41MOL   C14511425   7.769   1.706   3.469  0.4292 -0.4593  0.2345
   41MOL   C14611426   7.700   1.697   3.340 -0.1111  0.4367  0.7199
   41MOL   C14711427   7.581   1.752   3.314 -0.4280 -0.1420 -0.6682
   41MOL   C14811428   7.701   1.734   3.587  0.0351 -0.1490  0.3970
   41MOL   C14911429   7.767   1.753   3.709 -0.1467 -0.1908  0.0119
   41MOL   H15011430   8.086   1.752   3.590 -0.3579  1.6811  0.1714
   41MOL   H15111431   7.964   1.714   3.380 -0.8624  2.5670  0.2587
   41MOL   H15211432   7.747   1.635   3.265 -2.2113  1.8944 -1.8486
   41MOL   H15311433   7.543   1.818   3.391  4.1838 -0.8341  2.3860
   41MOL   H15411434   7.593   1.741   3.589 -0.0178 -0.5140 -0.9304
   41MOL   H15511435   7.713   1.773   3.800  0.3838  2.0001 -0.1383
   41MOL   C15611436   7.500   1.735   3.194  0.1029  0.4464  0.1264
   41MOL   C15711437   7.369   1.791   3.207 -0.4416  0.4087  0.5024
   41MOL   C15811438   7.275   1.777   3.100  0.3346 -0.0262 -0.8839
   41MOL   C15911439   7.310   1.702   2.984 -0.6309 -0.3114  0.8286
   41MOL   C16011440   7.212   1.686   2.876  0.3110  0.1651 -0.2800
   41MOL   C16111441   7.081   1.681   2.892  0.1161 -0.0121  0.0087
   41MOL   C16211442   7.450   1.664   2.965  1.0544  0.1503 -0.9984
   41MOL   C16311443   7.543   1.673   3.078 -0.5058  0.1060  0.3693
   41MOL   H16411444   7.340   1.846   3.296  0.8947  0.7293  0.7513
   41MOL   H16511445   7.177   1.822   3.105  0.3902 -0.0542  0.9123
   41MOL   H16611446   7.243   1.674   2.774  1.5431 -2.1659  0.3335
   41MOL   H16711447   7.046   1.682   2.994 -2.7167  1.7714 -0.9185
   41MOL   H16811448   7.477   1.631   2.866 -0.4966  1.5473 -1.9094
   41MOL   H16911449   7.645   1.641   3.063 -0.6405  0.1802 -0.7174
   41MOL   C17011450   6.973   1.685   2.792  0.5816 -0.4822 -0.3278
   41MOL   C17111451   6.986   1.650   2.656 -0.8012  0.2000 -0.8268
   41MOL   C17211452   6.880   1.656   2.569  0.0604 -0.2454 -1.0406
   41MOL   C17311453   6.752   1.710   2.613  0.6463 -0.0266  0.1128
   41MOL   C17411454   6.647   1.722   2.516 -0.9222  0.1228  0.1692
   41MOL   C17511455   6.529   1.784   2.525 -0.1928  0.5126 -0.3685
   41MOL   C17611456   6.742   1.756   2.748  0.1296  0.2938 -1.0085
   41MOL   C17711457   6.852   1.742   2.835  0.3950  0.0233 -0.4044
   41MOL   H17811458   7.078   1.611   2.616  0.3345  0.9763  0.9468
   41MOL   H17911459   6.890   1.627   2.465  1.9008 -0.4717 -0.8108
   41MOL   H18011460   6.669   1.675   2.422  0.1293 -1.5446  1.2226
   41MOL   H18111461   6.510   1.825   2.623  2.2244  2.5736 -0.7007
   41MOL   H18211462   6.649   1.803   2.774 -2.2951 -3.0902 -3.1595
   41MOL   H18311463   6.833   1.798   2.926  0.9145 -1.3994  0.5977
   41MOL   C18411464   6.417   1.803   2.429 -0.6865  0.9499 -0.3662
   41MOL   C18511465   6.435   1.766   2.293  0.2223 -0.2937  0.4129
   41MOL   C18611466   6.319   1.782   2.209  0.3063 -0.3599  0.4940
   41MOL   C18711467   6.195   1.833   2.255  0.2942  0.1920 -0.1357
   41MOL   C18811468   6.086   1.846   2.151 -0.2487 -0.4808 -0.2676
   41MOL   C18911469   5.957   1.876   2.167  0.0611  0.2096 -0.2446
   41MOL   C19011470   6.187   1.870   2.388 -0.3521 -0.6891 -0.0127
   41MOL   C19111471   6.289   1.851   2.477 -0.2334  0.9502 -0.3679
   41MOL   H19211472   6.528   1.730   2.252  0.5911  1.5002 -0.3997
   41MOL   H19311473   6.327   1.754   2.105 -4.0295 -1.6573  0.3978
   41MOL   H19411474   6.118   1.813   2.053 -1.3098 -1.9255 -0.1449
   41MOL   H19511475   5.931   1.894   2.271  1.2396 -0.4149  0.1683
   41MOL   H19611476   6.103   1.925   2.429  1.6754  3.2651 -0.8429
   41MOL   H19711477   6.271   1.885   2.578  0.9947  3.2229 -0.8835
   41MOL   C19811478   5.859   1.882   2.061 -0.2698 -0.2071  1.1519
   41MOL   C19911479   5.739   1.945   2.102 -0.2231 -0.1571 -0.4255
   41MOL   C20011480   5.624   1.960   2.018  0.0360  0.5386  0.8503
   41MOL   C20111481   5.633   1.903   1.889  1.1547 -0.1555 -1.5185
   41MOL   C20211482   5.515   1.927   1.793  0.5343  0.1189  0.2064
   41MOL   C20311483   5.526   1.890   1.668 -0.0914 -0.3720 -0.2946
   41MOL   C20411484   5.751   1.826   1.855 -1.2844 -0.3794 -0.1627
   41MOL   C20511485   5.864   1.815   1.943  0.1616  0.1986  0.4410
   41MOL   H20611486   5.736   1.995   2.197 -1.9028  1.3152 -1.2125
   41MOL   H20711487   5.524   1.996   2.037 -1.9227 -1.5816 -4.5211
   41MOL   H20811488   5.425   1.967   1.837  0.9760  0.5195  0.7498
   41MOL   H20911489   5.622   1.854   1.633  1.2340  1.9105  0.8520
   41MOL   H21011490   5.750   1.778   1.758 -0.9437 -0.9318  0.0972
   41MOL   H21111491   5.952   1.754   1.925 -1.6402 -2.1459 -0.8102
   41MOL   C21211492   5.422   1.903   1.558 -0.0831 -0.6162 -0.7053
   41MOL   C21311493   5.309   1.994   1.584  0.9686 -0.4887  0.0804
   41MOL   C21411494   5.202   1.996   1.492  0.7326 -1.0593  0.2570
   41MOL   C21511495   5.198   1.903   1.378 -0.3976 -0.4393  0.3217
   41MOL   C21611496   5.072   1.897   1.300 -0.1233 -0.5281  0.5281
   41MOL   C21711497   5.057   1.817   1.193  0.8656  0.1273  0.3129
   41MOL   C21811498   5.310   1.825   1.347  1.0222 -0.0216  0.5732
   41MOL   C21911499   5.422   1.820   1.439  1.2686  0.1660  0.0847
   41MOL   H22011500   5.300   2.054   1.673 -1.0778 -1.2441  0.4012
   41MOL   H22111501   5.117   2.058   1.520 -0.3414 -2.0106 -0.8302
   41MOL   H22211502   4.983   1.947   1.336 -1.5221 -2.9091  0.5070
   41MOL   H22311503   5.140   1.760   1.153 -0.7718 -2.8328  1.0076
   41MOL   H22411504   5.313   1.762   1.259 -0.4528  0.1695  0.3702
   41MOL   H22511505   5.507   1.757   1.418  0.7459 -0.8649  0.9871
   41MOL   C22611506   4.926   1.799   1.132  0.1264 -0.9064  0.0688
   41MOL   C22711507   4.929   1.758   0.999  0.2392  0.2524 -0.2922
   41MOL   C22811508   4.811   1.728   0.933  0.2637  0.2635  0.0595
   41MOL   C22911509   4.683   1.746   0.993  0.2816 -0.4651 -0.8955
   41MOL   C23011510   4.558   1.709   0.921 -0.1873 -0.0205 -0.6254
   41MOL   C23111511   4.551   1.671   0.788 -0.7999 -0.5753 -0.3189
   41MOL   C23211512   4.686   1.804   1.118  0.0237  0.5295 -0.8679
   41MOL   C23311513   4.801   1.826   1.198 -0.4109  0.0817  0.2173
   41MOL   H23411514   5.027   1.747   0.954  0.8131  3.1991  0.1620
   41MOL   H23511515   4.823   1.692   0.832 -2.1074  1.0149 -0.5297
   41MOL   H23611516   4.467   1.719   0.977 -0.7968  0.0848 -1.6272
   41MOL   H23711517   4.644   1.648   0.739  0.5720  1.6857  1.1757
   41MOL   H23811518   4.592   1.807   1.170  0.5447 -0.1769  0.1427
   41MOL   H23911519   4.800   1.863   1.299  4.1582  0.1752  0.3021
   41MOL   C24011520   4.432   1.652   0.712  0.0561  0.0426 -0.2688
   41MOL   C24111521   4.436   1.663   0.577 -0.3951  0.6455 -0.6357
   41MOL   C24211522   4.314   1.644   0.503 -0.1145  0.1900  0.3514
   41MOL   C24311523   4.189   1.619   0.564 -0.2307  0.4016 -0.4202
   41MOL   C24411524   4.068   1.602   0.488 -0.3376  0.5791  0.3945
   41MOL   C24511525   4.038   1.660   0.367 -0.5200 -0.1246 -1.3482
   41MOL   C24611526   4.193   1.624   0.706  0.6384  0.0532  0.4406
   41MOL   C24711527   4.312   1.641   0.782 -0.5115  0.3876  1.0217
   41MOL   H24811528   4.521   1.704   0.523  1.0397  1.3296  2.0384
   41MOL   H24911529   4.316   1.664   0.397 -1.3354 -0.3282  0.2261
   41MOL   H25011530   4.006   1.519   0.520 -0.8223  0.1545 -1.5602
   41MOL   H25111531   4.104   1.744   0.350 -0.6373 -0.0067 -1.2265
   41MOL   H25211532   4.100   1.616   0.760  0.3396 -0.4827 -0.1360
   41MOL   H25311533   4.295   1.634   0.888  0.3072 -1.3546  1.0614
   41MOL   C25411534   3.930   1.622   0.276 -0.3188 -0.4420 -0.1482
   41MOL   C25511535   3.887   1.487   0.261 -0.5015 -0.4783 -0.5942
   41MOL   C25611536   3.788   1.460   0.167 -0.4686  0.1157 -0.0844
   41MOL   C25711537   3.733   1.562   0.082 -0.0583  0.4332  0.1566
   41MOL   C25811538   3.643   1.530   8.117 -0.1535 -0.0491  0.2297
   41MOL   C25911539   3.549   1.435   8.102 -0.1922  0.6230 -0.1015
   41MOL   C26011540   3.786   1.698   0.089 -0.2889 -0.2986 -0.3305
   41MOL   C26111541   3.888   1.720   0.187 -0.4924 -0.8315  1.0360
   41MOL   H26211542   3.935   1.405   0.312  0.3065  0.3372 -0.0220
   41MOL   H26311543   3.762   1.356   0.153 -0.9538  0.5080 -2.3500
   41MOL   H26411544   3.655   1.591   8.028  0.2413 -0.5763 -0.0763
   41MOL   H26511545   3.495   1.433   8.008 -1.5684  1.6667  0.6487
   41MOL   H26611546   3.757   1.774   0.019 -0.7068 -0.5012 -0.3813
   41MOL   H26711547   3.923   1.822   0.182 -0.3744 -0.9250 -0.4302
   41MOL   C26811548   3.490   1.340   0.049 -0.5347  0.2290  0.2438
   41MOL   C26911549   3.434   1.219   8.136  0.7042  0.2261  0.1927
   41MOL   C27011550   3.393   1.117   0.081  0.1526 -0.2966  0.0892
   41MOL   C27111551   3.391   1.128   0.215  0.0188  0.5761 -0.0209
   41MOL   C27211552   3.343   1.017   0.297  0.4190  0.1009 -0.6035
   41MOL   C27311553   3.395   0.990   0.419  0.5314 -0.3563  0.2147
   41MOL   C27411554   3.438   1.249   0.272  0.3082 -0.5162 -0.4793
   41MOL   C27511555   3.489   1.353   0.188 -0.4855  0.3900 -0.2818
   41MOL   H27611556   3.442   1.191   8.032  3.9350 -1.5534  0.8317
   41MOL   H27711557   3.362   1.029   0.027  0.9433 -1.6837  1.7980
   41MOL   H27811558   3.258   0.957   0.268 -0.6221  0.0344  2.4341
   41MOL   H27911559   3.473   1.048   0.464 -0.1223 -1.1339  2.4569
   41MOL   H28011560   3.427   1.257   0.379  0.4552 -0.9400 -0.4311
   41MOL   H28111561   3.515   1.440   0.247 -1.2124  0.5787 -0.2401
   41MOL   H28211562   3.353   0.907   0.475  1.9319 -1.5353 -0.4402
   42MOL     C111563   5.878   0.130   6.935 -0.6695 -0.6499  0.6414
   42MOL     C211564   5.975   0.059   6.857 -0.1882 -0.3856 -0.0411
   42MOL     C311565   6.114   0.096   6.874  0.0482 -0.3064 -0.4278
   42MOL     C411566   6.151   0.197   6.962  0.3839 -0.3174  0.0533
   42MOL     C511567   6.291   0.238   6.983 -0.3434  0.1365  0.4592
   42MOL     C611568   6.334   0.334   7.065  0.0266  0.3986 -0.6383
   42MOL     C711569   6.050   0.259   7.036 -0.9672  0.2331  0.5841
   42MOL     C811570   5.917   0.227   7.025  0.2931 -0.2542  0.0599
   42MOL     H911571   5.946   8.129   6.785  0.2386 -2.1701  1.5915
   42MOL    H1011572   6.196   0.057   6.817  1.0692  1.2451 -0.0607
   42MOL    H1111573   6.355   0.188   6.912 -0.1245  2.6928 -1.1871
   42MOL    H1211574   6.264   0.383   7.132 -0.8305  0.4394 -1.5527
   42MOL    H1311575   6.062   0.339   7.108  1.6613  1.0723 -0.7103
   42MOL    H1411576   5.848   0.278   7.091 -1.1817  0.2387 -1.8309
   42MOL    H1511577   5.774   0.111   6.912 -0.8619  1.4293 -0.3749
   42MOL    C1611578   6.475   0.364   7.100  0.3075 -0.8186 -0.2523
   42MOL    C1711579   6.586   0.303   7.050  0.3922 -0.7221 -0.6337
   42MOL    C1811580   6.711   0.337   7.088  0.1348 -0.2175  0.4067
   42MOL    C1911581   6.726   0.442   7.185 -0.5168 -1.1352 -0.5137
   42MOL    C2011582   6.860   0.490   7.223 -0.0948  0.9876 -0.0023
   42MOL    C2111583   6.903   0.567   7.323  0.2986  0.0823  0.7690
   42MOL    C2211584   6.613   0.490   7.250  0.2709  0.0437 -0.0963
   42MOL    C2311585   6.485   0.453   7.200  0.0499  0.2063 -0.4718
   42MOL    H2411586   6.575   0.224   6.978 -2.9294  0.2871 -1.3383
   42MOL    H2511587   6.794   0.280   7.048 -0.5802 -0.5747 -0.5792
   42MOL    H2611588   6.942   0.456   7.161 -1.1697  1.6551 -1.8383
   42MOL    H2711589   6.830   0.611   7.389 -2.2222 -1.8259 -0.6913
   42MOL    H2811590   6.623   0.568   7.323  0.2929 -0.5908  0.5789
   42MOL    H2911591   6.400   0.505   7.240  0.3473 -1.5960  2.6310
   42MOL    C3011592   7.045   0.601   7.352  0.2228  0.1225 -0.5166
   42MOL    C3111593   7.083   0.636   7.479  0.6072 -0.7645 -0.4030
   42MOL    C3211594   7.216   0.670   7.517  0.0698 -0.1933 -0.1529
   42MOL    C3311595   7.312   0.648   7.421 -0.1265 -0.0271 -0.1002
   42MOL    C3411596   7.446   0.659   7.468 -1.2260  0.0450  0.0406
   42MOL    C3511597   7.551   0.594   7.411  0.0831  0.5194 -0.0084
   42MOL    C3611598   7.281   0.599   7.292  0.3483  0.1623 -0.0190
   42MOL    C3711599   7.149   0.576   7.259 -0.0455  0.1779  0.6306
   42MOL    H3811600   7.009   0.618   7.555  1.3536 -1.8650  0.0777
   42MOL    H3911601   7.253   0.680   7.618 -0.2778  0.9986 -0.1326
   42MOL    H4011602   7.470   0.732   7.543 -0.2198  0.4552 -0.6650
   42MOL    H4111603   7.507   0.524   7.342 -1.0566  1.9708 -0.7747
   42MOL    H4211604   7.353   0.572   7.217 -0.1958  0.9112 -0.8224
   42MOL    H4311605   7.134   0.526   7.164  1.4715 -0.4267  0.6865
   42MOL    C4411606   7.697   0.607   7.440 -0.4048 -0.1829  0.4891
   42MOL    C4511607   7.753   0.722   7.498 -0.7650  0.1958  0.3844
   42MOL    C4611608   7.889   0.737   7.481 -0.4165 -0.5710 -0.5289
   42MOL    C4711609   7.975   0.633   7.435  0.3918 -0.8035 -0.2286
   42MOL    C4811610   8.115   0.670   7.434 -0.6883  0.2236  0.1276
   42MOL    C4911611   0.066   0.600   7.381  0.0912 -0.4561 -0.3350
   42MOL    C5011612   7.919   0.510   7.402 -0.3943 -0.4364 -0.3169
   42MOL    C5111613   7.778   0.500   7.395  0.8303 -0.3173 -0.5447
   42MOL    H5211614   7.693   0.803   7.537 -1.1415  1.2226 -2.2117
   42MOL    H5311615   7.934   0.830   7.512 -1.6261 -0.5809  1.3163
   42MOL    H5411616   0.003   0.763   7.478 -2.6266  1.0611 -0.1626
   42MOL    H5511617   0.035   0.509   7.331 -0.1236 -0.4811 -0.1620
   42MOL    H5611618   7.977   0.433   7.352 -0.0068 -0.2631 -0.1333
   42MOL    H5711619   7.737   0.410   7.350 -0.3861 -0.1683  0.2537
   42MOL    C5811620   0.209   0.633   7.368 -0.5302 -0.4932 -0.2196
   42MOL    C5911621   0.287   0.538   7.307 -0.7462  0.4307 -0.4977
   42MOL    C6011622   0.425   0.561   7.285 -0.0878  0.1461  0.0699
   42MOL    C6111623   0.490   0.681   7.322  0.5395  0.5590  0.2453
   42MOL    C6211624   0.630   0.699   7.293 -0.3693 -0.1991 -0.4100
   42MOL    C6311625   0.715   0.797   7.330  0.4461  0.6948 -0.4187
   42MOL    C6411626   0.410   0.779   7.394 -0.1544  0.4617 -0.1966
   42MOL    C6511627   0.271   0.755   7.414  0.4233 -0.3319 -0.3851
   42MOL    H6611628   0.245   0.443   7.278 -2.4156  0.4481  1.7252
   42MOL    H6711629   0.484   0.491   7.228  1.1489  1.8871 -0.8334
   42MOL    H6811630   0.680   0.626   7.232  0.2330 -0.3890  0.3002
   42MOL    H6911631   0.673   0.863   7.404  0.2879 -0.2806  0.3857
   42MOL    H7011632   0.442   0.875   7.432 -0.7259 -0.3108  2.3774
   42MOL    H7111633   0.211   0.831   7.462  1.4452  0.8152 -0.9038
   42MOL    C7211634   0.854   0.819   7.290  0.5857 -0.8853  0.5003
   42MOL    C7311635   0.908   0.946   7.314 -0.4790  0.3118  0.5556
   42MOL    C7411636   1.040   0.976   7.264 -0.4611  0.5164  0.0066
   42MOL    C7511637   1.111   0.874   7.200 -1.0463  0.2129 -0.5418
   42MOL    C7611638   1.250   0.892   7.165 -0.5365  0.2139  0.1541
   42MOL    C7711639   1.323   1.003   7.180  0.5999  0.0387 -0.2220
   42MOL    C7811640   1.045   0.753   7.163 -0.4492  0.2014  0.2663
   42MOL    C7911641   0.920   0.726   7.210  0.2885  0.7898 -0.2506
   42MOL    H8011642   0.865   1.021   7.379 -1.3692  0.0007  0.3283
   42MOL    H8111643   1.088   1.071   7.282 -2.0165  1.1060  1.1677
   42MOL    H8211644   1.291   0.805   7.115 -0.0426  0.3485  0.3262
   42MOL    H8311645   1.280   1.093   7.223  0.8648  0.9598 -1.8395
   42MOL    H8411646   1.100   0.679   7.107  1.0772  0.5892  1.2280
   42MOL    H8511647   0.878   0.626   7.201 -0.7890  1.0897  1.3493
   42MOL    C8611648   1.464   1.015   7.146 -0.3432 -0.8731 -0.7400
   42MOL    C8711649   1.536   0.912   7.084 -0.4636  0.1668  0.7375
   42MOL    C8811650   1.670   0.927   7.043  0.1363 -0.1424 -0.2716
   42MOL    C8911651   1.735   1.047   7.077 -0.3627  0.4032  0.6368
   42MOL    C9011652   1.874   1.073   7.049  0.7170 -0.5945 -0.2003
   42MOL    C9111653   1.952   1.042   6.942 -0.3651 -0.4667 -0.0699
   42MOL    C9211654   1.667   1.147   7.151  0.3634  0.5096 -0.3093
   42MOL    C9311655   1.531   1.128   7.188 -0.2089  0.0068  0.6029
   42MOL    H9411656   1.490   0.820   7.054  0.7115 -0.9144  2.1460
   42MOL    H9511657   1.732   0.851   6.997  2.4358  1.6058 -0.1408
   42MOL    H9611658   1.929   1.118   7.130 -1.7600  1.4713  0.3983
   42MOL    H9711659   1.899   0.993   6.862  0.0586 -0.0403 -0.6120
   42MOL    H9811660   1.715   1.239   7.178  1.0934 -0.1394  0.6327
   42MOL    H9911661   1.475   1.202   7.244  0.1257  1.0246 -0.3868
   42MOL   C10011662   2.096   1.081   6.923  0.6428  0.3337 -0.5878
   42MOL   C10111663   2.160   1.058   6.797 -0.1219  0.2983 -0.3892
   42MOL   C10211664   2.294   1.092   6.774 -0.4217 -0.1793 -0.2423
   42MOL   C10311665   2.371   1.164   6.869 -0.2297 -0.0734 -0.4275
   42MOL   C10411666   2.510   1.204   6.851  0.9875  0.3975  0.0791
   42MOL   C10511667   2.596   1.217   6.955  0.2975 -0.3268 -0.0601
   42MOL   C10611668   2.308   1.182   6.995 -0.4653 -0.0051  0.6198
   42MOL   C10711669   2.172   1.145   7.021  0.1192 -0.4244  0.2980
   42MOL   H10811670   2.108   1.005   6.718  1.3331 -0.1242 -1.0827
   42MOL   H10911671   2.338   1.061   6.680 -0.8623 -0.5965 -0.3123
   42MOL   H11011672   2.543   1.221   6.749 -0.9710  0.1489 -0.6222
   42MOL   H11111673   2.555   1.190   7.051 -1.5882 -1.9602 -1.3016
   42MOL   H11211674   2.365   1.242   7.064 -2.7683  1.2611  1.4724
   42MOL   H11311675   2.128   1.179   7.113  1.2807 -3.1217  1.9085
   42MOL   C11411676   2.737   1.261   6.958  0.2676 -0.1372 -1.0637
   42MOL   C11511677   2.789   1.290   7.086  0.1473 -0.4799  0.2864
   42MOL   C11611678   2.911   1.352   7.096  0.1615  0.7613 -0.3056
   42MOL   C11711679   2.986   1.384   6.978  0.7461  0.5466 -0.1227
   42MOL   C11811680   3.108   1.453   6.981  0.7350 -0.2000  0.0914
   42MOL   C11911681   3.136   1.539   7.079  0.2605 -0.1958 -0.2774
   42MOL   C12011682   2.927   1.367   6.852  0.1226  0.1930  0.6648
   42MOL   C12111683   2.802   1.307   6.843  0.5374 -0.3279  0.8569
   42MOL   H12211684   2.731   1.284   7.177  0.0649  0.4391  0.2967
   42MOL   H12311685   2.953   1.372   7.194 -0.0383  0.5341 -0.1723
   42MOL   H12411686   3.171   1.437   6.895  1.0850 -1.0536  0.5030
   42MOL   H12511687   3.056   1.554   7.149 -2.6902  2.0693 -3.9375
   42MOL   H12611688   2.979   1.397   6.762 -1.7622  1.3044 -0.0734
   42MOL   H12711689   2.758   1.296   6.745  0.0704 -0.1030  1.0385
   42MOL   C12811690   3.251   1.624   7.100 -0.5783 -0.9203  0.0944
   42MOL   C12911691   3.249   1.715   7.212 -0.1169 -0.5751 -0.2970
   42MOL   C13011692   3.362   1.797   7.240 -0.2159  0.0288  0.2584
   42MOL   C13111693   3.474   1.806   7.149 -0.5185  0.2939  0.4669
   42MOL   C13211694   3.593   1.893   7.168 -0.3574  0.0910  0.4124
   42MOL   C13311695   3.598   1.987   7.262  0.5994  0.0252  0.6729
   42MOL   C13411696   3.468   1.719   7.039 -0.8928 -0.1336 -0.4625
   42MOL   C13511697   3.363   1.631   7.012  0.2144  0.0552 -0.8584
   42MOL   H13611698   3.169   1.711   7.284 -0.9764  0.3161 -1.1858
   42MOL   H13711699   3.368   1.855   7.331 -1.5834  0.4819  0.0710
   42MOL   H13811700   3.681   1.875   7.107 -0.1709  0.5567  0.5397
   42MOL   H13911701   3.512   2.009   7.324 -1.2932 -3.4483 -0.5952
   42MOL   H14011702   3.552   1.713   6.973  0.0133 -1.4555  0.7988
   42MOL   H14111703   3.364   1.576   6.919  2.8063  0.7686 -1.2788
   42MOL   C14211704   3.712   2.076   7.295  0.6157  0.2140  0.6273
   42MOL   C14311705   3.691   2.185   7.383 -0.5684 -0.1827  0.3652
   42MOL   C14411706   3.790   2.279   7.417  0.4174 -0.0024  0.0982
   42MOL   C14511707   3.926   2.256   7.365 -0.3396 -0.3477 -0.0725
   42MOL   C14611708   4.048   2.351   7.388  0.6567 -0.2715  0.6430
   42MOL   C14711709   4.132   2.392   7.297 -1.1583 -0.3191  1.0022
   42MOL   C14811710   3.945   2.147   7.276 -0.7123 -0.8514  0.5139
   42MOL   C14911711   3.842   2.058   7.235 -1.0165  0.4503  0.4419
   42MOL   H15011712   3.596   2.191   7.434 -1.9484  0.1287 -2.1309
   42MOL   H15111713   3.779   2.357   7.492 -1.0439 -0.3056  0.2076
   42MOL   H15211714   4.061   2.383   7.490 -1.1046 -1.3018  1.2047
   42MOL   H15311715   4.111   2.360   7.196 -1.0585 -0.5590  1.0580
   42MOL   H15411716   4.045   2.129   7.240 -0.5387  0.5997  0.2407
   42MOL   H15511717   3.864   1.996   7.150  1.0761  1.0754  0.4972
   42MOL   C15611718   4.245   2.484   7.320  0.0724  1.3870 -0.2718
   42MOL   C15711719   4.304   2.506   7.451 -0.3649  0.1896  0.3039
   42MOL   C15811720   4.423   2.579   7.466 -0.6931  0.2797  0.4101
   42MOL   C15911721   4.466   2.655   7.358 -0.1164  0.3073 -0.9741
   42MOL   C16011722   4.589   2.736   7.369 -0.9610  0.0342  0.7820
   42MOL   C16111723   4.675   2.773   7.273  0.0727  0.2242 -0.6051
   42MOL   C16211724   4.399   2.644   7.234  0.2243 -0.2498  0.2027
   42MOL   C16311725   4.291   2.554   7.210  0.9818 -0.2685 -0.2966
   42MOL   H16411726   4.268   2.444   7.532 -1.9764  0.3686 -0.2709
   42MOL   H16511727   4.482   2.581   7.556  0.7567  2.0767 -0.5433
   42MOL   H16611728   4.616   2.764   7.469  1.1615  1.9946 -0.2860
   42MOL   H16711729   4.657   2.738   7.173  0.6937 -1.0640 -0.2878
   42MOL   H16811730   4.445   2.693   7.149  0.6291  2.4274  1.9072
   42MOL   H16911731   4.246   2.554   7.112  1.9456  0.0707 -0.7467
   42MOL   C17011732   4.804   2.837   7.300 -0.0980  0.4645  0.1293
   42MOL   C17111733   4.858   2.847   7.427  0.3269 -0.1841  0.5223
   42MOL   C17211734   4.985   2.891   7.455 -0.1984  0.2261 -0.4866
   42MOL   C17311735   5.065   2.949   7.358 -0.1851 -0.3844 -0.3270
   42MOL   C17411736   5.196   3.009   7.398  0.5773  0.0095  0.3598
   42MOL   C17511737   5.234   3.037   7.520  0.2773  0.5207  0.1803
   42MOL   C17611738   5.008   2.948   7.229  0.0048 -0.3967  0.5811
   42MOL   C17711739   4.874   2.903   7.203  0.2135 -1.2917 -0.3829
   42MOL   H17811740   4.801   2.801   7.506 -1.0505  0.9829  0.2284
   42MOL   H17911741   5.022   2.883   7.557  1.9898  0.3656 -1.2336
   42MOL   H18011742   5.264   3.027   7.317  1.2483  1.3017  1.1989
   42MOL   H18111743   5.165   3.016   7.600  1.3361  0.1296  1.0115
   42MOL   H18211744   5.055   3.006   7.151  1.7704  0.9933  2.6240
   42MOL   H18311745   4.837   2.919   7.103 -0.4268 -2.2369 -0.3036
   42MOL   C18411746   5.359   3.089   7.574 -0.3352 -0.1965  0.3634
   42MOL   C18511747   5.474   3.119   7.498  0.0211  0.6773 -0.1426
   42MOL   C18611748   5.588   3.167   7.555 -0.4671  0.0884  0.3860
   42MOL   C18711749   5.598   3.180   7.698 -0.3935 -0.0733 -0.1482
   42MOL   C18811750   5.728   3.231   7.757 -0.5173 -0.0077 -0.2965
   42MOL   C18911751   5.780   3.206   7.881 -0.5691  0.1061  0.7285
   42MOL   C19011752   5.491   3.123   7.772  0.3666  0.0546 -0.3910
   42MOL   C19111753   5.366   3.094   7.712 -0.9892 -0.3244  0.2121
   42MOL   H19211754   5.478   3.096   7.392 -1.2368  1.3944 -0.3464
   42MOL   H19311755   5.669   3.191   7.488 -1.2938 -0.8810 -0.9753
   42MOL   H19411756   5.778   3.304   7.695  0.9299  0.7798  1.7193
   42MOL   H19511757   5.721   3.142   7.944  0.3712 -0.3688  1.1260
   42MOL   H19611758   5.493   3.125   7.880 -1.3930 -3.2215 -0.2232
   42MOL   H19711759   5.284   3.062   7.774  0.2056 -1.3917  1.2703
   42MOL   C19811760   5.904   3.268   7.927 -0.1554  0.2085  0.0840
   42MOL   C19911761   6.002   3.190   7.973 -0.4450 -0.0240  0.7616
   42MOL   C20011762   6.125   3.240   8.015  0.1399 -0.0882 -0.0862
   42MOL   C20111763   6.155   3.379   8.015 -0.0598  0.9740 -0.0688
   42MOL   C20211764   6.283   3.431   8.080 -0.4589 -0.2515  0.5817
   42MOL   C20311765   6.294   3.543   0.005  1.0172  0.3305  0.3508
   42MOL   C20411766   6.059   3.464   7.967  0.0252  0.3819 -0.4173
   42MOL   C20511767   5.928   3.407   7.924 -0.2513 -0.7070 -0.4153
   42MOL   H20611768   5.969   3.087   7.972 -1.5458  0.2927 -2.5775
   42MOL   H20711769   6.188   3.166   8.063 -0.2687  0.2322  0.9518
   42MOL   H20811770   6.367   3.367   8.057  0.2028  0.7199  0.2830
   42MOL   H20911771   6.199   3.593   0.014 -0.4620 -2.2397 -0.1908
   42MOL   H21011772   6.071   3.570   7.979 -1.9934  0.6947 -0.9882
   42MOL   H21111773   5.849   3.463   7.875 -0.6656 -2.3886 -1.7514
   42MOL   C21211774   6.410   3.599   0.082  0.0681 -0.4010  0.3690
   42MOL   C21311775   6.380   3.662   0.202 -0.7712 -0.0985  0.8652
   42MOL   C21411776   6.487   3.711   0.286  0.1754  0.3086 -0.4220
   42MOL   C21511777   6.621   3.685   0.256 -0.6637  0.3006 -0.0630
   42MOL   C21611778   6.737   3.734   0.340 -0.1916 -0.2399 -0.4336
   42MOL   C21711779   6.728   3.796   0.460 -0.5650 -0.2375  0.0551
   42MOL   C21811780   6.651   3.614   0.143  0.0469  0.8692  0.2732
   42MOL   C21911781   6.548   3.579   0.047  0.3097  0.1198  0.0107
   42MOL   H22011782   6.278   3.665   0.239 -1.1897 -0.8272 -0.1938
   42MOL   H22111783   6.458   3.753   0.381 -2.4860 -1.0606 -0.5957
   42MOL   H22211784   6.836   3.731   0.296 -0.6001  1.3304 -1.4995
   42MOL   H22311785   6.630   3.799   0.505 -0.9604  1.4696 -0.8942
   42MOL   H22411786   6.753   3.593   0.115  0.0845 -1.1071  1.7735
   42MOL   H22511787   6.573   3.533   8.097  1.4804 -0.8362  0.7686
   42MOL   C22611788   6.829   3.862   0.536  0.8011 -0.5197 -0.5299
   42MOL   C22711789   6.958   3.887   0.483  0.2791  0.2501  0.2794
   42MOL   C22811790   7.057   3.945   0.561 -0.2797 -0.5323  0.0176
   42MOL   C22911791   7.023   3.997   0.692 -0.2946  0.2573 -0.0543
   42MOL   C23011792   7.139   4.060   0.766 -0.0250  0.6037  0.2585
   42MOL   C23111793   7.132   4.132   0.879  0.1095  0.6596  0.1841
   42MOL   C23211794   6.893   3.978   0.744 -0.5684 -0.8845  0.5029
   42MOL   C23311795   6.794   3.919   0.662  0.3246 -0.1451  0.3362
   42MOL   H23411796   6.983   3.852   0.384  0.5780 -2.1656  1.1867
   42MOL   H23511797   7.154   3.956   0.514  0.0614 -0.1014  0.8182
   42MOL   H23611798   7.234   4.030   0.722 -0.7392 -0.3909 -0.6299
   42MOL   H23711799   7.031   4.140   0.917 -0.2280 -1.6029 -0.1259
   42MOL   H23811800   6.864   4.019   0.840 -2.5722 -2.5058  0.6262
   42MOL   H23911801   6.690   3.915   0.690  0.6023  0.5940  1.5272
   42MOL   C24011802   7.251   4.183   0.952  0.5237  0.3573  0.1793
   42MOL   C24111803   7.228   4.237   1.085  0.3106  0.0215 -0.7989
   42MOL   C24211804   7.343   4.281   1.154 -0.5252 -0.1484 -0.3093
   42MOL   C24311805   7.472   4.263   1.110 -0.4645  0.6923 -0.5429
   42MOL   C24411806   7.586   4.300   1.185  0.0402 -0.4404 -0.0629
   42MOL   C24511807   7.583   4.347   1.313  0.0187  0.3174 -0.9154
   42MOL   C24611808   7.498   4.224   0.977  1.0647  0.4449 -0.0812
   42MOL   C24711809   7.385   4.175   0.905 -0.2358  0.4394  0.2303
   42MOL   H24811810   7.129   4.248   1.126  1.0064 -0.2563  0.9804
   42MOL   H24911811   7.323   4.318   1.253 -3.3781  0.6325 -1.1204
   42MOL   H25011812   7.678   4.292   1.129 -0.2178 -0.4321 -0.4962
   42MOL   H25111813   7.490   4.360   1.366 -0.1591 -1.6613 -0.7221
   42MOL   H25211814   7.598   4.198   0.946  0.3627 -2.0995 -0.3097
   42MOL   H25311815   7.400   4.131   0.808 -1.4592  0.1493  0.1639
   42MOL   C25411816   7.704   4.389   1.390 -0.3337 -0.0829  0.1087
   42MOL   C25511817   7.833   4.385   1.330  0.2968  0.0695 -0.0366
   42MOL   C25611818   7.944   4.415   1.404 -0.3442  0.6979  0.4694
   42MOL   C25711819   7.936   4.446   1.541 -0.6073 -0.6775  0.0584
   42MOL   C25811820   8.067   4.475   1.617  0.1479 -0.6563  0.0529
   42MOL   C25911821   0.033   4.550   1.589 -0.2870  0.7004 -0.7909
   42MOL   C26011822   7.808   4.460   1.596 -0.4081 -0.3075 -0.1515
   42MOL   C26111823   7.691   4.428   1.525 -0.0365 -0.6605 -0.4495
   42MOL   H26211824   7.859   4.334   1.238  1.9631  2.1055 -0.7374
   42MOL   H26311825   8.043   4.407   1.362 -0.2522  1.4793  0.5328
   42MOL   H26411826   8.069   4.441   1.720  0.4708  3.3298  1.4563
   42MOL   H26511827   0.107   4.561   1.666  1.1083 -2.2321 -1.6463
   42MOL   H26611828   7.814   4.492   1.700 -0.3874  0.2960 -0.3363
   42MOL   H26711829   7.599   4.419   1.580  0.2806 -3.3412 -0.2844
   42MOL   C26811830   0.050   4.625   1.463  0.3767  0.9991  0.2023
   42MOL   C26911831   8.087   4.702   1.407  0.2666 -0.0868  0.4571
   42MOL   C27011832   8.100   4.763   1.279 -0.2020  0.4587  0.0152
   42MOL   C27111833   0.071   4.736   1.197  0.4333 -0.2213  0.2152
   42MOL   C27211834   0.080   4.780   1.053  0.4399  0.1848 -0.2122
   42MOL   C27311835   0.194   4.802   0.986  0.9188  0.0461  0.1140
   42MOL   C27411836   0.173   4.654   1.250 -0.2106  0.3687 -0.1120
   42MOL   C27511837   0.160   4.597   1.376  0.6887 -0.2417  0.0483
   42MOL   H27611838   7.994   4.719   1.459 -0.3210  0.2265 -0.6718
   42MOL   H27711839   8.008   4.802   1.239  0.0083  1.7077  0.6930
   42MOL   H27811840   8.136   4.789   0.991 -0.7472 -1.3400  1.2058
   42MOL   H27911841   0.291   4.796   1.033  0.6090 -0.1230  0.7394
   42MOL   H28011842   0.263   4.621   1.200 -0.5967  2.4115 -2.2700
   42MOL   H28111843   0.244   4.545   1.420  2.6242  2.6365 -0.1343
   42MOL   H28211844   0.191   4.828   0.881 -2.6065 -3.4020 -0.7628
   43MOL     C111845   1.193   4.070   0.374  0.2140 -0.5181  0.7647
   43MOL     C211846   1.162   4.010   0.492 -0.1820  1.0086 -0.6154
   43MOL     C311847   1.039   3.935   0.507  0.4269  0.0502  0.6757
   43MOL     C411848   0.949   3.929   0.397  0.2095  0.4789  0.0959
   43MOL     C511849   0.826   3.853   0.413 -0.7588  0.4478  0.3266
   43MOL     C611850   0.731   3.836   0.313 -0.3692  0.0891 -0.8233
   43MOL     C711851   0.982   4.005   0.281 -0.1109  0.5425  0.7822
   43MOL     C811852   1.106   4.064   0.268 -0.1210 -0.8372 -0.0715
   43MOL     H911853   1.231   4.006   0.575  2.2311  0.5122 -2.5658
   43MOL    H1011854   1.016   3.883   0.599 -0.3109  0.6741  0.8556
   43MOL    H1111855   0.806   3.810   0.510  0.2011  0.3279  0.4734
   43MOL    H1211856   0.749   3.876   0.214 -1.0910  1.3785 -0.4482
   43MOL    H1311857   0.916   4.002   0.196 -0.6654  0.4039  1.2207
   43MOL    H1411858   1.138   4.111   0.176 -0.8828 -1.2003 -0.5288
   43MOL    H1511859   1.292   4.109   0.353  0.3616 -1.1522  0.2485
   43MOL    C1611860   0.611   3.757   0.328 -0.4043  0.1930 -0.2024
   43MOL    C1711861   0.497   3.791   0.241 -0.6508  0.3601 -0.3940
   43MOL    C1811862   0.370   3.751   0.269 -0.0792  0.6649 -0.2167
   43MOL    C1911863   0.346   3.678   0.392  0.3207 -0.3476 -0.4649
   43MOL    C2011864   0.206   3.637   0.428 -0.2794 -0.6322 -0.5557
   43MOL    C2111865   0.085   3.663   0.375  0.7676  0.4113  0.1559
   43MOL    C2211866   0.453   3.648   0.475  0.4787  0.2840  0.0934
   43MOL    C2311867   0.587   3.685   0.448  0.9624  0.0484 -0.4823
   43MOL    H2411868   0.519   3.863   0.163  2.0027  0.0172 -0.0234
   43MOL    H2511869   0.284   3.776   0.208  0.1585  0.1883 -0.7568
   43MOL    H2611870   0.198   3.563   0.506 -0.5323  0.3576  0.3692
   43MOL    H2711871   0.081   3.731   0.291  2.1138 -0.5504 -0.6844
   43MOL    H2811872   0.440   3.575   0.554 -2.0058 -0.9748 -1.4001
   43MOL    H2911873   0.658   3.653   0.523  2.4705  0.9274 -1.5028
   43MOL    C3011874   8.103   3.609   0.428 -0.2415  0.1476 -0.4016
   43MOL    C3111875   8.097   3.504   0.521 -0.1316 -0.0210 -0.3611
   43MOL    C3211876   7.974   3.463   0.571  0.3915  0.2723 -0.3778
   43MOL    C3311877   7.859   3.534   0.532 -0.0720 -0.9562 -0.0095
   43MOL    C3411878   7.736   3.499   0.590 -0.1740 -0.1719 -0.1608
   43MOL    C3511879   7.697   3.393   0.665 -0.2910  0.0037  0.5822
   43MOL    C3611880   7.864   3.645   0.444 -0.1404 -0.1187  0.0050
   43MOL    C3711881   7.986   3.680   0.393  0.5487 -0.2441  0.1660
   43MOL    H3811882   0.033   3.453   0.572 -2.2012 -1.2274  1.7609
   43MOL    H3911883   7.983   3.382   0.643  1.9081 -0.3308 -1.2356
   43MOL    H4011884   7.652   3.566   0.572  0.2012  0.7909  1.4742
   43MOL    H4111885   7.769   3.314   0.681  0.7548  1.4551  3.3578
   43MOL    H4211886   7.781   3.706   0.412  0.6195 -0.0738 -1.9079
   43MOL    H4311887   7.993   3.775   0.343 -1.2048  0.0789  0.4802
   43MOL    C4411888   7.559   3.370   0.710  0.4035 -0.0268 -0.5286
   43MOL    C4511889   7.463   3.469   0.706 -0.1734  0.1285  0.2227
   43MOL    C4611890   7.329   3.445   0.748  0.3921 -0.0113 -0.9783
   43MOL    C4711891   7.294   3.312   0.799 -0.2239  0.2490  0.3837
   43MOL    C4811892   7.152   3.291   0.825 -0.1423  0.0028  0.1130
   43MOL    C4911893   7.091   3.175   0.846  0.2663 -0.2601 -0.2049
   43MOL    C5011894   7.394   3.214   0.797 -0.8014 -0.0869  0.1630
   43MOL    C5111895   7.523   3.245   0.758 -0.1314  0.3500 -0.4434
   43MOL    H5211896   7.484   3.567   0.663 -0.6538 -0.1936 -0.7597
   43MOL    H5311897   7.252   3.520   0.745  0.1843 -0.1803  0.0373
   43MOL    H5411898   7.096   3.383   0.815 -0.0433 -0.2515 -3.1745
   43MOL    H5511899   7.142   3.080   0.845  2.2286  0.7150  1.6220
   43MOL    H5611900   7.368   3.112   0.822  1.3893 -0.5757  0.6132
   43MOL    H5711901   7.583   3.156   0.754 -0.6779  0.0707 -3.8973
   43MOL    C5811902   6.948   3.158   0.868  0.4776  0.8044 -0.3779
   43MOL    C5911903   6.859   3.267   0.900 -0.0424 -0.6899  0.4135
   43MOL    C6011904   6.722   3.249   0.884 -0.4657  0.7403 -0.6349
   43MOL    C6111905   6.653   3.126   0.851 -0.3580  0.2997  0.6616
   43MOL    C6211906   6.508   3.109   0.834 -0.3945 -0.6749  0.4890
   43MOL    C6311907   6.417   3.211   0.852  0.5835  0.2536 -0.6574
   43MOL    C6411908   6.744   3.019   0.848 -0.0957 -0.3573  0.0973
   43MOL    C6511909   6.884   3.037   0.847  0.6399  0.1538 -0.0155
   43MOL    H6611910   6.899   3.361   0.934  0.6388  0.0468 -2.3442
   43MOL    H6711911   6.667   3.339   0.907  1.0846  1.4794  0.3120
   43MOL    H6811912   6.476   3.016   0.790  2.6222 -2.0786  1.0901
   43MOL    H6911913   6.459   3.302   0.891 -1.0863  1.2722 -1.1607
   43MOL    H7011914   6.699   2.922   0.832 -0.1117 -0.4076  0.4631
   43MOL    H7111915   6.942   2.947   0.831 -2.4719 -1.8916 -0.3524
   43MOL    C7211916   6.272   3.201   0.820  0.1847 -0.0384  0.2851
   43MOL    C7311917   6.228   3.117   0.712 -0.4328 -0.0199  0.4250
   43MOL    C7411918   6.095   3.080   0.684  0.3469  0.6524 -0.9322
   43MOL    C7511919   5.998   3.136   0.768 -0.1509  0.7181  0.6808
   43MOL    C7611920   5.861   3.114   0.730  0.2118 -0.4771 -0.2911
   43MOL    C7711921   5.755   3.131   0.810 -0.7685  0.0112  0.4241
   43MOL    C7811922   6.038   3.211   0.886  0.2962 -0.1538  0.0099
   43MOL    C7911923   6.172   3.252   0.908 -0.0014 -0.2284  0.3325
   43MOL    H8011924   6.305   3.078   0.648 -0.1067 -1.7228  1.8271
   43MOL    H8111925   6.071   3.018   0.600 -0.3283  0.3367 -0.5093
   43MOL    H8211926   5.853   3.083   0.627 -2.3277 -0.1868 -0.2151
   43MOL    H8311927   5.769   3.160   0.913 -1.0913 -2.2441  1.1328
   43MOL    H8411928   5.960   3.250   0.949  2.1224 -0.0800  2.2777
   43MOL    H8511929   6.189   3.305   1.001  2.0076  1.2627 -0.8497
   43MOL    C8611930   5.618   3.127   0.768  0.4571 -0.4350  0.2317
   43MOL    C8711931   5.522   3.081   0.866  0.3454  0.2044  0.0073
   43MOL    C8811932   5.377   3.076   0.827 -0.6059  0.2099 -0.0909
   43MOL    C8911933   5.341   3.113   0.695  0.0148  0.6345 -0.0579
   43MOL    C9011934   5.202   3.103   0.649  0.2676  0.0425  0.5637
   43MOL    C9111935   5.100   3.076   0.726 -0.3487 -0.7040 -0.9697
   43MOL    C9211936   5.442   3.145   0.605 -0.2277 -0.5870 -0.4551
   43MOL    C9311937   5.580   3.143   0.639  0.7755  0.7384  0.7130
   43MOL    H9411938   5.549   3.053   0.967 -2.5993  0.3506  0.8776
   43MOL    H9511939   5.301   3.036   0.892 -2.3026  1.0687 -1.4581
   43MOL    H9611940   5.184   3.112   0.543 -1.3131  1.0905  0.9093
   43MOL    H9711941   5.114   3.069   0.832 -0.4641 -0.7692 -0.9580
   43MOL    H9811942   5.408   3.145   0.502 -1.2491 -1.4363 -0.1267
   43MOL    H9911943   5.648   3.168   0.560 -1.1077 -0.2054 -1.2564
   43MOL   C10011944   4.960   3.067   0.685  0.5188  0.1929  0.3041
   43MOL   C10111945   4.920   3.075   0.548  0.3593  0.1330 -0.2473
   43MOL   C10211946   4.784   3.078   0.512  0.1554  0.1460 -0.5783
   43MOL   C10311947   4.682   3.084   0.607  0.1485  0.6242 -0.7481
   43MOL   C10411948   4.541   3.096   0.574 -0.4415  0.6454  0.2263
   43MOL   C10511949   4.486   3.119   0.458 -0.1344 -0.1858 -0.0942
   43MOL   C10611950   4.718   3.083   0.742 -0.4596 -0.3465 -0.6358
   43MOL   C10711951   4.855   3.072   0.780 -0.5019  0.4351  0.1677
   43MOL   H10811952   4.995   3.087   0.472  0.7034  2.2058  0.4076
   43MOL   H10911953   4.767   3.078   0.405  1.1822 -0.1775 -0.7538
   43MOL   H11011954   4.479   3.084   0.663 -1.8632 -0.5354 -0.8828
   43MOL   H11111955   4.554   3.132   0.376 -2.0577 -2.5386 -2.1189
   43MOL   H11211956   4.644   3.091   0.820 -0.3002 -0.4061 -0.4783
   43MOL   H11311957   4.886   3.080   0.884  2.1228 -1.4138 -0.4099
   43MOL   C11411958   4.344   3.130   0.429 -0.5467  0.5548  0.2483
   43MOL   C11511959   4.239   3.134   0.523 -0.7643  0.3055 -0.6303
   43MOL   C11611960   4.104   3.133   0.480  0.1958 -0.6906  0.6635
   43MOL   C11711961   4.077   3.136   0.341  0.4137 -0.3506 -0.0190
   43MOL   C11811962   3.946   3.166   0.283  0.6647 -0.0506 -0.2448
   43MOL   C11911963   3.853   3.222   0.362  0.7422 -0.3763  0.0313
   43MOL   C12011964   4.182   3.125   0.253  0.6608 -0.9380  0.2191
   43MOL   C12111965   4.316   3.126   0.290 -0.0946 -0.2235  0.2360
   43MOL   H12211966   4.263   3.140   0.628  2.4601 -3.0528 -1.0824
   43MOL   H12311967   4.025   3.139   0.553 -0.0661 -1.3931  0.4419
   43MOL   H12411968   3.922   3.142   0.181 -1.5181 -2.0958  0.6975
   43MOL   H12511969   3.876   3.260   0.460 -0.4281 -1.4511  0.7403
   43MOL   H12611970   4.151   3.139   0.150 -0.7456 -0.1793  0.7254
   43MOL   H12711971   4.395   3.137   0.217 -0.1535  1.3737  0.3796
   43MOL   C12811972   3.708   3.237   0.321 -0.3211  0.3897 -0.6390
   43MOL   C12911973   3.675   3.241   0.183  0.1693  0.0845  0.4443
   43MOL   C13011974   3.536   3.262   0.146 -0.0965 -0.6715  0.3769
   43MOL   C13111975   3.432   3.290   0.240 -0.1891 -0.3707  0.6209
   43MOL   C13211976   3.298   3.336   0.202 -0.3410 -0.1819 -0.2334
   43MOL   C13311977   3.232   3.428   0.282 -0.6562  0.5031  0.5337
   43MOL   C13411978   3.473   3.290   0.374 -0.2947 -0.2748  0.1261
   43MOL   C13511979   3.606   3.259   0.414  1.2485  0.1889 -0.5368
   43MOL   H13611980   3.742   3.218   0.102  0.2217 -0.7595  0.7187
   43MOL   H13711981   3.502   3.273   0.045  0.3276  0.8573  0.3852
   43MOL   H13811982   3.251   3.304   0.110 -0.2986 -0.2133 -0.2440
   43MOL   H13911983   3.282   3.454   0.375  0.4361  0.4510 -0.0326
   43MOL   H14011984   3.409   3.301   0.460 -0.1039 -1.8783  0.4861
   43MOL   H14111985   3.619   3.272   0.520 -2.0160  1.1443 -0.2133
   43MOL   C14211986   3.100   3.486   0.259  0.0065  0.1433 -0.0461
   43MOL   C14311987   3.009   3.447   0.154 -0.0469  0.1923  0.2263
   43MOL   C14411988   2.883   3.516   0.142 -0.1147  1.0020  0.0294
   43MOL   C14511989   2.852   3.618   0.228 -0.0240 -0.9958 -0.4233
   43MOL   C14611990   2.727   3.691   0.198 -0.7506 -0.7387  0.4328
   43MOL   C14711991   2.687   3.793   0.267 -0.2793 -0.7082  0.1582
   43MOL   C14811992   2.943   3.655   0.331  0.1461  0.1408 -0.4883
   43MOL   C14911993   3.064   3.590   0.344 -0.3317  0.5185  0.0551
   43MOL   H15011994   3.042   3.374   0.082 -0.3129  1.3419 -1.0836
   43MOL   H15111995   2.819   3.507   0.056 -0.1019  2.7237 -0.1682
   43MOL   H15211996   2.672   3.667   0.109 -2.5749  1.3910  0.9278
   43MOL   H15311997   2.745   3.811   0.356  0.4798 -0.1678 -0.4490
   43MOL   H15411998   2.924   3.725   0.410  1.9148  0.7279 -0.5595
   43MOL   H15511999   3.134   3.613   0.423 -0.4394 -1.3088  0.7010
   43MOL   C15612000   2.569   3.872   0.235 -0.5166 -0.4894 -0.3847
   43MOL   C15712001   2.485   3.855   0.116 -0.5163  0.7951 -0.1684
   43MOL   C15812002   2.375   3.947   0.092 -0.8257  0.4743  0.0221
   43MOL   C15912003   2.348   4.054   0.178 -0.1653 -0.7456 -0.2033
   43MOL   C16012004   2.266   4.167   0.138 -0.0833  0.0984 -0.4627
   43MOL   C16112005   2.258   4.207   0.011 -0.0035 -0.9342  0.3814
   43MOL   C16212006   2.427   4.058   0.293  0.2369 -0.4788 -0.4596
   43MOL   C16312007   2.531   3.969   0.328 -0.3932  0.5702 -0.0643
   43MOL   H16412008   2.511   3.781   0.042 -1.4914  0.8562 -0.5826
   43MOL   H16512009   2.310   3.938   0.007 -1.0957 -0.0883  0.2888
   43MOL   H16612010   2.214   4.219   0.218  1.2798  0.8990 -0.0905
   43MOL   H16712011   2.317   4.149   8.086  1.2523  0.7927 -0.0310
   43MOL   H16812012   2.416   4.144   0.358  1.1919  0.6668 -1.7861
   43MOL   H16912013   2.583   3.979   0.423  1.5373 -0.4293 -0.9891
   43MOL   C17012014   2.179   4.312   8.095  0.1383  0.1061 -0.6978
   43MOL   C17112015   2.097   4.396   0.032  0.2687 -0.4497  0.0205
   43MOL   C17212016   2.030   4.509   8.117  0.1043 -0.2833  1.1026
   43MOL   C17312017   2.054   4.538   7.984 -0.5496  0.2401 -0.1172
   43MOL   C17412018   1.984   4.645   7.900 -0.4110 -0.2889 -0.0883
   43MOL   C17512019   1.903   4.747   7.939 -0.3512 -0.4349  0.1770
   43MOL   C17612020   2.136   4.461   7.908  0.5943 -0.2334 -0.2894
   43MOL   C17712021   2.203   4.348   7.959  0.9118 -0.3391  0.1660
   43MOL   H17812022   2.092   4.381   0.139 -0.7759  2.1971  0.3724
   43MOL   H17912023   1.972   4.579   0.032  0.3747  0.9489 -0.0630
   43MOL   H18012024   2.015   4.636   7.797 -0.5955 -0.4328 -0.1321
   43MOL   H18112025   1.880   4.743   8.044 -0.7922 -0.1526  0.0957
   43MOL   H18212026   2.140   4.480   7.802 -1.9334 -0.4458 -0.4410
   43MOL   H18312027   2.275   4.298   7.896  0.3520  0.7255 -1.3647
   43MOL   C18412028   1.833   4.846   7.853  0.4129  0.2403 -0.6638
   43MOL   C18512029   1.771   4.958   7.906  0.4796 -0.3018 -0.1115
   43MOL   C18612030   1.714   5.058   7.829  0.5036  0.6865 -0.3078
   43MOL   C18712031   1.740   5.055   7.690  0.4135  0.2072 -0.5054
   43MOL   C18812032   1.697   5.170   7.615  0.2830  0.4993  0.6838
   43MOL   C18912033   1.597   5.252   7.648  0.2978 -0.3177 -0.5607
   43MOL   C19012034   1.800   4.942   7.629 -0.3013 -0.0792  0.0313
   43MOL   C19112035   1.850   4.838   7.709  0.3872 -0.5063 -0.0311
   43MOL   H19212036   1.768   4.976   8.013  1.7095  1.8899 -0.4204
   43MOL   H19312037   1.677   5.148   7.877  2.1438  0.7308  0.9611
   43MOL   H19412038   1.759   5.182   7.528  1.2618 -0.5345  1.2237
   43MOL   H19512039   1.541   5.226   7.737 -1.3011  0.7835 -1.2175
   43MOL   H19612040   1.800   4.946   7.521  0.5239  0.7845  0.0606
   43MOL   H19712041   1.891   4.751   7.660  0.5129  0.1366 -1.1124
   43MOL   C19812042   1.571   5.383   7.587 -0.0517 -0.4731  1.1300
   43MOL   C19912043   1.471   5.469   7.649  0.1455  0.1617 -0.0602
   43MOL   C20012044   1.449   5.593   7.590  0.2303  0.0911 -0.0517
   43MOL   C20112045   1.513   5.641   7.475 -0.0314 -0.9492 -0.2369
   43MOL   C20212046   1.480   5.775   7.407  0.6072 -0.8707  0.4482
   43MOL   C20312047   1.360   5.838   7.424 -0.3392  0.1324 -0.3396
   43MOL   C20412048   1.607   5.562   7.416  0.1908  0.8027 -0.3931
   43MOL   C20512049   1.642   5.431   7.467  0.3752 -0.6185  0.0971
   43MOL   H20612050   1.442   5.432   7.746 -1.0095 -0.6929 -0.7371
   43MOL   H20712051   1.384   5.651   7.653  1.2687  2.6457 -1.2762
   43MOL   H20812052   1.555   5.806   7.336  0.0206 -1.7596 -0.5727
   43MOL   H20912053   1.293   5.798   7.499  2.9789  0.3142  2.8616
   43MOL   H21012054   1.656   5.590   7.324  0.2767  0.4743 -0.4481
   43MOL   H21112055   1.716   5.373   7.414  0.3470  0.0749 -0.7131
   43MOL   C21212056   1.307   5.954   7.359  0.1099 -0.4870 -0.1962
   43MOL   C21312057   1.384   6.021   7.259 -0.0837 -0.4764  0.5098
   43MOL   C21412058   1.330   6.141   7.207 -0.2033 -0.2225 -0.6076
   43MOL   C21512059   1.203   6.187   7.243  0.5034  0.5108 -0.1310
   43MOL   C21612060   1.157   6.311   7.194 -0.4671 -0.2954  0.5520
   43MOL   C21712061   1.030   6.362   7.189  0.6190  0.5511  0.9957
   43MOL   C21812062   1.125   6.118   7.338 -1.4049 -0.5599  0.2608
   43MOL   C21912063   1.179   6.004   7.399 -0.4080 -0.5764 -0.1406
   43MOL   H22012064   1.482   5.982   7.238 -0.5939 -1.5835  0.1399
   43MOL   H22112065   1.381   6.196   7.130  1.0193  0.0110  0.3482
   43MOL   H22212066   1.237   6.368   7.148 -2.0417 -0.4667 -2.5749
   43MOL   H22312067   0.953   6.305   7.240 -0.4345  1.3178  0.3007
   43MOL   H22412068   1.026   6.143   7.373 -0.2383  2.2199  1.7234
   43MOL   H22512069   1.129   5.950   7.478 -0.2255 -0.3493  0.1301
   43MOL   C22612070   0.976   6.493   7.129  0.3518  0.5091 -0.1799
   43MOL   C22712071   1.045   6.563   7.024 -0.6172  0.2624  0.2165
   43MOL   C22812072   0.993   6.681   6.977  0.0813 -0.0585  0.5916
   43MOL   C22912073   0.878   6.739   7.027  0.2233  0.8253 -0.4719
   43MOL   C23012074   0.821   6.860   6.976 -0.1969  0.4537 -0.7838
   43MOL   C23112075   0.704   6.909   7.008  0.4364  0.4909  0.3557
   43MOL   C23212076   0.808   6.664   7.130 -0.2388 -0.0754  0.3992
   43MOL   C23312077   0.858   6.543   7.183 -1.0074 -0.5089 -0.2036
   43MOL   H23412078   1.128   6.516   6.973  0.3646  1.4947  0.6589
   43MOL   H23512079   1.050   6.727   6.898 -1.4302  1.9596  0.6563
   43MOL   H23612080   0.889   6.918   6.915  2.9786  0.0630  2.1614
   43MOL   H23712081   0.628   6.849   7.056  0.1492  1.2355  0.8394
   43MOL   H23812082   0.717   6.700   7.175 -0.0412 -0.8335  1.4132
   43MOL   H23912083   0.799   6.490   7.256 -0.2151 -1.2690 -0.1130
   43MOL   C24012084   0.654   7.046   6.968 -0.4804  0.1925 -0.6248
   43MOL   C24112085   0.526   7.092   7.013 -0.5004  0.3676  0.1474
   43MOL   C24212086   0.473   7.226   6.989  0.2209 -0.0031 -0.6168
   43MOL   C24312087   0.548   7.316   6.910  0.0300 -0.1813  0.6559
   43MOL   C24412088   0.490   7.449   6.896 -0.4519  0.5763  0.8571
   43MOL   C24512089   0.557   7.557   6.935 -0.2257 -0.0112  0.3302
   43MOL   C24612090   0.683   7.280   6.879  0.3433  0.7171  0.2851
   43MOL   C24712091   0.729   7.146   6.909 -0.0818  0.3629  0.5208
   43MOL   H24812092   0.466   7.022   7.069  1.2463 -2.1557 -1.0393
   43MOL   H24912093   0.373   7.255   7.019  0.2526  0.2619 -0.7673
   43MOL   H25012094   0.395   7.455   6.845  0.8484  1.0892 -1.5912
   43MOL   H25112095   0.659   7.543   6.967 -0.3536  0.7153  1.0725
   43MOL   H25212096   0.746   7.344   6.820 -1.2013  1.3377 -0.7206
   43MOL   H25312097   0.830   7.118   6.882 -0.2415  0.6506 -0.4088
   43MOL   C25412098   0.515   7.700   6.938  1.1216 -0.5613  0.2175
   43MOL   C25512099   0.602   7.788   6.995 -0.1053 -0.1139  0.3271
   43MOL   C25612100   0.576   7.926   6.990 -0.4509  0.2953  0.4171
   43MOL   C25712101   0.455   7.975   6.924 -0.0491 -0.5040 -0.4246
   43MOL   C25812102   0.441   8.120   6.894  0.3173  0.4649 -0.3766
   43MOL   C25912103   0.532   0.063   6.844  0.4438  0.7071 -0.4878
   43MOL   C26012104   0.364   7.884   6.870 -0.3864  0.4748 -0.1293
   43MOL   C26112105   0.399   7.748   6.873  0.3882 -0.3479  0.3219
   43MOL   H26212106   0.693   7.758   7.046 -0.1298 -1.2319 -0.2708
   43MOL   H26312107   0.651   7.995   7.027 -1.5140  1.1097  1.0855
   43MOL   H26412108   0.344   0.011   6.925  0.3495  0.4912 -0.3064
   43MOL   H26512109   0.512   0.169   6.848  0.9983  0.7475  1.3995
   43MOL   H26612110   0.278   7.932   6.825 -0.0500  1.5562  0.3475
   43MOL   H26712111   0.333   7.679   6.823  0.9790  0.5645 -1.7758
   43MOL   C26812112   0.664   0.033   6.784  0.3639  1.1616  0.4681
   43MOL   C26912113   0.703   8.053   6.733 -0.2208  0.2068  0.1052
   43MOL   C27012114   0.837   8.032   6.699  0.1409  0.0125 -0.7149
   43MOL   C27112115   0.929   8.139   6.692 -0.0631 -0.4389  0.0801
   43MOL   C27212116   1.068   8.121   6.646 -0.2277 -0.1723  0.1933
   43MOL   C27312117   1.119   7.998   6.614 -0.0593  1.0740 -0.5606
   43MOL   C27412118   0.887   0.129   6.721 -0.2026 -0.7648  0.0592
   43MOL   C27512119   0.753   0.143   6.769 -0.0764 -0.5176  0.4904
   43MOL   H27612120   0.635   7.969   6.742 -0.9232  0.4249 -2.7362
   43MOL   H27712121   0.871   7.934   6.668  1.6695  0.7202 -1.3230
   43MOL   H27812122   1.127   0.064   6.624  0.7336 -1.1828 -1.3214
   43MOL   H27912123   1.057   7.911   6.630 -0.5600  1.3411 -1.0560
   43MOL   H28012124   0.953   0.214   6.724 -1.6786  0.4357 -0.6980
   43MOL   H28112125   0.708   0.237   6.799  1.7357  0.5734 -0.1036
   43MOL   H28212126   1.217   7.984   6.569  0.2821  1.3205  0.1052
   44MOL     C112127   5.123   2.958   5.572 -0.4611 -0.0608 -0.4522
   44MOL     C212128   5.081   2.871   5.470  1.0925 -0.7198  0.0753
   44MOL     C312129   4.941   2.844   5.455  0.3140 -0.2634  0.0865
   44MOL     C412130   4.844   2.910   5.535 -0.0526 -0.0814  0.0503
   44MOL     C512131   4.701   2.874   5.509 -0.0231  0.6240 -0.6685
   44MOL     C612132   4.659   2.762   5.442 -0.0473 -0.3703 -0.1402
   44MOL     C712133   4.883   3.006   5.630 -0.4849 -0.3193 -0.9125
   44MOL     C812134   5.025   3.032   5.645  0.0852 -0.5777  0.6382
   44MOL     H912135   5.154   2.817   5.413  0.8875  0.9197 -1.7871
   44MOL    H1012136   4.910   2.777   5.376  0.8141 -0.0855 -0.2633
   44MOL    H1112137   4.624   2.938   5.550  0.5244 -0.2623  1.7928
   44MOL    H1212138   4.734   2.692   5.411  0.1039 -0.9726  1.4991
   44MOL    H1312139   4.812   3.061   5.690 -0.3601 -2.9168  1.7284
   44MOL    H1412140   5.050   3.114   5.710 -1.2951  0.4758 -0.1145
   44MOL    H1512141   5.230   2.966   5.577 -0.4869  0.7888 -1.0857
   44MOL    C1612142   4.522   2.720   5.407 -0.9010 -0.2933 -0.5041
   44MOL    C1712143   4.407   2.780   5.458  0.9414 -0.4681 -0.0806
   44MOL    C1812144   4.284   2.734   5.424  0.2023  0.0814  0.4436
   44MOL    C1912145   4.263   2.633   5.324 -0.0816 -0.9928  0.0449
   44MOL    C2012146   4.128   2.601   5.279  0.4309  0.2114 -0.0506
   44MOL    C2112147   4.011   2.598   5.350  0.0656 -0.3444  0.2530
   44MOL    C2212148   4.376   2.568   5.273  0.5488  0.8051 -0.0130
   44MOL    C2312149   4.503   2.614   5.312  0.1866 -0.1992 -0.4473
   44MOL    H2412150   4.409   2.867   5.522  1.3973  0.0596 -0.8003
   44MOL    H2512151   4.198   2.788   5.462 -1.3350 -1.0773 -1.3323
   44MOL    H2612152   4.131   2.581   5.173  0.3480 -2.4193  0.4121
   44MOL    H2712153   4.015   2.626   5.454  2.9780 -0.5576  0.2301
   44MOL    H2812154   4.372   2.485   5.204  1.7027  0.4973  0.2871
   44MOL    H2912155   4.593   2.568   5.275 -1.6783 -2.0734 -2.8676
   44MOL    C3012156   3.891   2.551   5.292  0.9680  0.8452 -0.5274
   44MOL    C3112157   3.761   2.607   5.328  0.1895  0.0093  0.0764
   44MOL    C3212158   3.647   2.546   5.280 -0.1832 -0.3157 -0.3628
   44MOL    C3312159   3.647   2.441   5.193  0.2440  0.0932 -0.2353
   44MOL    C3412160   3.532   2.369   5.148  0.1789 -0.2220 -0.6005
   44MOL    C3512161   3.405   2.411   5.169 -0.2704  0.0713 -0.5780
   44MOL    C3612162   3.780   2.399   5.150  0.4346 -0.3930  0.6679
   44MOL    C3712163   3.900   2.459   5.185 -0.2969  0.0077  0.8488
   44MOL    H3812164   3.751   2.685   5.403 -0.0115 -1.1783  1.2911
   44MOL    H3912165   3.545   2.568   5.308 -0.6496  0.0465 -2.2763
   44MOL    H4012166   3.558   2.278   5.097  0.7961 -0.5817  0.3456
   44MOL    H4112167   3.376   2.506   5.213 -0.1869  0.2104 -0.8205
   44MOL    H4212168   3.795   2.309   5.092 -1.4332  0.3922 -1.1067
   44MOL    H4312169   3.987   2.407   5.147 -1.4569 -0.8833 -0.6875
   44MOL    C4412170   3.288   2.335   5.118 -0.6922 -0.4037 -0.4614
   44MOL    C4512171   3.168   2.362   5.179 -0.3347  0.6398 -0.1842
   44MOL    C4612172   3.051   2.278   5.151 -0.4310 -0.9207  0.3445
   44MOL    C4712173   3.049   2.182   5.042  0.5113  0.1786 -0.3720
   44MOL    C4812174   2.928   2.117   4.983  0.7301 -0.6280  0.2387
   44MOL    C4912175   2.807   2.120   5.037  0.2499 -0.2785  0.5500
   44MOL    C5012176   3.177   2.152   4.990  0.1081 -0.4651  0.7797
   44MOL    C5112177   3.293   2.223   5.028 -0.0375  0.5834 -0.2144
   44MOL    H5212178   3.163   2.435   5.258 -0.5470  1.9450 -1.3883
   44MOL    H5312179   2.958   2.305   5.200  0.0897 -0.3610  1.0242
   44MOL    H5412180   2.949   2.067   4.890  1.0855  0.3088 -0.1975
   44MOL    H5512181   2.792   2.184   5.123  1.5092  3.0292 -1.5681
   44MOL    H5612182   3.195   2.085   4.907  0.9202  0.7278 -0.0286
   44MOL    H5712183   3.388   2.200   4.983 -0.6199  0.6068 -1.5055
   44MOL    C5812184   2.680   2.056   4.980  0.1954 -1.0342  0.2200
   44MOL    C5912185   2.670   1.999   4.854  0.2377 -0.2841 -0.5419
   44MOL    C6012186   2.549   1.943   4.805 -0.1355  0.5697  0.0560
   44MOL    C6112187   2.432   1.947   4.873 -0.2542 -0.9911  0.1661
   44MOL    C6212188   2.310   1.889   4.822  0.5168 -0.1387 -0.3690
   44MOL    C6312189   2.198   1.881   4.888 -0.1531  0.0678 -0.2194
   44MOL    C6412190   2.437   2.007   5.004 -0.6661  0.3112 -0.5833
   44MOL    C6512191   2.560   2.055   5.057 -0.1244 -0.6808 -0.5913
   44MOL    H6612192   2.756   1.983   4.790 -0.0655  1.4048 -1.4115
   44MOL    H6712193   2.555   1.882   4.716  0.1083  1.0723 -0.2757
   44MOL    H6812194   2.319   1.839   4.726 -0.3150 -0.6463 -0.1845
   44MOL    H6912195   2.191   1.925   4.987  0.0494  0.8659 -0.5534
   44MOL    H7012196   2.347   2.027   5.060 -0.1205 -0.4393  0.5644
   44MOL    H7112197   2.555   2.100   5.154 -3.2821  0.3304 -1.1745
   44MOL    C7212198   2.072   1.824   4.835  0.2543 -0.0665 -0.1339
   44MOL    C7312199   2.068   1.731   4.725  0.0467 -0.1721 -0.2391
   44MOL    C7412200   1.946   1.675   4.678 -0.1217 -0.2260 -0.1184
   44MOL    C7512201   1.827   1.715   4.743  0.0848  0.4950  0.7305
   44MOL    C7612202   1.699   1.647   4.711  0.7120 -0.3876  0.3664
   44MOL    C7712203   1.680   1.556   4.613  0.0743 -0.3266 -0.0227
   44MOL    C7812204   1.829   1.821   4.834 -0.0497 -0.4040  0.4329
   44MOL    C7912205   1.948   1.867   4.887  0.6234  0.5352 -0.3225
   44MOL    H8012206   2.161   1.705   4.675 -1.5703 -1.6006 -2.5982
   44MOL    H8112207   1.946   1.593   4.607  2.6480 -1.4304  1.1633
   44MOL    H8212208   1.615   1.688   4.766  2.7330  0.3491  3.0400
   44MOL    H8312209   1.760   1.527   4.547 -0.8919  1.2383 -1.9452
   44MOL    H8412210   1.736   1.853   4.878  0.7762  1.6068  0.7711
   44MOL    H8512211   1.931   1.935   4.969  1.2102 -1.6698  1.6965
   44MOL    C8612212   1.544   1.507   4.577 -0.0003 -0.6032 -0.3615
   44MOL    C8712213   1.425   1.580   4.587  0.1181 -0.8843  0.4675
   44MOL    C8812214   1.305   1.514   4.578  0.3534  0.1656  0.2455
   44MOL    C8912215   1.293   1.376   4.552  0.2803 -0.2609  0.1419
   44MOL    C9012216   1.161   1.314   4.555 -0.1237 -0.4259  0.8675
   44MOL    C9112217   1.151   1.198   4.616  0.0814  0.3520  0.5039
   44MOL    C9212218   1.412   1.307   4.530 -0.5674 -0.2694 -0.1129
   44MOL    C9312219   1.535   1.375   4.545 -0.1914  0.4351 -0.0189
   44MOL    H9412220   1.412   1.682   4.618  1.6927 -0.1955 -1.0726
   44MOL    H9512221   1.225   1.585   4.593 -0.4265 -1.2233  3.0819
   44MOL    H9612222   1.078   1.365   4.507  1.4880 -0.6126 -2.2823
   44MOL    H9712223   1.237   1.145   4.654  1.5107  0.2566 -2.6489
   44MOL    H9812224   1.404   1.200   4.518  1.2529 -0.2448 -1.7382
   44MOL    H9912225   1.627   1.318   4.541  0.2117  1.0715  0.2375
   44MOL   C10012226   1.027   1.130   4.650 -0.3843  0.2273 -0.5579
   44MOL   C10112227   1.014   1.063   4.771  0.3013 -0.2023  0.0054
   44MOL   C10212228   0.888   1.020   4.815  0.2432 -0.1241  0.1683
   44MOL   C10312229   0.773   1.045   4.739  0.0730 -1.6475 -0.4298
   44MOL   C10412230   0.644   0.990   4.783  0.5250  0.5319 -1.0642
   44MOL   C10512231   0.634   0.890   4.873 -0.2033 -0.4537  0.7749
   44MOL   C10612232   0.794   1.103   4.610 -0.4330  0.7489 -0.3978
   44MOL   C10712233   0.917   1.150   4.569  0.5544  0.9083  0.1880
   44MOL   H10812234   1.095   1.047   4.840  1.4720  0.4884 -1.1827
   44MOL   H10912235   0.882   0.965   4.908  0.1054  0.0929  0.2894
   44MOL   H11012236   0.551   1.029   4.745 -0.6883  0.6694  1.8650
   44MOL   H11112237   0.721   0.844   4.919  1.5914  1.5753 -0.4727
   44MOL   H11212238   0.706   1.128   4.554 -0.6740 -0.1293 -0.4128
   44MOL   H11312239   0.917   1.208   4.478  0.7879  0.7882  0.1094
   44MOL   C11412240   0.513   0.827   4.924  0.1916 -0.6536 -0.0160
   44MOL   C11512241   0.518   0.707   5.000 -0.0755  0.3150 -0.1082
   44MOL   C11612242   0.407   0.650   5.048  0.2128  0.2148  0.3739
   44MOL   C11712243   0.278   0.701   5.025 -0.3016 -0.3089  0.1528
   44MOL   C11812244   0.161   0.643   5.091  0.3193 -0.7028  0.0366
   44MOL   C11912245   0.036   0.697   5.083  0.6198 -0.0173 -0.1144
   44MOL   C12012246   0.263   0.817   4.944  0.2958  0.1415 -0.8831
   44MOL   C12112247   0.382   0.885   4.904  0.3976  0.6324  0.1602
   44MOL   H12212248   0.613   0.658   5.014  0.0839  0.8298  0.6316
   44MOL   H12312249   0.422   0.558   5.104 -0.1563  0.8051  1.4686
   44MOL   H12412250   0.175   0.555   5.152  1.8187 -0.1306  0.5379
   44MOL   H12512251   0.006   0.788   5.032 -1.4206  0.1237  1.2887
   44MOL   H12612252   0.167   0.861   4.922  0.3795 -0.6907 -3.0589
   44MOL   H12712253   0.375   0.977   4.847  3.0903  0.2230 -0.9086
   44MOL   C12812254   8.070   0.630   5.157  0.2706  0.6785 -0.4843
   44MOL   C12912255   7.949   0.598   5.099  0.0255 -0.1858  0.2666
   44MOL   C13012256   7.850   0.521   5.163  0.4368 -0.3444 -0.1827
   44MOL   C13112257   7.879   0.483   5.299 -0.9322  0.3347  0.1028
   44MOL   C13212258   7.779   0.403   5.372  0.0225 -0.5246 -0.1326
   44MOL   C13312259   7.788   0.350   5.496  0.0726  0.0636 -0.1128
   44MOL   C13412260   8.007   0.514   5.358 -0.2501  0.1491  0.5913
   44MOL   C13512261   8.099   0.586   5.283 -0.1275 -0.1825  0.1648
   44MOL   H13612262   7.946   0.618   4.993 -0.1674 -0.3305  0.2432
   44MOL   H13712263   7.756   0.498   5.115  0.4278 -1.5599  0.4106
   44MOL   H13812264   7.684   0.386   5.322 -1.4064  2.0006  1.5773
   44MOL   H13912265   7.876   0.367   5.557 -0.8161 -0.7838  1.4305
   44MOL   H14012266   8.032   0.493   5.461  0.9085  0.9771  0.4757
   44MOL   H14112267   0.052   0.605   5.326  0.2403  0.7123 -1.0677
   44MOL   C14212268   7.695   0.278   5.581 -0.5092 -0.3642  0.9472
   44MOL   C14312269   7.582   0.213   5.521  0.5026  0.1652  0.1864
   44MOL   C14412270   7.491   0.138   5.596  0.1257  0.0467  0.0225
   44MOL   C14512271   7.513   0.135   5.741 -0.0847 -0.5417  0.2569
   44MOL   C14612272   7.422   0.050   5.828  1.2283  0.1563 -0.2048
   44MOL   C14712273   7.437   0.024   5.955 -0.1287  0.9105  0.2995
   44MOL   C14812274   7.616   0.207   5.794  0.5033 -0.2900 -0.7370
   44MOL   C14912275   7.706   0.276   5.723 -1.1411  0.3857  1.2126
   44MOL   H15012276   7.566   0.222   5.415 -0.3697 -1.4061  0.1683
   44MOL   H15112277   7.404   0.093   5.551  0.0751  0.5596 -0.4075
   44MOL   H15212278   7.335   0.013   5.777 -0.1199  1.3339  1.1717
   44MOL   H15312279   7.519   0.059   6.016  0.6014  0.8857 -0.6569
   44MOL   H15412280   7.635   0.195   5.899  0.5104 -1.9159 -0.9022
   44MOL   H15512281   7.792   0.317   5.775 -0.0181 -2.0451  1.3287
   44MOL   C15612282   7.352   8.082   6.035 -0.1476  0.1915 -0.2032
   44MOL   C15712283   7.321   7.951   6.000 -0.4071  0.1792  0.5456
   44MOL   C15812284   7.248   7.865   6.085  0.8532 -0.2947  0.2358
   44MOL   C15912285   7.202   7.905   6.206  0.2761  0.0417  0.5252
   44MOL   C16012286   7.140   7.816   6.302 -0.3202  0.7838  0.2457
   44MOL   C16112287   7.048   7.725   6.258 -0.5700  0.1116 -0.1947
   44MOL   C16212288   7.225   8.038   6.243 -0.3674  0.1114 -0.5867
   44MOL   C16312289   7.301   8.122   6.164  0.2446  0.2599 -0.3340
   44MOL   H16412290   7.362   7.915   5.907 -0.6658 -0.9140  0.8408
   44MOL   H16512291   7.231   7.764   6.050 -0.9935 -0.0951  0.4805
   44MOL   H16612292   7.173   7.827   6.404  0.4028 -0.7765  0.1966
   44MOL   H16712293   7.011   7.728   6.157 -0.5963 -2.9113 -0.3227
   44MOL   H16812294   7.185   8.063   6.341  0.1829 -1.7437  0.1364
   44MOL   H16912295   7.306   0.082   6.193 -0.8351 -0.2641  1.8628
   44MOL   C17012296   6.980   7.630   6.350  0.5343 -0.9604  0.1894
   44MOL   C17112297   6.838   7.620   6.333  0.2713  0.4605 -0.0144
   44MOL   C17212298   6.768   7.527   6.410  0.4994  0.1728  0.1759
   44MOL   C17312299   6.822   7.471   6.523  1.0409  0.6104 -0.6153
   44MOL   C17412300   6.745   7.375   6.616  0.3832 -0.1385  0.1701
   44MOL   C17512301   6.608   7.353   6.617  0.1223 -0.4703  1.0334
   44MOL   C17612302   6.960   7.488   6.541  0.2730 -0.2204  0.4963
   44MOL   C17712303   7.043   7.559   6.454  0.0357  0.5541 -0.4206
   44MOL   H17812304   6.791   7.680   6.257 -0.2870 -0.8028 -0.6848
   44MOL   H17912305   6.666   7.517   6.375  0.3871  0.5842  0.3762
   44MOL   H18012306   6.817   7.336   6.685 -0.5038 -1.0047  0.6160
   44MOL   H18112307   6.538   7.399   6.548  1.7269  1.4753  0.6318
   44MOL   H18212308   7.007   7.442   6.627 -1.4965 -0.7870  1.1891
   44MOL   H18312309   7.149   7.573   6.471  0.7344 -0.4516 -3.5306
   44MOL   C18412310   6.537   7.282   6.713 -0.8238 -0.1630 -0.0407
   44MOL   C18512311   6.605   7.232   6.826 -0.8169  0.2991 -0.1205
   44MOL   C18612312   6.543   7.152   6.918  0.3726  0.1109 -0.7709
   44MOL   C18712313   6.406   7.125   6.906 -0.0431 -0.4167 -0.4800
   44MOL   C18812314   6.336   7.036   7.000 -0.2636 -0.2659  0.2535
   44MOL   C18912315   6.398   6.939   7.062  0.2802  0.0449 -0.6615
   44MOL   C19012316   6.329   7.177   6.799 -0.5640  1.1057  0.3853
   44MOL   C19112317   6.397   7.259   6.705 -0.4197  0.1774  0.2253
   44MOL   H19212318   6.712   7.234   6.835 -0.9452  0.7298  1.5748
   44MOL   H19312319   6.596   7.117   7.006 -0.5130  0.1877 -0.1972
   44MOL   H19412320   6.233   7.062   7.016 -0.3013 -0.1154 -0.2451
   44MOL   H19512321   6.502   6.922   7.037  0.2290 -1.7636  0.2953
   44MOL   H19612322   6.225   7.150   6.796  0.0752 -1.2903 -1.4778
   44MOL   H19712323   6.331   7.297   6.629 -1.5506 -0.5011  0.8671
   44MOL   C19812324   6.349   6.861   7.174  0.4139  0.4555 -0.0206
   44MOL   C19912325   6.207   6.857   7.211 -0.1180  0.4476 -0.7866
   44MOL   C20012326   6.162   6.780   7.319 -0.1894  0.4130  0.6895
   44MOL   C20112327   6.260   6.697   7.383  0.4321  0.4695  0.3453
   44MOL   C20212328   6.218   6.607   7.487  0.1640  0.0647 -0.3765
   44MOL   C20312329   6.096   6.565   7.519 -0.7414 -0.0846 -1.1471
   44MOL   C20412330   6.392   6.686   7.334 -0.3397 -0.4594  0.1455
   44MOL   C20512331   6.443   6.775   7.235 -0.9032 -0.0656  0.3805
   44MOL   H20612332   6.136   6.931   7.177  1.2405  1.1443 -2.1857
   44MOL   H20712333   6.060   6.791   7.353  0.3093  1.2627  1.9811
   44MOL   H20812334   6.300   6.571   7.546  1.4713  0.3290 -1.9894
   44MOL   H20912335   6.009   6.601   7.467 -0.2411 -0.2898 -2.1344
   44MOL   H21012336   6.457   6.620   7.389  0.2586  0.1081  0.1263
   44MOL   H21112337   6.547   6.771   7.206 -0.8384 -0.9800  0.7191
   44MOL   C21212338   6.066   6.482   7.636  0.3144 -0.1100  0.3517
   44MOL   C21312339   5.949   6.407   7.638  0.4087  0.0320 -0.5441
   44MOL   C21412340   5.920   6.319   7.747 -0.6788  0.4980  0.2682
   44MOL   C21512341   6.002   6.312   7.862  0.2852 -0.0099  0.9961
   44MOL   C21612342   5.966   6.238   7.979 -0.6237  0.5655 -0.2098
   44MOL   C21712343   5.839   6.192   8.004 -0.2906  0.2739  0.1360
   44MOL   C21812344   6.119   6.395   7.866 -1.1746 -0.0059 -1.0529
   44MOL   C21912345   6.150   6.479   7.754  0.5212 -0.5747  0.1992
   44MOL   H22012346   5.882   6.424   7.556  0.4305 -3.4381 -1.3711
   44MOL   H22112347   5.822   6.274   7.752  0.3167 -1.9540 -1.0735
   44MOL   H22212348   6.048   6.214   8.045 -1.6415 -0.7149  0.6101
   44MOL   H22312349   5.758   6.224   7.941 -0.5936  2.0135  1.3652
   44MOL   H22412350   6.182   6.399   7.955 -2.2909  0.7145 -0.2889
   44MOL   H22512351   6.241   6.537   7.754  1.2987 -1.7661 -0.5811
   44MOL   C22612352   5.806   6.119   8.126 -0.0383 -0.1765  0.2631
   44MOL   C22712353   5.696   6.164   0.054 -0.5089 -0.2597  0.5774
   44MOL   C22812354   5.666   6.109   0.182 -0.1331  0.2126 -0.8101
   44MOL   C22912355   5.753   6.008   0.230  0.3720  0.2616 -0.4873
   44MOL   C23012356   5.735   5.970   0.372  0.1871 -0.5623  0.6421
   44MOL   C23112357   5.832   5.927   0.459  0.2190 -0.1203 -0.1545
   44MOL   C23212358   5.857   5.957   0.154 -0.6966  0.7846  0.1243
   44MOL   C23312359   5.892   6.017   0.033 -0.1777  0.3635 -0.3915
   44MOL   H23412360   5.638   6.252   0.032 -0.0744  0.8552  3.5706
   44MOL   H23512361   5.596   6.156   0.249 -1.3882 -0.9015 -1.3132
   44MOL   H23612362   5.637   5.989   0.413 -0.4015 -1.7862 -0.1706
   44MOL   H23712363   5.933   5.912   0.423 -0.1496 -0.9986 -0.8371
   44MOL   H23812364   5.923   5.884   0.198 -1.7098 -0.5891 -0.6103
   44MOL   H23912365   5.983   5.978   8.136  1.0982  0.0732  2.5825
   44MOL   C24012366   5.815   5.904   0.604 -0.0038 -0.6358 -0.4703
   44MOL   C24112367   5.707   5.961   0.677  0.1437  0.3121 -0.3064
   44MOL   C24212368   5.700   5.952   0.814  0.7963 -0.0062  0.2364
   44MOL   C24312369   5.798   5.881   0.877  0.4080 -0.1210 -0.5904
   44MOL   C24412370   5.809   5.862   1.026  0.2482 -0.1240 -0.6593
   44MOL   C24512371   5.722   5.923   1.109 -0.1777 -0.1759 -0.4098
   44MOL   C24612372   5.898   5.813   0.808 -0.6398  0.2987  0.5631
   44MOL   C24712373   5.905   5.821   0.665  0.0117 -0.2816 -0.3399
   44MOL   H24812374   5.641   6.035   0.633 -0.3214  0.7189  1.0567
   44MOL   H24912375   5.617   5.999   0.865  2.0722  1.5430  0.9149
   44MOL   H25012376   5.885   5.798   1.067  1.9186  2.5271  0.5314
   44MOL   H25112377   5.641   5.984   1.070 -1.9340 -0.9950  1.8017
   44MOL   H25212378   5.971   5.751   0.858  0.9726  2.3575  0.8425
   44MOL   H25312379   5.981   5.764   0.614  0.6310 -1.1589  1.5336
   44MOL   C25412380   5.727   5.921   1.252  0.0704 -0.0164 -0.4735
   44MOL   C25512381   5.634   6.010   1.314 -0.3000 -0.0784 -0.1640
   44MOL   C25612382   5.623   6.025   1.457  0.3006 -0.3591  0.9940
   44MOL   C25712383   5.699   5.938   1.535  0.2889 -0.5780 -0.0698
   44MOL   C25812384   5.680   5.932   1.682  1.0833 -0.6750  0.1814
   44MOL   C25912385   5.786   5.927   1.776  0.0677 -0.0158 -0.2371
   44MOL   C26012386   5.791   5.842   1.473 -0.1841 -0.4891  0.3731
   44MOL   C26112387   5.804   5.832   1.331  0.3617 -0.0677 -0.3758
   44MOL   H26212388   5.568   6.073   1.256  1.3132  2.9883  1.2431
   44MOL   H26312389   5.552   6.100   1.488  1.0355  0.7359  0.0819
   44MOL   H26412390   5.577   5.921   1.714  0.7751 -0.1992 -0.6253
   44MOL   H26512391   5.756   5.911   1.878 -2.0222  0.5930 -0.7271
   44MOL   H26612392   5.830   5.767   1.541 -0.3177  0.5472  1.6052
   44MOL   H26712393   5.857   5.749   1.287  0.1010 -0.3840 -0.1002
   44MOL   C26812394   5.931   5.920   1.754 -0.0776 -0.1314 -0.7767
   44MOL   C26912395   6.007   5.972   1.648 -0.0113 -0.5963 -0.3126
   44MOL   C27012396   6.152   5.967   1.650 -0.3307 -0.0319 -0.5513
   44MOL   C27112397   6.221   5.899   1.752 -0.1931  0.5260  0.0646
   44MOL   C27212398   6.366   5.876   1.765 -0.8779 -0.5950  0.1327
   44MOL   C27312399   6.453   5.922   1.673 -0.3183 -0.5621  0.1662
   44MOL   C27412400   6.142   5.836   1.850  0.7594  0.4230  0.2592
   44MOL   C27512401   6.003   5.846   1.854 -0.5064 -0.0774 -0.1639
   44MOL   H27612402   5.958   6.035   1.575  0.0539  0.9193  0.9235
   44MOL   H27712403   6.202   6.009   1.564 -1.6167 -0.6287 -1.6153
   44MOL   H27812404   6.408   5.828   1.852  0.2986  0.9947  0.4771
   44MOL   H27912405   6.417   5.970   1.583 -1.9157  0.0132  1.0875
   44MOL   H28012406   6.193   5.780   1.927  0.4585 -0.6015 -0.2775
   44MOL   H28112407   5.949   5.802   1.937  2.0557 -2.0677  0.4858
   44MOL   H28212408   6.560   5.909   1.678 -0.1529  1.0935  1.2969
   45MOL     C112409   1.797   4.299   6.293 -0.1434 -0.4747  0.2864
   45MOL     C212410   1.836   4.380   6.185 -0.4838 -0.5645  0.0273
   45MOL     C312411   1.887   4.512   6.194  0.4554  0.0116  0.3824
   45MOL     C412412   1.899   4.565   6.322  0.0627  0.2129 -0.1486
   45MOL     C512413   1.938   4.705   6.348 -0.8192  0.2417 -0.2812
   45MOL     C612414   1.982   4.783   6.256  0.8555  0.3267  0.0167
   45MOL     C712415   1.869   4.480   6.432 -0.4254  0.8550 -0.1951
   45MOL     C812416   1.819   4.349   6.421  0.1352 -0.1653  0.4354
   45MOL     H912417   1.824   4.338   6.086  2.3405 -1.6593  0.0813
   45MOL    H1012418   1.895   4.575   6.107  2.7234 -0.3699  0.2742
   45MOL    H1112419   1.935   4.736   6.451 -0.7603 -1.2597  0.1815
   45MOL    H1212420   1.992   4.749   6.154  1.2191 -0.0444  0.1758
   45MOL    H1312421   1.893   4.502   6.535 -1.2547  1.8455 -0.2109
   45MOL    H1412422   1.793   4.292   6.508 -0.4232 -2.4162 -1.1566
   45MOL    H1512423   1.771   4.194   6.282  4.4056 -1.7206  0.2408
   45MOL    C1612424   2.013   4.923   6.281 -0.8816  0.1305  0.2727
   45MOL    C1712425   1.978   4.989   6.403 -0.1635  0.5401  0.3391
   45MOL    C1812426   2.023   5.123   6.419  0.1319 -0.3543  0.4885
   45MOL    C1912427   2.093   5.195   6.325 -0.1753  0.1508  0.6883
   45MOL    C2012428   2.113   5.339   6.351  1.3566 -0.2879 -0.4957
   45MOL    C2112429   2.208   5.415   6.292  0.7431  0.0224 -0.8071
   45MOL    C2212430   2.136   5.125   6.215 -0.5360  0.5914 -0.0088
   45MOL    C2312431   2.096   4.994   6.189 -0.7042  0.9409  0.1168
   45MOL    H2412432   1.915   4.947   6.479 -0.7918 -0.1622 -0.5717
   45MOL    H2512433   1.998   5.168   6.514 -0.7026 -1.5322  0.8338
   45MOL    H2612434   2.047   5.378   6.427  1.0233 -1.7553 -0.0058
   45MOL    H2712435   2.279   5.377   6.221  0.3998 -0.4596 -0.8945
   45MOL    H2812436   2.192   5.172   6.136  1.9422  0.1754  1.4496
   45MOL    H2912437   2.129   4.949   6.097 -0.6717  0.9005  0.1487
   45MOL    C3012438   2.231   5.559   6.327 -0.0902 -0.4603  0.8259
   45MOL    C3112439   2.152   5.635   6.416 -0.4168 -0.2079  0.5005
   45MOL    C3212440   2.180   5.770   6.437  0.1009  0.2901 -0.3120
   45MOL    C3312441   2.294   5.831   6.388 -0.2030 -0.3192  0.3510
   45MOL    C3412442   2.312   5.970   6.421 -0.8090  0.5485 -0.8527
   45MOL    C3512443   2.400   6.065   6.371  0.1383  0.0618 -0.4264
   45MOL    C3612444   2.373   5.762   6.298  0.2688  0.4285 -0.1295
   45MOL    C3712445   2.343   5.628   6.267  0.4113  1.0167  0.0323
   45MOL    H3812446   2.063   5.597   6.465  0.3386  0.4047  2.3784
   45MOL    H3912447   2.110   5.825   6.498 -1.6103 -0.3884 -1.6020
   45MOL    H4012448   2.244   6.004   6.497  0.7277 -0.6118  1.1002
   45MOL    H4112449   2.472   6.035   6.297  0.8973 -0.5941  0.5666
   45MOL    H4212450   2.464   5.812   6.265  2.7120 -2.4574  1.9499
   45MOL    H4312451   2.406   5.577   6.195  1.8945  0.2315  1.8498
   45MOL    C4412452   2.409   6.204   6.414  0.6923  0.1689 -0.2685
   45MOL    C4512453   2.336   6.259   6.525 -0.2253  0.3292 -0.0593
   45MOL    C4612454   2.352   6.391   6.569  0.5032 -0.5486  0.4526
   45MOL    C4712455   2.438   6.475   6.503 -0.0050 -0.0888 -0.1730
   45MOL    C4812456   2.440   6.615   6.540  0.1803  0.3743  0.1753
   45MOL    C4912457   2.496   6.717   6.471 -0.5636  0.1542 -0.7119
   45MOL    C5012458   2.506   6.428   6.391  0.2604 -0.7034  0.0371
   45MOL    C5112459   2.497   6.293   6.354 -0.6575  1.1574  0.0957
   45MOL    H5212460   2.271   6.198   6.586  0.2069  0.4469  0.5279
   45MOL    H5312461   2.301   6.431   6.656  0.0666  0.4141 -0.2410
   45MOL    H5412462   2.396   6.648   6.633 -0.7410  0.5925 -0.3274
   45MOL    H5512463   2.538   6.697   6.373 -0.6800  2.5892 -1.2966
   45MOL    H5612464   2.568   6.495   6.333  0.4538  0.6819  1.8214
   45MOL    H5712465   2.558   6.256   6.273 -0.0976 -2.9592  2.2430
   45MOL    C5812466   2.515   6.854   6.515 -0.5187  0.4539  0.5203
   45MOL    C5912467   2.518   6.956   6.416  0.2740 -0.1386  1.0139
   45MOL    C6012468   2.538   7.093   6.442 -0.0873  0.1156 -0.1924
   45MOL    C6112469   2.544   7.130   6.579 -0.5666  0.3018  0.0822
   45MOL    C6212470   2.560   7.267   6.631 -0.2961 -0.7066 -0.0257
   45MOL    C6312471   2.556   7.381   6.560  0.1823 -0.3527  0.0474
   45MOL    C6412472   2.545   7.024   6.680 -0.0040 -0.1716 -0.3551
   45MOL    C6512473   2.523   6.891   6.648 -0.1868  0.6361 -0.1833
   45MOL    H6612474   2.504   6.920   6.316  1.4542 -0.2526  0.8763
   45MOL    H6712475   2.541   7.170   6.367 -0.4838  0.7193  0.4101
   45MOL    H6812476   2.573   7.271   6.738  2.5353 -1.2310 -0.3014
   45MOL    H6912477   2.531   7.375   6.455 -2.6451 -0.4148  0.6948
   45MOL    H7012478   2.559   7.044   6.785 -2.4576  0.5085 -0.1311
   45MOL    H7112479   2.535   6.804   6.711  1.2347  0.8924 -0.0828
   45MOL    C7212480   2.566   7.519   6.614 -0.0295  0.6726 -0.2243
   45MOL    C7312481   2.584   7.548   6.752 -0.1473  0.4265  0.5993
   45MOL    C7412482   2.613   7.676   6.788  0.3245 -0.1350  0.0576
   45MOL    C7512483   2.624   7.779   6.695  0.3222  0.2872 -0.4838
   45MOL    C7612484   2.672   7.908   6.739  0.1934 -0.6323 -0.4630
   45MOL    C7712485   2.668   8.025   6.679  0.1133  0.0210  0.3585
   45MOL    C7812486   2.593   7.757   6.560 -0.8055 -0.4450  0.3215
   45MOL    C7912487   2.573   7.618   6.521 -0.6556  0.6204  0.2919
   45MOL    H8012488   2.570   7.470   6.826  0.2992 -1.6073 -1.3889
   45MOL    H8112489   2.629   7.692   6.894 -0.7261 -0.0694  0.2098
   45MOL    H8212490   2.716   7.909   6.837  0.1155  0.8337 -0.4343
   45MOL    H8312491   2.626   8.024   6.579 -1.3293  0.3470  0.9472
   45MOL    H8412492   2.597   7.838   6.489 -2.0330 -0.5121  0.1724
   45MOL    H8512493   2.556   7.594   6.417 -1.8216 -0.3947  0.6970
   45MOL    C8612494   2.720   0.015   6.722  0.3466 -0.3344 -1.0943
   45MOL    C8712495   2.764   0.041   6.854 -0.4109  0.3079  0.2573
   45MOL    C8812496   2.831   0.156   6.880  0.0109 -0.6407 -0.5481
   45MOL    C8912497   2.856   0.257   6.783 -0.2222 -0.5008  0.0332
   45MOL    C9012498   2.957   0.370   6.803 -0.1016 -0.0794  0.0737
   45MOL    C9112499   3.071   0.368   6.880  0.2142  0.8632  0.3259
   45MOL    C9212500   2.804   0.237   6.659 -0.0548 -0.0733  0.0593
   45MOL    C9312501   2.732   0.118   6.628  0.7192 -0.1786 -0.3455
   45MOL    H9412502   2.762   8.113   6.934  2.5793  1.2815  1.2666
   45MOL    H9512503   2.867   0.165   6.981 -1.1386  1.2151 -0.2720
   45MOL    H9612504   2.938   0.460   6.746  0.5956  1.3758  2.0814
   45MOL    H9712505   3.087   0.281   6.942  2.1390  1.0479  0.1215
   45MOL    H9812506   2.817   0.320   6.590 -1.3594  0.7745  0.8151
   45MOL    H9912507   2.693   0.104   6.529  1.5341 -0.9380 -0.5630
   45MOL   C10012508   3.170   0.470   6.896 -0.9018 -0.1243 -0.6941
   45MOL   C10112509   3.300   0.428   6.935  0.1645 -0.2690  0.2125
   45MOL   C10212510   3.406   0.521   6.956 -0.4786  0.1109  0.1933
   45MOL   C10312511   3.388   0.662   6.937 -0.2573  0.4334  0.4898
   45MOL   C10412512   3.486   0.773   6.949 -0.0381  0.5716 -0.1774
   45MOL   C10512513   3.619   0.754   6.953 -0.1100  0.2090 -0.8076
   45MOL   C10612514   3.264   0.701   6.886  0.1437 -0.1409  0.0705
   45MOL   C10712515   3.149   0.612   6.874  0.1053  0.3137  1.0486
   45MOL   H10812516   3.321   0.324   6.954 -0.6218 -0.4231  0.2614
   45MOL   H10912517   3.494   0.472   6.993 -0.2864  0.7944  0.6375
   45MOL   H11012518   3.451   0.875   6.957  0.4466  0.7363 -0.1593
   45MOL   H11112519   3.657   0.653   6.948 -1.7818 -0.6752  3.0138
   45MOL   H11212520   3.254   0.802   6.851  1.1275 -0.4183 -1.0476
   45MOL   H11312521   3.056   0.659   6.848  1.5875  1.6701 -2.0159
   45MOL   C11412522   3.721   0.859   6.976  0.5738 -0.1589  0.5822
   45MOL   C11512523   3.860   0.838   6.952  0.9147  0.2289  0.4760
   45MOL   C11612524   3.957   0.938   6.972  0.3411  0.1671 -0.1018
   45MOL   C11712525   3.914   1.060   7.025  0.4782  0.1201  0.5561
   45MOL   C11812526   4.013   1.151   7.062 -0.3186 -0.2601 -0.2231
   45MOL   C11912527   3.993   1.225   7.174  0.0429 -0.2223  0.4056
   45MOL   C12012528   3.773   1.086   7.042  0.0898  0.5105  0.2858
   45MOL   C12112529   3.677   0.983   7.021  0.4136 -0.7588 -0.3568
   45MOL   H12212530   3.882   0.739   6.913 -1.1766  0.5630 -1.6156
   45MOL   H12312531   4.059   0.918   6.943 -0.4157  1.2060 -3.6566
   45MOL   H12412532   4.105   1.159   7.005  0.6141  1.2313  1.4667
   45MOL   H12512533   3.911   1.219   7.244  1.4230  0.8841  2.1520
   45MOL   H12612534   3.737   1.171   7.099 -0.7427 -0.7561  1.6952
   45MOL   H12712535   3.576   1.006   7.052  0.7789  0.3907 -0.0066
   45MOL   C12812536   4.097   1.310   7.226  0.6021  0.1908  0.5050
   45MOL   C12912537   4.227   1.326   7.172  0.1545  0.0812  0.6505
   45MOL   C13012538   4.311   1.415   7.235  0.4029 -0.2160  0.1125
   45MOL   C13112539   4.276   1.485   7.348  0.0879 -0.4414  0.4798
   45MOL   C13212540   4.373   1.578   7.419  0.6392 -0.2093 -1.1033
   45MOL   C13312541   4.446   1.677   7.361  0.0526  0.5589 -0.0107
   45MOL   C13412542   4.153   1.458   7.408  0.3596 -0.5466  0.1220
   45MOL   C13512543   4.061   1.372   7.347 -0.3790 -0.6562  0.0967
   45MOL   H13612544   4.255   1.271   7.083  1.4372  1.9093 -0.0937
   45MOL   H13712545   4.411   1.438   7.200 -1.0326  4.2648 -1.5176
   45MOL   H13812546   4.376   1.557   7.525 -0.9133  0.0500 -0.9937
   45MOL   H13912547   4.429   1.702   7.257 -1.8634 -0.3561  0.0742
   45MOL   H14012548   4.129   1.522   7.491 -1.0241  0.9489 -1.4000
   45MOL   H14112549   3.964   1.358   7.391 -1.0269  1.0505 -0.7580
   45MOL   C14212550   4.546   1.759   7.436 -0.0430  0.3932 -0.0433
   45MOL   C14312551   4.593   1.882   7.375  0.9201 -0.1018  0.5828
   45MOL   C14412552   4.681   1.967   7.437 -0.4676  0.2410  0.5375
   45MOL   C14512553   4.741   1.926   7.558  0.5815  0.2933 -0.2702
   45MOL   C14612554   4.836   2.010   7.628  0.8349  0.3759 -0.2696
   45MOL   C14712555   4.920   2.102   7.575 -0.4149 -0.0278 -0.1282
   45MOL   C14812556   4.688   1.815   7.627 -0.4150 -0.4760 -0.1064
   45MOL   C14912557   4.599   1.731   7.562  0.4660  0.9494 -0.2629
   45MOL   H15012558   4.565   1.900   7.273 -1.0489  0.9321  1.2808
   45MOL   H15112559   4.713   2.054   7.382 -0.5559  0.4363  0.7904
   45MOL   H15212560   4.845   1.981   7.732 -0.9694 -0.1140 -0.2405
   45MOL   H15312561   4.927   2.132   7.472  2.2414  0.5992  0.2129
   45MOL   H15412562   4.728   1.792   7.724  1.3573  0.3611 -0.6234
   45MOL   H15512563   4.565   1.639   7.609  0.4743  0.3509 -1.4107
   45MOL   C15612564   5.023   2.173   7.667 -0.4943  0.4916  0.0378
   45MOL   C15712565   5.120   2.250   7.609 -0.5524 -0.3788  0.6629
   45MOL   C15812566   5.205   2.322   7.693 -0.2746 -0.9631  0.2830
   45MOL   C15912567   5.211   2.299   7.830  0.0249 -0.1561 -0.3028
   45MOL   C16012568   5.321   2.351   7.905  0.3241 -0.3012  0.0072
   45MOL   C16112569   5.345   2.332   8.038  0.3200  0.5347  0.6607
   45MOL   C16212570   5.107   2.229   7.890 -0.3338 -1.1683 -0.0357
   45MOL   C16312571   5.008   2.169   7.808  0.0531 -0.1572 -0.3289
   45MOL   H16412572   5.131   2.261   7.502 -2.0039 -1.3352  0.4079
   45MOL   H16512573   5.285   2.383   7.653 -1.3991 -1.4626 -2.8722
   45MOL   H16612574   5.400   2.405   7.855 -0.6661  0.8535 -0.3741
   45MOL   H16712575   5.270   2.284   8.098  1.1042 -0.3508  0.9371
   45MOL   H16812576   5.092   2.226   7.997 -0.4074 -0.8630 -0.0351
   45MOL   H16912577   4.919   2.127   7.854  0.5600  0.3131  1.1224
   45MOL   C17012578   5.468   2.373   8.111  0.0582 -0.5440  0.3686
   45MOL   C17112579   5.545   2.493   8.089 -0.2649  0.3099  0.5175
   45MOL   C17212580   5.661   2.510   0.018  0.4184  0.4026  0.8356
   45MOL   C17312581   5.709   2.421   0.114 -0.1078 -0.4327  0.3757
   45MOL   C17412582   5.849   2.433   0.177  0.1936  0.4463 -0.9071
   45MOL   C17512583   5.922   2.340   0.242 -0.0839  0.1008 -0.2172
   45MOL   C17612584   5.634   2.305   0.136  0.5512 -0.3363 -0.0778
   45MOL   C17712585   5.511   2.283   0.064 -0.1691 -0.2345 -0.4996
   45MOL   H17812586   5.518   2.565   8.012  1.1749 -0.8672 -1.1332
   45MOL   H17912587   5.724   2.596   0.003  2.5425 -1.0630  1.1460
   45MOL   H18012588   5.889   2.533   0.177 -1.5892  1.1764 -0.6628
   45MOL   H18112589   5.880   2.241   0.244 -2.3052  1.0248  2.3729
   45MOL   H18212590   5.675   2.229   0.200  2.6607  2.1860  1.6443
   45MOL   H18312591   5.456   2.192   0.081  0.1532 -0.0102  1.8900
   45MOL   C18412592   6.053   2.359   0.289  0.0327  0.1595 -0.3703
   45MOL   C18512593   6.124   2.474   0.270  0.1530 -0.1648  0.2829
   45MOL   C18612594   6.248   2.492   0.327 -0.2878 -0.6106  0.2986
   45MOL   C18712595   6.313   2.389   0.403  0.3579 -0.2834 -0.7179
   45MOL   C18812596   6.443   2.401   0.460 -0.3411 -0.5670 -0.0602
   45MOL   C18912597   6.504   2.511   0.511 -0.5717 -0.1867  0.3101
   45MOL   C19012598   6.243   2.269   0.427  0.0005 -0.5907  0.0130
   45MOL   C19112599   6.114   2.254   0.366 -0.2363 -0.0175  0.9559
   45MOL   H19212600   6.091   2.553   0.205  0.6179  0.9123  1.3228
   45MOL   H19312601   6.286   2.592   0.315  0.4727 -0.9618 -0.3122
   45MOL   H19412602   6.510   2.317   0.457  0.2623 -0.1085  0.2879
   45MOL   H19512603   6.449   2.604   0.523 -1.5038 -0.5864 -0.7394
   45MOL   H19612604   6.278   2.192   0.494 -3.1839 -1.6262  0.5753
   45MOL   H19712605   6.057   2.164   0.385 -1.5192  0.1135 -1.9988
   45MOL   C19812606   6.647   2.521   0.547  0.1906 -0.8965 -0.2097
   45MOL   C19912607   6.732   2.406   0.549 -0.5134 -0.1014 -0.2043
   45MOL   C20012608   6.866   2.419   0.573 -0.9615  0.6819  0.2996
   45MOL   C20112609   6.922   2.543   0.609  0.4122 -0.3100  0.1026
   45MOL   C20212610   7.066   2.544   0.623  0.2294  0.3831 -0.0064
   45MOL   C20312611   7.139   2.650   0.658  0.2749 -0.3268  0.0662
   45MOL   C20412612   6.841   2.657   0.608 -0.1547  0.3491 -0.0233
   45MOL   C20512613   6.704   2.646   0.587 -0.1800  0.5613  0.2306
   45MOL   H20612614   6.695   2.306   0.535 -0.3634 -0.2998  0.7696
   45MOL   H20712615   6.939   2.340   0.581 -0.3875  1.3068  1.3670
   45MOL   H20812616   7.115   2.452   0.595  1.3569  1.5377 -1.9850
   45MOL   H20912617   7.094   2.743   0.689  0.2458 -0.8258  1.5810
   45MOL   H21012618   6.886   2.752   0.633  1.0911  0.0237 -0.9829
   45MOL   H21112619   6.645   2.735   0.600  1.2093  1.8454 -1.8257
   45MOL   C21212620   7.285   2.670   0.659 -0.1781 -0.5548 -0.2819
   45MOL   C21312621   7.340   2.763   0.737  0.8690 -0.3140  0.2766
   45MOL   C21412622   7.476   2.782   0.746  0.0083  0.0716 -0.2194
   45MOL   C21512623   7.569   2.696   0.681 -0.1977  0.6332 -0.5869
   45MOL   C21612624   7.717   2.710   0.692  0.1414  0.7218 -0.7849
   45MOL   C21712625   7.819   2.621   0.668  0.7071 -0.1118 -0.1704
   45MOL   C21812626   7.514   2.586   0.606  0.7481  0.7537 -0.5549
   45MOL   C21912627   7.371   2.574   0.599 -0.8241 -0.0884 -0.1614
   45MOL   H22012628   7.280   2.842   0.781 -1.8642 -2.1057 -0.1381
   45MOL   H22112629   7.516   2.866   0.801 -0.2085 -0.1219  0.2292
   45MOL   H22212630   7.740   2.809   0.731 -1.1704  0.0671  1.7207
   45MOL   H22312631   7.789   2.521   0.639  0.3592 -0.8283  2.4452
   45MOL   H22412632   7.576   2.510   0.562  0.2198  0.2885 -0.4928
   45MOL   H22512633   7.349   2.492   0.533 -0.8768  0.5346 -0.9184
   45MOL   C22612634   7.966   2.653   0.682  0.1800  0.0956 -0.8318
   45MOL   C22712635   8.061   2.586   0.606 -0.2422  0.2165  0.4115
   45MOL   C22812636   0.054   2.613   0.628  0.1693  0.0634  0.7585
   45MOL   C22912637   0.095   2.712   0.716 -0.1582 -0.7730 -0.6391
   45MOL   C23012638   0.237   2.743   0.742  0.2363  0.6769  0.4029
   45MOL   C23112639   0.343   2.669   0.693 -0.1473  0.2461  0.4590
   45MOL   C23212640   0.000   2.784   0.790 -0.6055  0.2963 -0.5851
   45MOL   C23312641   8.007   2.754   0.770  0.2575  0.2867  0.1892
   45MOL   H23412642   8.039   2.501   0.542  1.9531  0.6519 -0.9690
   45MOL   H23512643   0.124   2.544   0.583 -1.2944 -0.3104 -1.0193
   45MOL   H23612644   0.265   2.813   0.819  1.2330 -0.3040  0.9390
   45MOL   H23712645   0.327   2.582   0.631  0.2961  0.9409 -0.6435
   45MOL   H23812646   0.030   2.863   0.857 -0.1179 -0.1596 -0.2622
   45MOL   H23912647   7.934   2.804   0.830 -0.4818  0.3972 -0.7868
   45MOL   C24012648   0.484   2.695   0.723 -1.3087 -0.1111  0.0742
   45MOL   C24112649   0.576   2.585   0.712 -0.3473  0.5767 -0.2276
   45MOL   C24212650   0.713   2.605   0.746  0.2986 -0.3489 -0.2382
   45MOL   C24312651   0.768   2.737   0.771  0.2708  0.1444  0.1295
   45MOL   C24412652   0.906   2.759   0.810  0.0254  0.0029  0.2717
   45MOL   C24512653   1.006   2.663   0.810 -0.7203  0.0406  0.2265
   45MOL   C24612654   0.676   2.844   0.762  0.3164  0.1607 -0.3022
   45MOL   C24712655   0.537   2.821   0.748  0.0934  0.1419  0.3732
   45MOL   H24812656   0.544   2.488   0.678  2.2912 -0.1798 -0.6222
   45MOL   H24912657   0.784   2.524   0.747  1.9351  1.0543  3.4089
   45MOL   H25012658   0.943   2.858   0.829  1.3301 -0.3707 -0.2675
   45MOL   H25112659   0.986   2.560   0.783  0.7938 -0.1339 -0.2610
   45MOL   H25212660   0.710   2.944   0.784  2.7857 -0.0669 -2.7529
   45MOL   H25312661   0.467   2.902   0.756 -0.3369 -0.0882 -0.8623
   45MOL   C25412662   1.147   2.684   0.848  0.0059 -0.2742 -0.6079
   45MOL   C25512663   1.245   2.577   0.851  0.1230  0.4405  0.3522
   45MOL   C25612664   1.379   2.599   0.901 -0.3468 -0.3926 -0.1164
   45MOL   C25712665   1.420   2.732   0.925 -0.0635 -0.2635  0.3345
   45MOL   C25812666   1.558   2.750   0.965  0.4087 -0.3568 -0.1386
   45MOL   C25912667   1.644   2.858   0.950  0.2719 -0.8298  0.4625
   45MOL   C26012668   1.330   2.837   0.910 -0.2032  0.4167 -0.3775
   45MOL   C26112669   1.191   2.814   0.882  0.0752 -0.2507  0.8337
   45MOL   H26212670   1.211   2.476   0.833 -3.2693  1.2311  1.9743
   45MOL   H26312671   1.453   2.521   0.917  0.9647  1.3758  2.9306
   45MOL   H26412672   1.595   2.668   1.024  1.0514 -1.4588 -2.0390
   45MOL   H26512673   1.746   2.857   0.986  0.4602 -4.3482  0.0316
   45MOL   H26612674   1.373   2.935   0.926  0.8871 -0.1800  0.4431
   45MOL   H26712675   1.124   2.898   0.878 -0.6874 -0.8399  0.9212
   45MOL   C26812676   1.631   2.980   0.868 -0.0867 -0.3057 -0.6403
   45MOL   C26912677   1.542   2.992   0.757  0.5009 -0.2687  0.1056
   45MOL   C27012678   1.527   3.117   0.695  0.8322  0.0185  1.4831
   45MOL   C27112679   1.588   3.232   0.745  0.6107  0.1287 -0.5153
   45MOL   C27212680   1.543   3.365   0.691 -0.1913 -0.3390 -0.2283
   45MOL   C27312681   1.557   3.489   0.746  0.9278  0.0550  0.8908
   45MOL   C27412682   1.682   3.214   0.853  0.0353 -0.2645  0.1855
   45MOL   C27512683   1.703   3.090   0.907  0.3108  0.2326 -0.1794
   45MOL   H27612684   1.479   2.916   0.714  0.9832 -1.0935  0.8407
   45MOL   H27712685   1.444   3.110   0.627  1.3118 -2.5898  1.0929
   45MOL   H27812686   1.483   3.364   0.602 -0.5149 -1.4301 -0.0047
   45MOL   H27912687   1.615   3.505   0.835  1.3795 -1.3599  0.8704
   45MOL   H28012688   1.736   3.296   0.898 -0.5175 -0.2371  0.7987
   45MOL   H28112689   1.776   3.072   0.984 -0.0218 -1.0132 -0.1365
   45MOL   H28212690   1.511   3.578   0.705  1.8011 -0.1398 -0.5349
   46MOL     C112691   6.655   1.673   6.431  0.1018  0.3847 -0.1080
   46MOL     C212692   6.587   1.665   6.315 -0.2763  0.7078 -0.2232
   46MOL     C312693   6.473   1.586   6.301  0.8368  0.0354  0.1161
   46MOL     C412694   6.421   1.515   6.414  0.0821  0.0890 -0.6940
   46MOL     C512695   6.300   1.428   6.412 -0.2606  0.1122 -0.1435
   46MOL     C612696   6.203   1.429   6.321  1.2453  0.3413  0.4797
   46MOL     C712697   6.494   1.520   6.535 -0.1185 -0.3180  0.4806
   46MOL     C812698   6.604   1.608   6.540  0.5484 -0.9899 -0.0750
   46MOL     H912699   6.628   1.722   6.233  0.4828 -0.9536 -1.0316
   46MOL    H1012700   6.421   1.582   6.206 -0.5413  1.6203  0.7847
   46MOL    H1112701   6.288   1.363   6.497 -1.3877  1.4235  0.7383
   46MOL    H1212702   6.208   1.493   6.234  1.2983  2.4692  2.0166
   46MOL    H1312703   6.466   1.450   6.612 -0.8100 -1.4606 -0.7929
   46MOL    H1412704   6.671   1.614   6.624 -1.7012  0.4877  1.6583
   46MOL    H1512705   6.741   1.738   6.437  0.2154  0.4009 -1.6901
   46MOL    C1612706   6.075   1.347   6.325  0.6398  0.2165  0.5813
   46MOL    C1712707   6.038   1.259   6.431  0.9695  0.1030 -0.3211
   46MOL    C1812708   5.915   1.190   6.417 -0.0809  0.5107  0.0750
   46MOL    C1912709   5.823   1.213   6.311 -0.4614 -0.0242 -0.5326
   46MOL    C2012710   5.696   1.147   6.315  0.2863  0.9119  0.3328
   46MOL    C2112711   5.624   1.108   6.209 -0.5363  0.4576  0.7557
   46MOL    C2212712   5.869   1.291   6.203 -0.0155 -0.3334 -0.4016
   46MOL    C2312713   5.993   1.355   6.211  0.0453  0.9533  0.3009
   46MOL    H2412714   6.099   1.238   6.517 -0.9187  1.3726  1.3519
   46MOL    H2512715   5.905   1.118   6.497  0.0998 -0.1010 -0.4487
   46MOL    H2612716   5.661   1.123   6.414 -2.8924  1.7132 -0.5143
   46MOL    H2712717   5.661   1.126   6.109  2.2896 -1.0290  1.4750
   46MOL    H2812718   5.808   1.318   6.118  0.7901 -0.8648 -1.1560
   46MOL    H2912719   6.020   1.410   6.122  0.5307  0.8785  0.3987
   46MOL    C3012720   5.497   1.028   6.221 -1.0894  0.1048  0.7058
   46MOL    C3112721   5.453   0.973   6.340  0.2039  0.0071 -0.5501
   46MOL    C3212722   5.328   0.893   6.337  0.0252  0.2971 -0.5760
   46MOL    C3312723   5.265   0.864   6.214  0.3539  0.4988 -0.3132
   46MOL    C3412724   5.137   0.798   6.230 -0.5772 -0.1558 -0.4853
   46MOL    C3512725   5.033   0.805   6.144  0.1980 -0.4113 -0.2607
   46MOL    C3612726   5.310   0.920   6.098 -0.7197 -0.1991  0.1398
   46MOL    C3712727   5.423   1.003   6.103 -0.3824 -1.0290 -0.0911
   46MOL    H3812728   5.513   0.985   6.429  1.2854 -2.9589 -0.8214
   46MOL    H3912729   5.298   0.850   6.432  2.6902 -0.4827 -0.0511
   46MOL    H4012730   5.117   0.743   6.321 -5.6274 -2.2126 -2.6521
   46MOL    H4112731   5.046   0.854   6.048  2.9395  0.0060  0.2725
   46MOL    H4212732   5.256   0.920   6.005  1.3351 -0.0894 -1.0769
   46MOL    H4312733   5.448   1.049   6.009 -1.5959  0.8518  0.4798
   46MOL    C4412734   4.898   0.749   6.159 -0.4885  0.3420  0.3593
   46MOL    C4512735   4.832   0.695   6.051  0.0831 -0.6617 -0.0716
   46MOL    C4612736   4.708   0.631   6.076  0.0096  0.0017  0.1886
   46MOL    C4712737   4.648   0.629   6.204  0.6838 -0.7283  0.4096
   46MOL    C4812738   4.519   0.558   6.226 -0.4783 -0.0576  0.3135
   46MOL    C4912739   4.429   0.517   6.135 -0.1658 -0.5113 -0.1429
   46MOL    C5012740   4.721   0.667   6.317  0.2433  0.1353  0.2207
   46MOL    C5112741   4.853   0.722   6.289 -0.5321 -0.0432 -0.4544
   46MOL    H5212742   4.871   0.708   5.951  0.0124  0.8191  0.0785
   46MOL    H5312743   4.645   0.596   5.995 -1.9934 -4.7621  3.5697
   46MOL    H5412744   4.503   0.538   6.331 -1.7960  2.5820  0.6507
   46MOL    H5512745   4.444   0.528   6.029  0.8695 -1.9538 -0.1524
   46MOL    H5612746   4.683   0.640   6.414  0.1074 -1.2723 -0.2241
   46MOL    H5712747   4.913   0.740   6.377  0.0045  1.1664 -1.0522
   46MOL    C5812748   4.305   0.447   6.171 -0.7602  0.0522 -0.6708
   46MOL    C5912749   4.247   0.444   6.298  0.4006  0.1216  0.7245
   46MOL    C6012750   4.148   0.352   6.340  0.2824 -0.1977  0.3048
   46MOL    C6112751   4.102   0.264   6.243  0.1754 -0.1279 -0.3053
   46MOL    C6212752   4.019   0.152   6.283  0.3730  0.4041  0.3128
   46MOL    C6312753   3.970   0.125   6.404  0.3024  0.2381 -0.2572
   46MOL    C6412754   4.142   0.276   6.107 -0.3179  0.1430 -0.3007
   46MOL    C6512755   4.243   0.368   6.074  0.9723 -0.8517 -0.0564
   46MOL    H6612756   4.287   0.515   6.369 -2.6793  1.7463  0.9358
   46MOL    H6712757   4.112   0.362   6.441 -0.0038 -1.1730  0.3046
   46MOL    H6812758   4.007   0.088   6.196  0.5666 -0.0549  0.6263
   46MOL    H6912759   3.983   0.199   6.481 -0.0913  0.9671 -0.8794
   46MOL    H7012760   4.090   0.216   6.033  0.2360  0.5255 -1.0059
   46MOL    H7112761   4.274   0.357   5.971  0.8840 -0.4794 -0.1263
   46MOL    C7212762   3.899   0.003   6.435 -1.0340  0.1560  0.1186
   46MOL    C7312763   3.864   8.126   6.570  0.6817 -0.4907  0.9659
   46MOL    C7412764   3.798   8.005   6.612 -0.3685  0.1288  0.7924
   46MOL    C7512765   3.768   7.904   6.518  0.0638  0.0775 -0.8100
   46MOL    C7612766   3.693   7.783   6.545 -0.3390 -0.8189 -0.7681
   46MOL    C7712767   3.627   7.743   6.648 -0.4658  0.2179 -0.0177
   46MOL    C7812768   3.805   7.926   6.384 -0.0666 -0.1925 -0.5203
   46MOL    C7912769   3.872   8.044   6.344 -0.3929  0.0414 -0.0009
   46MOL    H8012770   3.889   0.059   6.642 -0.3384  1.0958 -0.3662
   46MOL    H8112771   3.785   7.998   6.719 -1.2979 -1.3267  0.5849
   46MOL    H8212772   3.693   7.717   6.460 -0.2422 -0.2299 -1.2240
   46MOL    H8312773   3.628   7.813   6.729 -0.6230  2.7748 -2.1589
   46MOL    H8412774   3.783   7.854   6.307 -1.6206  0.5311 -0.7745
   46MOL    H8512775   3.887   8.066   6.239 -0.7948  0.0957 -0.0498
   46MOL    C8612776   3.556   7.614   6.661  0.3092 -0.6321  0.2573
   46MOL    C8712777   3.464   7.601   6.768  0.3716  0.1463  0.3515
   46MOL    C8812778   3.385   7.485   6.783 -0.1875  0.2883  0.0675
   46MOL    C8912779   3.400   7.380   6.690  0.1235 -0.4925 -0.1531
   46MOL    C9012780   3.328   7.254   6.710 -0.1309 -0.0044 -0.2300
   46MOL    C9112781   3.230   7.221   6.793 -0.4942  0.3624 -0.5294
   46MOL    C9212782   3.502   7.390   6.589  0.1395  0.1520  0.7388
   46MOL    C9312783   3.572   7.510   6.567 -0.4109 -0.0781 -0.9314
   46MOL    H9412784   3.449   7.684   6.835 -0.5462  1.3390 -1.3162
   46MOL    H9512785   3.315   7.482   6.865  0.0145  2.1004  0.3391
   46MOL    H9612786   3.346   7.175   6.638 -0.3378  1.3472 -1.7854
   46MOL    H9712787   3.184   7.286   6.866  2.3572 -0.5077  2.1419
   46MOL    H9812788   3.506   7.309   6.517 -0.6480 -0.4424  1.3504
   46MOL    H9912789   3.644   7.516   6.487 -0.4758 -1.6791 -1.1378
   46MOL   C10012790   3.172   7.084   6.792 -0.5575 -0.5381  0.0476
   46MOL   C10112791   3.247   6.967   6.764  0.7050 -0.0875  0.4752
   46MOL   C10212792   3.188   6.839   6.760 -0.8503 -0.5907 -1.0103
   46MOL   C10312793   3.048   6.821   6.791 -0.3109 -0.9420  0.5694
   46MOL   C10412794   2.979   6.694   6.793 -0.0613 -0.2792 -0.1232
   46MOL   C10512795   3.031   6.569   6.805  1.0269 -0.8862  0.1846
   46MOL   C10612796   2.974   6.946   6.815 -0.7300 -0.4834  0.7349
   46MOL   C10712797   3.042   7.070   6.815  0.0403 -0.1262  0.2366
   46MOL   H10812798   3.352   6.968   6.737  0.2906 -1.9406 -1.3480
   46MOL   H10912799   3.244   6.749   6.737  0.9541  0.3336 -0.2869
   46MOL   H11012800   2.871   6.701   6.787 -0.0869  1.8373  1.8586
   46MOL   H11112801   3.138   6.555   6.803  1.0749 -0.4322 -2.1442
   46MOL   H11212802   2.867   6.942   6.830 -1.0724 -1.0203 -1.6581
   46MOL   H11312803   2.984   7.158   6.838 -0.1272 -0.3213  0.5705
   46MOL   C11412804   2.957   6.444   6.798 -0.5417 -0.2415 -0.0992
   46MOL   C11512805   3.030   6.324   6.787 -0.5132  0.1682  0.1042
   46MOL   C11612806   2.967   6.197   6.781 -0.8956  0.1722 -0.6560
   46MOL   C11712807   2.829   6.192   6.793  0.9367 -0.0722 -0.1962
   46MOL   C11812808   2.761   6.063   6.811  0.5347  0.3677 -0.4217
   46MOL   C11912809   2.818   5.943   6.822  0.5294  0.0664  0.1157
   46MOL   C12012810   2.754   6.310   6.798  0.5725 -0.3946  0.6319
   46MOL   C12112811   2.818   6.432   6.800  0.6706  0.3268 -0.0208
   46MOL   H12212812   3.138   6.326   6.781 -0.4527  0.2512  1.1785
   46MOL   H12312813   3.025   6.108   6.765  0.5807  0.7255  1.5436
   46MOL   H12412814   2.653   6.067   6.818  0.4880  1.6259 -1.7742
   46MOL   H12512815   2.926   5.936   6.820  0.4996 -0.3083 -0.4691
   46MOL   H12612816   2.649   6.318   6.822  1.2836  3.3368  2.9006
   46MOL   H12712817   2.756   6.518   6.818  0.9468  0.3183  0.9696
   46MOL   C12812818   2.748   5.811   6.843  1.0523  0.4144  0.2097
   46MOL   C12912819   2.612   5.786   6.821  0.1247 -0.4819  0.2464
   46MOL   C13012820   2.550   5.662   6.852 -0.2842 -1.4576  0.3441
   46MOL   C13112821   2.636   5.558   6.899 -0.4395  0.0051  0.0999
   46MOL   C13212822   2.598   5.426   6.943 -0.8506  0.2011  0.5670
   46MOL   C13312823   2.481   5.362   6.924 -0.4841  0.2463 -0.7973
   46MOL   C13412824   2.773   5.588   6.922 -0.1161 -0.1110 -0.7988
   46MOL   C13512825   2.828   5.713   6.901  0.4648  0.0586  0.2197
   46MOL   H13612826   2.549   5.872   6.801  1.0515  0.3727  0.9424
   46MOL   H13712827   2.444   5.656   6.831 -0.4061  2.5113 -0.5408
   46MOL   H13812828   2.678   5.381   6.999 -0.6440 -1.1363 -0.7785
   46MOL   H13912829   2.400   5.404   6.866 -0.1941  1.2389 -0.4921
   46MOL   H14012830   2.833   5.515   6.975 -2.2445 -1.6854 -0.5179
   46MOL   H14112831   2.933   5.724   6.923 -0.0697 -0.0911  2.9884
   46MOL   C14212832   2.441   5.231   6.977 -0.2648  0.4839  0.2597
   46MOL   C14312833   2.316   5.176   6.932  0.0814 -0.4679 -0.0780
   46MOL   C14412834   2.266   5.058   6.990 -0.0676 -0.5179 -0.2449
   46MOL   C14512835   2.336   4.991   7.091 -0.8692  1.0191  0.6368
   46MOL   C14612836   2.285   4.876   7.173 -0.0408 -0.9922 -0.6391
   46MOL   C14712837   2.157   4.840   7.171 -0.1035 -0.2001 -0.5743
   46MOL   C14812838   2.471   5.034   7.120 -0.4331 -0.1153 -0.0378
   46MOL   C14912839   2.517   5.154   7.069 -0.0460  0.4440 -0.0133
   46MOL   H15012840   2.258   5.227   6.856 -2.8968  0.2886  2.6317
   46MOL   H15112841   2.174   5.016   6.953 -0.7148  1.4152 -0.9077
   46MOL   H15212842   2.363   4.823   7.227  0.2206 -2.1308 -2.1148
   46MOL   H15312843   2.087   4.893   7.109 -0.8454 -1.2338 -0.6256
   46MOL   H15412844   2.535   4.978   7.187  2.1042  0.3111 -2.0448
   46MOL   H15512845   2.612   5.199   7.096  0.0811  1.3210 -1.8994
   46MOL   C15612846   2.084   4.740   7.254 -0.1152 -0.0718 -0.9354
   46MOL   C15712847   2.150   4.645   7.333 -0.4228  0.4968  0.0426
   46MOL   C15812848   2.075   4.560   7.424  0.1724 -0.2822 -0.0034
   46MOL   C15912849   1.934   4.569   7.431  0.1417 -0.0644  0.2698
   46MOL   C16012850   1.853   4.491   7.526 -0.3858 -0.9621 -0.5648
   46MOL   C16112851   1.721   4.489   7.531 -0.0993 -0.1073 -0.0083
   46MOL   C16212852   1.872   4.670   7.350 -0.1320  0.1272  0.3694
   46MOL   C16312853   1.944   4.755   7.260  0.0992 -0.1589 -0.3707
   46MOL   H16412854   2.258   4.638   7.321 -0.4790  1.5830 -1.1418
   46MOL   H16512855   2.118   4.488   7.493  0.7876  0.7405  0.6829
   46MOL   H16612856   1.913   4.443   7.601  1.6843 -0.5149 -1.8877
   46MOL   H16712857   1.671   4.549   7.457 -1.2112 -3.1512 -1.7742
   46MOL   H16812858   1.766   4.689   7.340 -0.0810 -0.7614 -2.3444
   46MOL   H16912859   1.889   4.821   7.195  1.1599  0.4442 -0.6557
   46MOL   C17012860   1.633   4.422   7.627 -0.9330  0.1523 -0.0605
   46MOL   C17112861   1.491   4.449   7.619 -0.1160  0.2097 -0.9885
   46MOL   C17212862   1.396   4.377   7.694  0.5583 -0.2624  0.0624
   46MOL   C17312863   1.447   4.277   7.781  0.1289 -0.2854 -1.2845
   46MOL   C17412864   1.352   4.191   7.845  0.0660 -0.0908  0.3483
   46MOL   C17512865   1.376   4.075   7.906 -0.4196 -0.4679  0.2962
   46MOL   C17612866   1.585   4.260   7.800 -0.2328  0.2925 -0.0881
   46MOL   C17712867   1.679   4.338   7.725  0.5788  0.0724 -0.2925
   46MOL   H17812868   1.451   4.509   7.539  0.4681  3.6812  1.1923
   46MOL   H17912869   1.293   4.402   7.677  0.4799 -0.0352  0.8597
   46MOL   H18012870   1.252   4.233   7.841  0.9401  1.9324 -0.9789
   46MOL   H18112871   1.479   4.044   7.914  0.3629  1.8133 -0.5748
   46MOL   H18212872   1.632   4.194   7.872  2.1471  2.8434  0.7565
   46MOL   H18312873   1.787   4.329   7.732  0.6460  1.8293  1.0822
   46MOL   C18412874   1.279   3.987   7.965 -0.4635 -0.0338  0.1418
   46MOL   C18512875   1.158   4.033   8.016 -0.1077 -0.8171 -0.5105
   46MOL   C18612876   1.062   3.938   8.058 -0.3438 -0.3854  0.1050
   46MOL   C18712877   1.088   3.800   8.055 -0.2797  0.3653 -0.6869
   46MOL   C18812878   0.982   3.709   8.114 -0.0680  0.0996 -0.5359
   46MOL   C18912879   0.994   3.576   8.133  0.6978 -0.3760 -0.3997
   46MOL   C19012880   1.215   3.753   8.020  0.0680  0.1149  0.1266
   46MOL   C19112881   1.306   3.845   7.970  0.3185 -0.1982 -0.6656
   46MOL   H19212882   1.145   4.140   8.015  0.3104 -0.7658 -0.8385
   46MOL   H19312883   0.963   3.977   8.079  0.0324  0.6786 -0.0842
   46MOL   H19412884   0.885   3.754   8.132  0.3163  1.2370 -1.2607
   46MOL   H19512885   1.090   3.532   8.112  0.5320  1.1600 -4.9244
   46MOL   H19612886   1.228   3.646   8.022 -3.0904 -0.3715 -1.3319
   46MOL   H19712887   1.396   3.799   7.933 -0.1161 -1.2440 -0.4507
   46MOL   C19812888   0.892   3.488   0.034  0.0478  0.2930 -0.5366
   46MOL   C19912889   0.909   3.349   0.014 -0.2167  0.5886 -0.4117
   46MOL   C20012890   0.812   3.258   0.059 -0.1824 -0.6748 -0.9413
   46MOL   C20112891   0.698   3.308   0.121  0.1451  0.0899 -0.0053
   46MOL   C20212892   0.582   3.224   0.164  0.6556 -0.1447 -0.0096
   46MOL   C20312893   0.554   3.109   0.097 -0.1011  0.4126 -0.1056
   46MOL   C20412894   0.674   3.448   0.123  0.0515  0.3665 -0.2041
   46MOL   C20512895   0.775   3.537   0.091  0.1450  0.2850  0.0010
   46MOL   H20612896   0.998   3.315   8.106 -1.6990 -0.5088 -2.3152
   46MOL   H20712897   0.834   3.154   0.038 -0.2361 -0.0615 -4.2933
   46MOL   H20812898   0.523   3.245   0.252 -0.2386 -0.9381 -0.4117
   46MOL   H20912899   0.617   3.094   0.011 -0.9283  3.1233 -1.2388
   46MOL   H21012900   0.584   3.489   0.168 -2.0166 -3.1395 -0.9033
   46MOL   H21112901   0.747   3.640   0.105  0.1712  0.3084 -0.1172
   46MOL   C21212902   0.448   3.011   0.132 -0.0024 -0.4190 -0.5164
   46MOL   C21312903   0.425   2.898   0.050 -0.0127 -0.9385 -0.7663
   46MOL   C21412904   0.311   2.816   0.073  0.3759  0.1961  0.1317
   46MOL   C21512905   0.235   2.837   0.190 -0.1119  1.5236  0.2354
   46MOL   C21612906   0.111   2.758   0.196  0.7249  0.4674 -0.5479
   46MOL   C21712907   8.141   2.803   0.258  0.2826  0.4731 -0.1652
   46MOL   C21812908   0.272   2.937   0.286 -0.6121 -0.1904 -0.1977
   46MOL   C21912909   0.371   3.025   0.253  0.1727  0.3321  0.0815
   46MOL   H22012910   0.496   2.865   8.119  2.7976 -1.7945  2.1549
   46MOL   H22112911   0.293   2.736   0.002  0.7381 -0.2127  0.5020
   46MOL   H22212912   0.120   2.659   0.152 -2.1739 -0.7143  1.3827
   46MOL   H22312913   0.004   2.899   0.306  1.0092  0.7415 -0.7969
   46MOL   H22412914   0.220   2.946   0.381  0.4893  4.4090  0.0524
   46MOL   H22512915   0.393   3.099   0.329  1.2783  0.6405 -0.5354
   46MOL   C22612916   8.003   2.741   0.260 -0.4140  0.3484  0.3572
   46MOL   C22712917   7.902   2.788   0.338  0.4850  0.8401  1.3183
   46MOL   C22812918   7.771   2.732   0.323 -0.1394 -0.5695  0.2343
   46MOL   C22912919   7.739   2.648   0.215 -0.2466  0.5156  0.5712
   46MOL   C23012920   7.601   2.599   0.198  0.1185 -0.8152 -0.7326
   46MOL   C23112921   7.485   2.629   0.268 -0.1322  0.2026 -0.0000
   46MOL   C23212922   7.846   2.600   0.137  0.5766 -0.0603 -0.3588
   46MOL   C23312923   7.972   2.653   0.158  0.2826  0.3327 -0.5047
   46MOL   H23412924   7.910   2.871   0.407  1.4015  0.3788  1.7693
   46MOL   H23512925   7.689   2.757   0.389  0.4092  0.1540  0.6589
   46MOL   H23612926   7.584   2.524   0.122  1.6580 -2.2776  0.3529
   46MOL   H23712927   7.491   2.701   0.349 -1.8470  0.2178  0.1154
   46MOL   H23812928   7.832   2.526   0.059 -2.4249 -1.5215  1.4860
   46MOL   H23912929   8.046   2.618   0.087  1.2020  0.5458  0.3442
   46MOL   C24012930   7.353   2.558   0.243  0.3329 -0.1028  0.6811
   46MOL   C24112931   7.239   2.616   0.296  0.7526  0.4577  0.4204
   46MOL   C24212932   7.111   2.570   0.261 -0.2235 -0.7834 -0.2908
   46MOL   C24312933   7.098   2.455   0.179 -0.4845 -0.3585 -0.2077
   46MOL   C24412934   6.970   2.401   0.130  0.4390 -0.1955 -0.2729
   46MOL   C24512935   6.848   2.460   0.148 -0.2227 -0.2831  0.2089
   46MOL   C24612936   7.216   2.388   0.133  0.2845 -0.2307  0.8634
   46MOL   C24712937   7.344   2.443   0.161  0.3903 -0.2177 -0.3337
   46MOL   H24812938   7.256   2.696   0.367  0.0996  1.1464 -0.1960
   46MOL   H24912939   7.026   2.622   0.304 -1.2382 -1.1973 -1.7487
   46MOL   H25012940   6.973   2.313   0.067 -2.2073 -0.2883 -0.3407
   46MOL   H25112941   6.848   2.547   0.212  2.1533 -1.2306  1.5673
   46MOL   H25212942   7.206   2.305   0.065  0.9779  1.8461 -1.8809
   46MOL   H25312943   7.428   2.387   0.123  0.5470  0.2915 -0.7306
   46MOL   C25412944   6.724   2.408   0.101 -0.5656 -0.2207  0.6970
   46MOL   C25512945   6.713   2.275   0.049 -0.1220  0.0591  0.5805
   46MOL   C25612946   6.581   2.224   0.021 -0.3153  0.2330 -0.3882
   46MOL   C25712947   6.463   2.304   0.042  0.6767 -0.0985  0.4566
   46MOL   C25812948   6.327   2.253   0.028 -0.2895 -0.0765  0.1339
   46MOL   C25912949   6.214   2.295   8.116 -0.2954  0.5906  0.6471
   46MOL   C26012950   6.486   2.442   0.060  0.3800  0.0097 -0.6096
   46MOL   C26112951   6.611   2.491   0.104 -0.0108 -0.5348 -0.3732
   46MOL   H26212952   6.788   2.198   0.051  1.6240  1.6726 -0.8638
   46MOL   H26312953   6.554   2.123   8.137  1.9604 -0.4996 -0.0737
   46MOL   H26412954   6.310   2.159   0.079 -2.8291  0.6436  0.6901
   46MOL   H26512955   6.135   2.223   8.133  0.1946  0.0593  0.7044
   46MOL   H26612956   6.403   2.511   0.059 -0.3810 -0.8723  0.0885
   46MOL   H26712957   6.612   2.599   0.104  0.4749 -0.5337 -1.1411
   46MOL   C26812958   6.194   2.421   8.040  0.8970  0.4932 -0.3001
   46MOL   C26912959   6.298   2.479   7.970 -0.3146 -0.2047 -1.0462
   46MOL   C27012960   6.277   2.589   7.896  0.0585 -0.3769 -1.3930
   46MOL   C27112961   6.150   2.654   7.893  0.0859  0.7630  0.0880
   46MOL   C27212962   6.130   2.783   7.821  0.2640 -0.3705 -0.0921
   46MOL   C27312963   6.213   2.891   7.808 -0.2286 -0.2972 -0.3584
   46MOL   C27412964   6.043   2.591   7.960  0.1194  0.0620  0.7542
   46MOL   C27512965   6.064   2.474   8.031 -0.3574  0.0793 -0.2341
   46MOL   H27612966   6.400   2.444   7.966  0.8304  2.6724  1.2130
   46MOL   H27712967   6.364   2.626   7.843  0.1883  0.7266 -0.4397
   46MOL   H27812968   6.039   2.800   7.766  0.2667  0.8774  0.2782
   46MOL   H27912969   6.307   2.902   7.861 -2.1104 -0.0758  3.0319
   46MOL   H28012970   5.941   2.621   7.947 -0.0936 -0.7605  0.4621
   46MOL   H28112971   5.979   2.427   8.079 -1.1252  0.5566 -1.1144
   46MOL   H28212972   6.188   2.973   7.744  0.9003 -1.3886 -2.2601
   47MOL     C112973   3.544   5.693   5.176 -0.2718 -0.2704 -0.1646
   47MOL     C212974   3.535   5.803   5.093  0.2079  0.2928  0.0392
   47MOL     C312975   3.415   5.873   5.082  0.4257  0.0245 -0.5271
   47MOL     C412976   3.300   5.830   5.152  0.6534 -0.3158  0.5364
   47MOL     C512977   3.175   5.909   5.147  0.1435 -0.2253 -0.3132
   47MOL     C612978   3.060   5.880   5.204  0.3220 -0.0028  0.1082
   47MOL     C712979   3.315   5.724   5.230  0.5789 -0.1372  0.4193
   47MOL     C812980   3.432   5.653   5.252  0.1241 -0.3315  0.2179
   47MOL     H912981   3.628   5.842   5.055 -0.5501  0.9828 -1.1270
   47MOL    H1012982   3.425   5.965   5.026  1.5575 -0.3056 -0.8770
   47MOL    H1112983   3.185   6.000   5.089 -2.0596 -0.1759 -0.6525
   47MOL    H1212984   3.053   5.793   5.268  2.0170 -0.3901 -0.2128
   47MOL    H1312985   3.232   5.697   5.295  0.5493 -1.1268 -0.0190
   47MOL    H1412986   3.437   5.568   5.318 -0.8453 -0.6191 -0.0755
   47MOL    H1512987   3.639   5.646   5.197 -1.2917 -1.2599  2.3785
   47MOL    C1612988   2.937   5.956   5.201  0.1151  0.4509 -0.2483
   47MOL    C1712989   2.918   6.087   5.145  0.3924  0.0199 -0.3901
   47MOL    C1812990   2.795   6.150   5.148  0.1348 -0.4413  0.3779
   47MOL    C1912991   2.683   6.073   5.187  0.4048 -0.0926  0.1406
   47MOL    C2012992   2.550   6.133   5.183  0.3593 -0.4097  0.5459
   47MOL    C2112993   2.433   6.079   5.226 -0.1078  0.4675 -0.5599
   47MOL    C2212994   2.690   5.944   5.235 -0.4292 -0.4432 -0.3701
   47MOL    C2312995   2.819   5.886   5.243 -0.1885  0.0452 -0.0348
   47MOL    H2412996   3.001   6.135   5.096  1.1422 -1.1427 -0.2892
   47MOL    H2512997   2.780   6.247   5.103  0.2803 -0.4495  0.3095
   47MOL    H2612998   2.552   6.232   5.139 -1.4567 -0.3738  0.4877
   47MOL    H2712999   2.428   5.976   5.258 -0.8069  0.3695 -0.9687
   47MOL    H2813000   2.605   5.904   5.287 -1.7090  1.5487 -0.8922
   47MOL    H2913001   2.826   5.788   5.286 -1.5311 -0.8774 -1.8624
   47MOL    C3013002   2.305   6.153   5.240  0.1973  0.5132  0.7126
   47MOL    C3113003   2.285   6.277   5.177 -0.0364  0.0659  0.0206
   47MOL    C3213004   2.157   6.344   5.189 -0.0552  0.3294 -0.5291
   47MOL    C3313005   2.044   6.273   5.236 -0.5751  0.3003 -0.6888
   47MOL    C3413006   1.910   6.315   5.207  0.5085  0.4930 -0.3017
   47MOL    C3513007   1.799   6.238   5.200  0.8803 -0.6165  0.4690
   47MOL    C3613008   2.070   6.150   5.303 -0.3726  0.2682  0.3464
   47MOL    C3713009   2.194   6.088   5.304  0.6350 -0.6808 -0.0056
   47MOL    H3813010   2.359   6.331   5.119  1.3633 -1.0280  0.7646
   47MOL    H3913011   2.130   6.436   5.139  0.2264  0.2221 -0.8879
   47MOL    H4013012   1.893   6.421   5.194  1.9379  0.6361 -1.0177
   47MOL    H4113013   1.792   6.132   5.223 -2.3875 -0.1257  2.0051
   47MOL    H4213014   1.981   6.102   5.340  1.8881 -2.5474  2.3575
   47MOL    H4313015   2.200   5.994   5.358  0.1777 -0.8650 -0.2676
   47MOL    C4413016   1.662   6.292   5.177 -0.7337 -0.7537  0.2696
   47MOL    C4513017   1.560   6.199   5.141 -0.5187  0.3525  0.3893
   47MOL    C4613018   1.429   6.241   5.114 -0.3849  0.3840  0.5477
   47MOL    C4713019   1.398   6.383   5.127  0.0113  0.6331  0.1705
   47MOL    C4813020   1.261   6.431   5.117 -0.5678 -0.2388 -0.1004
   47MOL    C4913021   1.160   6.354   5.077 -0.2273  0.3227  0.0495
   47MOL    C5013022   1.496   6.472   5.166  0.7277  0.1827 -0.2758
   47MOL    C5113023   1.629   6.432   5.188 -0.2983 -0.4354 -0.0610
   47MOL    H5213024   1.583   6.094   5.134 -1.3853  0.2266 -0.6078
   47MOL    H5313025   1.349   6.171   5.099 -0.8992  1.0542  0.1170
   47MOL    H5413026   1.240   6.529   5.157  2.0493  1.0392 -1.7142
   47MOL    H5513027   1.165   6.252   5.041 -1.0820  0.2549  0.1251
   47MOL    H5613028   1.462   6.573   5.185  1.6447  0.2926  0.7870
   47MOL    H5713029   1.697   6.511   5.215 -0.6181 -0.7727  1.7786
   47MOL    C5813030   1.023   6.402   5.078  0.4049  0.5711 -0.8302
   47MOL    C5913031   0.989   6.537   5.077 -0.3282  0.1511 -0.4250
   47MOL    C6013032   0.849   6.577   5.091  0.7887 -1.0048  0.3143
   47MOL    C6113033   0.748   6.480   5.109  0.5743 -0.1860 -0.3463
   47MOL    C6213034   0.609   6.525   5.134  0.3036 -0.2350 -0.0909
   47MOL    C6313035   0.554   6.650   5.149 -0.3158 -0.8480  0.2401
   47MOL    C6413036   0.782   6.343   5.106 -0.0901 -0.0370 -0.0848
   47MOL    C6513037   0.917   6.305   5.097 -0.0172 -0.0623  0.3842
   47MOL    H6613038   1.065   6.614   5.080  1.2577 -1.4307  1.9526
   47MOL    H6713039   0.833   6.684   5.089  0.0865 -1.0860  1.1874
   47MOL    H6813040   0.538   6.443   5.132 -0.2196  0.2323 -1.1055
   47MOL    H6913041   0.627   6.730   5.153  2.0524 -2.9148 -0.2413
   47MOL    H7013042   0.709   6.265   5.126 -0.2943  0.1072 -0.2735
   47MOL    H7113043   0.933   6.199   5.102 -4.5954 -0.9220 -1.4140
   47MOL    C7213044   0.409   6.686   5.155  0.1234  0.0108  0.3230
   47MOL    C7313045   0.303   6.590   5.166  0.1988  0.2699  0.1253
   47MOL    C7413046   0.174   6.641   5.194 -0.1823  0.4267 -0.3308
   47MOL    C7513047   0.144   6.775   5.210 -0.4773  0.1917  0.4319
   47MOL    C7613048   0.006   6.801   5.262 -0.8162 -0.0174 -0.1541
   47MOL    C7713049   8.100   6.917   5.308 -0.5921  0.1750  0.4497
   47MOL    C7813050   0.250   6.862   5.209  0.1930  0.6127  0.0211
   47MOL    C7913051   0.381   6.820   5.173 -0.0653  0.0537 -0.6964
   47MOL    H8013052   0.318   6.484   5.152 -2.9782 -0.5110  2.3275
   47MOL    H8113053   0.100   6.565   5.209  0.7583 -0.5675 -0.6702
   47MOL    H8213054   8.083   6.718   5.248  1.6426 -2.0156 -0.4638
   47MOL    H8313055   0.030   6.995   5.310  1.7897 -1.9096 -2.0985
   47MOL    H8413056   0.235   6.968   5.228 -1.5429  0.5909 -1.0775
   47MOL    H8513057   0.459   6.894   5.170  0.4683 -0.2308  3.2161
   47MOL    C8613058   7.969   6.943   5.352  1.3037 -0.3721  0.0212
   47MOL    C8713059   7.906   7.058   5.309 -0.2084  0.2195 -0.0338
   47MOL    C8813060   7.771   7.080   5.344 -0.0063  0.0953  0.0169
   47MOL    C8913061   7.701   6.980   5.426  0.2215  0.3506 -0.4318
   47MOL    C9013062   7.557   6.999   5.456 -0.3815  0.5763 -0.1911
   47MOL    C9113063   7.479   6.917   5.536  0.0078  0.1458  0.6458
   47MOL    C9213064   7.769   6.867   5.469 -0.4598  0.2441 -0.0497
   47MOL    C9313065   7.897   6.845   5.425 -0.5885  0.6014 -0.2001
   47MOL    H9413066   7.955   7.136   5.254  1.6164 -0.8603 -0.0018
   47MOL    H9513067   7.727   7.171   5.306 -0.9019 -0.8144 -1.1794
   47MOL    H9613068   7.514   7.085   5.406 -0.7867  0.0953 -0.6735
   47MOL    H9713069   7.516   6.831   5.591  0.5411  0.0163  0.0930
   47MOL    H9813070   7.718   6.800   5.537  0.6323 -0.2278  0.3164
   47MOL    H9913071   7.953   6.754   5.440  2.0379  2.0412 -1.0830
   47MOL   C10013072   7.328   6.921   5.548 -0.2954  0.5043 -0.1177
   47MOL   C10113073   7.262   6.826   5.630  0.0596  0.2770  0.2017
   47MOL   C10213074   7.119   6.825   5.635  0.1468 -0.1917  0.3334
   47MOL   C10313075   7.048   6.930   5.577 -0.0952 -0.0151 -0.4128
   47MOL   C10413076   6.904   6.930   5.593  0.8204  0.4236 -0.1884
   47MOL   C10513077   6.814   7.017   5.541  0.0302 -0.5705 -0.3996
   47MOL   C10613078   7.112   7.025   5.506 -0.2625  0.0701 -0.8099
   47MOL   C10713079   7.254   7.021   5.491 -0.3470  0.5212  0.7498
   47MOL   H10813080   7.322   6.758   5.689  0.0969  1.5818  1.6888
   47MOL   H10913081   7.068   6.753   5.699 -0.4196 -1.1252 -1.1431
   47MOL   H11013082   6.871   6.856   5.664  1.2023 -0.6388 -1.1021
   47MOL   H11113083   6.840   7.093   5.468  0.8497  0.8782  1.3728
   47MOL   H11213084   7.064   7.107   5.454  1.1601  0.7791 -1.0415
   47MOL   H11313085   7.303   7.092   5.426 -0.4307 -0.3181 -0.2585
   47MOL   C11413086   6.673   7.008   5.579  0.1200  0.0393  1.5203
   47MOL   C11513087   6.597   7.129   5.607  0.1528  0.6579  0.4155
   47MOL   C11613088   6.462   7.126   5.651  0.3087 -0.3622  0.0023
   47MOL   C11713089   6.400   7.000   5.677  0.0159 -0.3973  0.1176
   47MOL   C11813090   6.265   7.000   5.730 -0.2109  0.7182 -0.1312
   47MOL   C11913091   6.222   6.892   5.798 -0.4526  0.2299  0.3769
   47MOL   C12013092   6.474   6.882   5.659 -0.1581  0.0889  0.5232
   47MOL   C12113093   6.610   6.887   5.615 -0.5896 -0.0923 -0.4004
   47MOL   H12213094   6.651   7.223   5.604 -0.7401  1.1175 -2.4138
   47MOL   H12313095   6.407   7.219   5.657  0.8208 -0.0744  0.2596
   47MOL   H12413096   6.199   7.081   5.703  1.8857  3.3453  2.2913
   47MOL   H12513097   6.291   6.812   5.821 -0.5608 -0.0132 -0.1339
   47MOL   H12613098   6.441   6.782   5.686 -1.4422  0.6714  1.1612
   47MOL   H12713099   6.666   6.795   5.602  2.5539  1.7455 -0.3957
   47MOL   C12813100   6.087   6.870   5.861 -0.6250 -0.3218 -0.5029
   47MOL   C12913101   6.072   6.762   5.950  0.0230  0.9258  0.0452
   47MOL   C13013102   5.953   6.749   6.024 -0.4565 -0.0704  0.0750
   47MOL   C13113103   5.845   6.837   6.007 -0.2232 -0.0111  0.4859
   47MOL   C13213104   5.725   6.817   6.090  0.1635  0.2718  0.5883
   47MOL   C13313105   5.622   6.905   6.096  0.6099 -0.0670 -0.0130
   47MOL   C13413106   5.850   6.934   5.900 -0.1791 -0.4314 -1.5419
   47MOL   C13513107   5.971   6.949   5.836 -0.1407 -0.3390 -0.0388
   47MOL   H13613108   6.155   6.699   5.974 -1.7762 -0.7859  1.9332
   47MOL   H13713109   5.948   6.671   6.098  2.2549 -0.1132  0.2857
   47MOL   H13813110   5.712   6.731   6.154 -0.1169  0.0897  0.2878
   47MOL   H13913111   5.630   6.994   6.036  0.7285  0.0147  0.1248
   47MOL   H14013112   5.772   7.006   5.876 -1.0022 -0.4660  0.9114
   47MOL   H14113113   5.983   7.032   5.768  0.8722  0.1969  0.7943
   47MOL   C14213114   5.504   6.896   6.186  0.5433  0.3278  0.3035
   47MOL   C14313115   5.387   6.965   6.147 -0.0303  0.1869 -0.2345
   47MOL   C14413116   5.275   6.969   6.228  0.1825 -0.1295 -0.3103
   47MOL   C14513117   5.281   6.916   6.357  0.6832 -0.3258  0.5170
   47MOL   C14613118   5.156   6.922   6.439 -0.0034  1.3261  0.3513
   47MOL   C14713119   5.136   6.848   6.552 -0.5956  0.3734  0.0559
   47MOL   C14813120   5.397   6.846   6.393 -0.1507  0.9056  0.3197
   47MOL   C14913121   5.511   6.836   6.309  1.2279 -0.0655  0.2399
   47MOL   H15013122   5.387   7.005   6.046 -2.2049 -1.8180 -1.0721
   47MOL   H15113123   5.184   7.020   6.197 -0.3696  0.6122  2.3524
   47MOL   H15213124   5.074   6.983   6.403 -1.5767  0.1032  1.7747
   47MOL   H15313125   5.210   6.778   6.588 -0.9053  0.6995  1.3496
   47MOL   H15413126   5.398   6.791   6.486 -0.0493 -1.5927 -1.1276
   47MOL   H15513127   5.602   6.786   6.339  1.2714 -1.1964 -1.7181
   47MOL   C15613128   5.018   6.837   6.632  0.3645 -0.0313 -0.4388
   47MOL   C15713129   4.892   6.881   6.578  0.8372  0.1211 -0.6271
   47MOL   C15813130   4.774   6.864   6.655 -0.1788 -0.1461  0.3238
   47MOL   C15913131   4.783   6.816   6.786 -0.0961  0.4696 -0.2530
   47MOL   C16013132   4.665   6.813   6.869  0.1339  0.4093 -0.7147
   47MOL   C16113133   4.656   6.806   7.000  0.2734  0.0202  0.6571
   47MOL   C16213134   4.910   6.771   6.840  0.4187 -0.2636  0.3685
   47MOL   C16313135   5.024   6.772   6.755 -0.1508  0.0596 -0.3371
   47MOL   H16413136   4.882   6.930   6.482  0.3839 -1.7535 -1.5635
   47MOL   H16513137   4.681   6.900   6.613 -0.2232 -0.6038  0.0298
   47MOL   H16613138   4.576   6.816   6.809 -0.5617 -0.7694  0.2201
   47MOL   H16713139   4.746   6.803   7.060 -0.2910 -0.2297  1.4925
   47MOL   H16813140   4.919   6.729   6.939 -1.0556 -0.4787  0.4324
   47MOL   H16913141   5.115   6.738   6.802 -0.8573  1.2328  1.9633
   47MOL   C17013142   4.533   6.815   7.077  0.1771 -0.9696  0.5166
   47MOL   C17113143   4.531   6.885   7.200 -0.3691 -0.9692  0.5051
   47MOL   C17213144   4.414   6.885   7.278 -0.5194  0.9344  0.3132
   47MOL   C17313145   4.294   6.820   7.231 -0.8520  0.0977 -0.0819
   47MOL   C17413146   4.176   6.832   7.315  0.5594  0.1546 -0.2988
   47MOL   C17513147   4.044   6.793   7.298  0.4628 -0.4158 -0.3101
   47MOL   C17613148   4.296   6.758   7.102 -0.3021 -0.5322 -0.5088
   47MOL   C17713149   4.417   6.751   7.031  0.0220  0.2687  0.5234
   47MOL   H17813150   4.628   6.919   7.233 -1.2075  1.7363  0.2785
   47MOL   H17913151   4.413   6.936   7.374  0.5996 -1.2809  1.5409
   47MOL   H18013152   4.202   6.878   7.410 -1.6559 -0.9137  0.8464
   47MOL   H18113153   4.021   6.738   7.207 -2.4807  0.8254 -0.3595
   47MOL   H18213154   4.205   6.716   7.061 -0.7728  0.5723 -0.6258
   47MOL   H18313155   4.416   6.702   6.935 -0.5822  1.4242 -0.0704
   47MOL   C18413156   3.925   6.819   7.385  0.3631  0.9083  0.4499
   47MOL   C18513157   3.799   6.773   7.348 -0.1195 -0.0099  0.1527
   47MOL   C18613158   3.688   6.797   7.429 -0.0439  0.1442 -0.6859
   47MOL   C18713159   3.697   6.867   7.553 -0.5789 -0.9636 -1.0227
   47MOL   C18813160   3.576   6.915   7.620 -0.1576 -0.1387 -0.0954
   47MOL   C18913161   3.579   6.987   7.732  0.2320 -0.2618 -0.6721
   47MOL   C19013162   3.828   6.905   7.591  0.4365  0.4496 -0.0393
   47MOL   C19113163   3.936   6.884   7.507 -0.0096  0.3306 -0.7809
   47MOL   H19213164   3.798   6.718   7.255  0.0886  1.7135 -0.8866
   47MOL   H19313165   3.588   6.768   7.397 -0.9838  0.2281  2.0604
   47MOL   H19413166   3.485   6.882   7.572 -0.8007 -0.5144  1.3773
   47MOL   H19513167   3.669   7.017   7.784  0.3431  0.8256 -1.4781
   47MOL   H19613168   3.862   6.957   7.679  0.7117  1.7105 -0.8887
   47MOL   H19713169   4.029   6.930   7.539 -1.0233  2.2413 -0.4928
   47MOL   C19813170   3.464   7.036   7.801 -0.5526 -0.1484 -0.3504
   47MOL   C19913171   3.332   6.993   7.779 -0.2901 -0.0784 -0.2320
   47MOL   C20013172   3.223   7.055   7.847  0.4810  0.2221  0.3038
   47MOL   C20113173   3.239   7.174   7.921  0.3276 -0.2040  0.1013
   47MOL   C20213174   3.131   7.262   7.957  0.0671  0.3395 -0.5149
   47MOL   C20313175   3.149   7.389   8.007 -0.8193  0.2366  0.1525
   47MOL   C20413176   3.375   7.205   7.947  0.6330 -0.3124 -0.0819
   47MOL   C20513177   3.488   7.139   7.890  0.0826 -0.5681 -0.3798
   47MOL   H20613178   3.315   6.915   7.707  0.7907 -0.9802  0.4842
   47MOL   H20713179   3.124   7.017   7.827  1.0189 -2.1880  2.0348
   47MOL   H20813180   3.031   7.222   7.946 -0.5334  1.6432  0.1172
   47MOL   H20913181   3.244   7.436   8.025 -0.2403 -0.3377 -1.3605
   47MOL   H21013182   3.405   7.282   8.017 -0.2090 -0.1763  0.1368
   47MOL   H21113183   3.580   7.191   7.909 -1.0329  0.8742  1.1890
   47MOL   C21213184   3.030   7.475   8.037 -0.3664  0.9724 -0.2296
   47MOL   C21313185   3.053   7.566   0.000 -0.1556 -0.0581  0.3841
   47MOL   C21413186   2.944   7.653   0.044 -0.7139 -0.7324  0.1559
   47MOL   C21513187   2.822   7.640   8.119 -0.2220 -0.1978  0.1114
   47MOL   C21613188   2.713   7.730   0.015  0.0532 -0.6482  0.1117
   47MOL   C21713189   2.588   7.736   8.099 -0.0735  0.4697 -0.1162
   47MOL   C21813190   2.810   7.551   8.007  0.5014 -0.3076  0.2953
   47MOL   C21913191   2.906   7.461   7.980  1.3054 -0.4376  0.1202
   47MOL   H22013192   3.149   7.567   0.051  1.3634  1.7259 -2.3730
   47MOL   H22113193   2.959   7.722   0.126  1.7056 -2.7241  1.4743
   47MOL   H22213194   2.736   7.795   0.098 -2.2087 -0.7469  0.8343
   47MOL   H22313195   2.572   7.667   8.018  0.7590  0.5333 -0.3341
   47MOL   H22413196   2.710   7.540   7.967  0.5726 -0.1248  0.0664
   47MOL   H22513197   2.879   7.384   7.909  0.1633  0.1618 -0.1171
   47MOL   C22613198   2.470   7.811   8.141 -1.1036  0.7216 -0.2169
   47MOL   C22713199   2.354   7.811   8.062  0.3656  0.1869 -0.1786
   47MOL   C22813200   2.237   7.877   8.113  0.5792 -0.2717  1.0113
   47MOL   C22913201   2.236   7.951   0.092  0.0104  0.0249  0.0698
   47MOL   C23013202   2.119   8.026   0.126  0.4115 -0.4548 -0.1343
   47MOL   C23113203   2.109   8.095   0.240  0.0770  0.2739  0.7430
   47MOL   C23213204   2.361   7.964   0.158 -0.2398  0.1124  0.1564
   47MOL   C23313205   2.471   7.886   0.114  0.9320 -0.0414 -0.5166
   47MOL   H23413206   2.346   7.751   7.973  0.5154  3.6254 -2.6249
   47MOL   H23513207   2.150   7.876   8.049  0.0163  0.2490  1.7692
   47MOL   H23613208   2.039   8.025   0.053 -0.4553  0.2366  0.7963
   47MOL   H23713209   2.183   8.087   0.318  0.5718 -0.6310  0.1765
   47MOL   H23813210   2.368   8.030   0.243 -0.8942  0.1707  0.1732
   47MOL   H23913211   2.554   7.889   0.183  2.2515  1.4012 -2.1068
   47MOL   C24013212   1.996   0.049   0.265 -0.0638  0.1396 -0.1945
   47MOL   C24113213   1.871   0.060   0.197  0.2502  0.1082  0.3650
   47MOL   C24213214   1.781   0.163   0.226  0.2845  0.7456  0.3881
   47MOL   C24313215   1.800   0.250   0.341  0.0339  0.3317  0.8377
   47MOL   C24413216   1.697   0.349   0.384  0.5057 -0.4622  0.0535
   47MOL   C24513217   1.716   0.462   0.456  0.1204  0.2800  0.1775
   47MOL   C24613218   1.921   0.234   0.407 -0.2216 -0.3219  0.8670
   47MOL   C24713219   2.021   0.135   0.378 -0.0999 -0.5423  0.5313
   47MOL   H24813220   1.842   0.002   0.111  2.0195  2.8754 -2.1797
   47MOL   H24913221   1.688   0.160   0.170 -0.1145 -2.6432  1.0971
   47MOL   H25013222   1.597   0.323   0.352 -0.0519 -0.3274  1.6495
   47MOL   H25113223   1.818   0.487   0.479  0.2161  0.2512 -0.2053
   47MOL   H25213224   1.932   0.305   0.487 -0.1847  0.3895  0.2336
   47MOL   H25313225   2.112   0.127   0.437 -0.5746  2.9851  1.8174
   47MOL   C25413226   1.623   0.556   0.503  0.7752 -0.2072  0.3047
   47MOL   C25513227   1.484   0.550   0.493  0.2477 -0.2238 -0.0094
   47MOL   C25613228   1.399   0.649   0.550  0.2711  0.3239 -0.3874
   47MOL   C25713229   1.452   0.762   0.615  0.3867  1.3232 -0.4412
   47MOL   C25813230   1.362   0.865   0.670  0.8020 -0.2141 -0.0876
   47MOL   C25913231   1.388   0.969   0.746 -0.2390 -0.2674  0.2070
   47MOL   C26013232   1.593   0.760   0.638 -0.3805 -0.4085 -0.2737
   47MOL   C26113233   1.671   0.663   0.586  0.1985 -0.1186 -0.5907
   47MOL   H26213234   1.439   0.469   0.437 -0.8070 -1.2209  2.1885
   47MOL   H26313235   1.293   0.653   0.531 -0.3106  2.2129  3.0674
   47MOL   H26413236   1.257   0.855   0.647  0.6008 -0.0132  0.7205
   47MOL   H26513237   1.298   1.024   0.768 -0.6591 -0.8196 -0.0947
   47MOL   H26613238   1.643   0.840   0.690 -1.0877 -0.6594  0.8328
   47MOL   H26713239   1.777   0.667   0.605 -0.0888 -2.4323  1.8889
   47MOL   C26813240   1.507   1.030   0.802 -0.5252  0.4406  0.0132
   47MOL   C26913241   1.544   1.158   0.756  0.0257  0.2606  0.1542
   47MOL   C27013242   1.648   1.227   0.821 -0.0818 -0.0089 -0.0557
   47MOL   C27113243   1.720   1.172   0.926 -0.2890  0.1046 -0.9150
   47MOL   C27213244   1.828   1.243   1.010  0.8519 -0.1195 -1.0206
   47MOL   C27313245   1.874   1.364   0.979  0.2274  0.5071 -0.1933
   47MOL   C27413246   1.685   1.037   0.962  0.4312 -0.3526 -0.1565
   47MOL   C27513247   1.587   0.966   0.901 -0.1634 -0.1928 -0.1862
   47MOL   H27613248   1.495   1.216   0.679  0.7627  0.2187 -0.3448
   47MOL   H27713249   1.682   1.325   0.790  0.2354  0.8089  2.7539
   47MOL   H27813250   1.867   1.197   1.099 -0.0444 -2.8024 -1.9496
   47MOL   H27913251   1.837   1.405   0.886  1.2026 -1.4420 -1.4890
   47MOL   H28013252   1.733   0.991   1.047  0.4697 -1.5578 -0.8143
   47MOL   H28113253   1.563   0.873   0.952  1.5702  1.3777  3.6246
   47MOL   H28213254   1.950   1.420   1.030 -0.0270  1.1128 -0.4790
   48MOL     C113255   4.820   4.323   7.675 -0.5481 -0.3651 -0.5675
   48MOL     C213256   4.918   4.419   7.702  0.1794  0.6491 -0.4250
   48MOL     C313257   4.945   4.525   7.610 -0.2485  0.7542  0.1950
   48MOL     C413258   4.856   4.542   7.499  0.3643 -0.2367 -0.2515
   48MOL     C513259   4.885   4.644   7.396 -0.6572  0.2824 -0.3249
   48MOL     C613260   4.984   4.732   7.385 -0.2733 -0.5350  0.3671
   48MOL     C713261   4.748   4.455   7.486 -0.0044  0.1199  0.1953
   48MOL     C813262   4.725   4.342   7.568  0.5721  1.0125  0.4661
   48MOL     H913263   4.988   4.409   7.784  1.5289  2.0523 -1.3726
   48MOL    H1013264   5.035   4.584   7.624  0.1791  0.0109  0.6467
   48MOL    H1113265   4.816   4.646   7.312 -0.4336  0.0976 -0.5116
   48MOL    H1213266   5.058   4.740   7.464  1.2550 -0.8700 -1.0179
   48MOL    H1313267   4.676   4.482   7.410  1.1638  1.8154 -0.3128
   48MOL    H1413268   4.643   4.275   7.551  0.3747  1.2227  0.5792
   48MOL    H1513269   4.814   4.233   7.733 -0.9973 -0.7360 -1.1804
   48MOL    C1613270   5.001   4.834   7.281  0.0914 -0.0329  0.3343
   48MOL    C1713271   5.127   4.894   7.265  0.0421  0.3053  0.3853
   48MOL    C1813272   5.148   5.000   7.177  0.3453  1.0418  0.5919
   48MOL    C1913273   5.045   5.027   7.083 -0.1564 -0.8120 -0.4497
   48MOL    C2013274   5.070   5.127   6.981  0.3790 -0.0554  0.7960
   48MOL    C2113275   4.978   5.180   6.897  0.6218 -0.1651 -0.4544
   48MOL    C2213276   4.913   4.970   7.101  0.3457  0.2885 -0.4093
   48MOL    C2313277   4.891   4.882   7.206  0.7250  0.0892 -0.0897
   48MOL    H2413278   5.206   4.852   7.326 -1.0756 -2.5885 -0.1018
   48MOL    H2513279   5.250   5.029   7.157  0.9939 -0.9705  0.8752
   48MOL    H2613280   5.174   5.155   6.977  0.0684  0.8485 -1.3105
   48MOL    H2713281   4.875   5.148   6.897 -0.3059  2.7171 -1.3802
   48MOL    H2813282   4.827   4.988   7.039  1.0298 -1.4531 -1.8951
   48MOL    H2913283   4.798   4.833   7.229  1.9653 -1.5087  1.7604
   48MOL    C3013284   5.000   5.279   6.790 -0.0143  0.1851  0.2911
   48MOL    C3113285   5.134   5.325   6.773 -0.5267 -0.2771  0.6664
   48MOL    C3213286   5.156   5.417   6.665 -0.3762 -0.3970  0.8186
   48MOL    C3313287   5.054   5.460   6.578 -0.0025 -0.5875  0.4391
   48MOL    C3413288   5.084   5.565   6.480  0.0381 -0.2902 -0.2629
   48MOL    C3513289   4.992   5.648   6.424 -0.6283 -0.4959 -0.3758
   48MOL    C3613290   4.925   5.419   6.604  0.0121 -0.7642 -0.0063
   48MOL    C3713291   4.893   5.327   6.707 -0.3054  0.1181 -0.0083
   48MOL    H3813292   5.220   5.299   6.833  1.0844  1.5248 -0.7892
   48MOL    H3913293   5.254   5.461   6.657 -0.4886 -0.1363  0.8969
   48MOL    H4013294   5.186   5.569   6.446  0.5056  1.8952  1.3314
   48MOL    H4113295   4.891   5.643   6.462 -1.7997  3.2319 -2.6850
   48MOL    H4213296   4.837   5.445   6.546 -0.9852 -0.1615  1.7555
   48MOL    H4313297   4.788   5.311   6.726 -0.0489  0.0917  1.5389
   48MOL    C4413298   5.012   5.756   6.320  0.6455 -0.4429  0.1469
   48MOL    C4513299   4.897   5.814   6.268  0.4178  0.7462 -0.2098
   48MOL    C4613300   4.905   5.921   6.189 -0.0911  0.1738  0.2055
   48MOL    C4713301   5.028   5.980   6.153  0.4356  0.7617 -0.1501
   48MOL    C4813302   5.038   6.089   6.061  0.6202 -0.3504 -0.0902
   48MOL    C4913303   4.943   6.127   5.971 -0.2179  0.4834  0.0142
   48MOL    C5013304   5.144   5.922   6.209 -0.2824 -0.8766 -0.1094
   48MOL    C5113305   5.140   5.810   6.289  0.1718  0.0364  0.0705
   48MOL    H5213306   4.796   5.780   6.285  0.0987 -0.1265 -3.4948
   48MOL    H5313307   4.813   5.964   6.154  0.6018  0.4862 -1.3147
   48MOL    H5413308   5.129   6.146   6.071  0.2250  0.3736 -0.5562
   48MOL    H5513309   4.861   6.057   5.960  0.7656 -0.6072 -0.5161
   48MOL    H5613310   5.240   5.963   6.183 -1.5204  1.9314 -0.4483
   48MOL    H5713311   5.224   5.769   6.343  0.5110  0.3016 -0.2551
   48MOL    C5813312   4.939   6.247   5.881  0.5369 -0.4324  0.3868
   48MOL    C5913313   5.053   6.337   5.855 -0.3357 -0.0871  0.5558
   48MOL    C6013314   5.044   6.453   5.773 -1.0011  0.7910 -0.8688
   48MOL    C6113315   4.921   6.474   5.707  0.1745 -0.4865 -0.2624
   48MOL    C6213316   4.903   6.596   5.627  0.1995 -0.3386 -0.5299
   48MOL    C6313317   4.804   6.627   5.538 -0.3291  0.2973 -1.0700
   48MOL    C6413318   4.815   6.387   5.725 -0.9761  0.5396 -0.3281
   48MOL    C6513319   4.824   6.280   5.812  0.0525  0.6333 -0.0197
   48MOL    H6613320   5.147   6.322   5.905 -1.0638  1.1478  2.3600
   48MOL    H6713321   5.126   6.520   5.754 -1.0548  1.6830  1.8996
   48MOL    H6813322   4.980   6.670   5.642 -0.1286 -0.3111  1.0491
   48MOL    H6913323   4.723   6.559   5.520 -0.2768  0.7509 -3.1375
   48MOL    H7013324   4.721   6.407   5.675 -1.9700 -0.1491  1.2400
   48MOL    H7113325   4.740   6.215   5.830  0.2787  0.0400 -1.0615
   48MOL    C7213326   4.805   6.747   5.450 -0.4441  1.0499  0.0498
   48MOL    C7313327   4.917   6.827   5.438 -0.2190 -0.1242 -0.3836
   48MOL    C7413328   4.915   6.942   5.355  0.2888  0.6399  0.2857
   48MOL    C7513329   4.801   6.986   5.298  0.2631  0.6514  0.3955
   48MOL    C7613330   4.809   7.118   5.236 -0.3796  0.1156  0.3993
   48MOL    C7713331   4.708   7.203   5.209  0.4112 -0.2195  0.0418
   48MOL    C7813332   4.689   6.904   5.302 -0.2003  0.4471  0.2888
   48MOL    C7913333   4.691   6.790   5.382  0.1483 -0.3570 -0.3552
   48MOL    H8013334   5.011   6.795   5.479 -0.6885 -0.9913  0.0210
   48MOL    H8113335   5.007   6.997   5.338  1.1568 -0.5731  0.9470
   48MOL    H8213336   4.910   7.143   5.206  0.1329 -2.2683 -0.0095
   48MOL    H8313337   4.613   7.163   5.243 -1.0133  1.5673 -1.6764
   48MOL    H8413338   4.594   6.935   5.261 -0.2863  1.3578  1.1488
   48MOL    H8513339   4.596   6.740   5.389  0.0507 -0.0106  0.7500
   48MOL    C8613340   4.724   7.329   5.139 -0.7307  0.0841  0.0470
   48MOL    C8713341   4.624   7.424   5.129  0.4005 -0.0676 -0.0544
   48MOL    C8813342   4.646   7.554   5.085 -0.8936  0.1041  0.4930
   48MOL    C8913343   4.770   7.601   5.049 -0.8294 -0.5189  0.2409
   48MOL    C9013344   4.802   7.740   5.007  0.0259  0.4149 -0.0291
   48MOL    C9113345   4.716   7.845   5.014 -0.7960  0.0623 -0.1362
   48MOL    C9213346   4.875   7.510   5.063 -0.2648 -0.4755  0.5326
   48MOL    C9313347   4.853   7.377   5.095 -0.7274  0.1118  0.1449
   48MOL    H9413348   4.527   7.383   5.152 -0.9132  3.1937  0.4253
   48MOL    H9513349   4.570   7.630   5.070 -0.5787  0.0518 -1.5238
   48MOL    H9613350   4.903   7.756   4.973 -0.3506 -2.2992 -2.6698
   48MOL    H9713351   4.616   7.822   5.047  0.1583 -1.6762  1.5950
   48MOL    H9813352   4.976   7.538   5.036 -0.2783  0.9160  1.8804
   48MOL    H9913353   4.939   7.312   5.084 -1.6496 -1.2427  0.6909
   48MOL   C10013354   4.745   7.975   4.960  1.0380 -0.9065  0.1988
   48MOL   C10113355   4.664   8.081   4.997  0.3163  0.0307 -0.3109
   48MOL   C10213356   4.707   0.067   4.967  0.5987  0.0012 -0.3558
   48MOL   C10313357   4.823   0.099   4.896 -0.4105  0.0535  0.2363
   48MOL   C10413358   4.871   0.235   4.860 -0.1381  0.0194 -0.1216
   48MOL   C10513359   4.841   0.348   4.934 -0.2966  0.0729 -0.0394
   48MOL   C10613360   4.904   8.133   4.863 -0.4564  0.2948  0.3112
   48MOL   C10713361   4.869   8.003   4.897  0.4410  0.0918  0.0442
   48MOL   H10813362   4.575   8.056   5.054  0.0853  0.6595 -0.3882
   48MOL   H10913363   4.645   0.142   5.014  0.5637  1.2661 -2.3073
   48MOL   H11013364   4.920   0.238   4.764 -1.5081 -0.5390 -0.8598
   48MOL   H11113365   4.786   0.336   5.026 -0.7025 -1.1334 -0.4262
   48MOL   H11213366   4.995   0.007   4.807 -0.9484  1.9305  0.0233
   48MOL   H11313367   4.942   7.924   4.889  2.9552  2.1495  1.7712
   48MOL   C11413368   4.896   0.477   4.906  0.1965  0.0563  0.1657
   48MOL   C11513369   4.857   0.582   4.997  0.0829  0.4430  0.9121
   48MOL   C11613370   4.922   0.703   4.981 -0.3374 -0.0635 -0.4157
   48MOL   C11713371   5.003   0.732   4.871  0.0116  0.1382 -0.3757
   48MOL   C11813372   5.071   0.861   4.853 -1.2782 -0.0978 -0.4562
   48MOL   C11913373   5.096   0.951   4.953  0.1596  0.5029  0.2020
   48MOL   C12013374   5.023   0.633   4.774 -0.5086  0.7391  0.0384
   48MOL   C12113375   4.966   0.505   4.788  0.3433  0.2969 -0.4410
   48MOL   H12213376   4.783   0.567   5.074 -1.1905 -2.1378 -0.7414
   48MOL   H12313377   4.892   0.781   5.050  1.7107 -0.4123  0.9167
   48MOL   H12413378   5.113   0.877   4.755  0.1411  1.1707  0.3253
   48MOL   H12513379   5.050   0.925   5.048  0.4642 -0.5816  0.0632
   48MOL   H12613380   5.085   0.650   4.688  0.2875  1.8828  0.8256
   48MOL   H12713381   5.006   0.434   4.717  1.5303  0.3998  0.1214
   48MOL   C12813382   5.176   1.078   4.944 -0.6719  0.2333 -0.0699
   48MOL   C12913383   5.209   1.143   5.062  0.0044  0.3423  0.2784
   48MOL   C13013384   5.298   1.252   5.056 -0.7013 -0.8252 -0.2189
   48MOL   C13113385   5.359   1.297   4.937 -0.1150 -0.0541  0.1130
   48MOL   C13213386   5.462   1.400   4.924  0.0992  0.0410 -0.3937
   48MOL   C13313387   5.496   1.484   5.030 -0.1238  0.0292 -0.3537
   48MOL   C13413388   5.312   1.241   4.819 -0.2632 -0.2739  0.1587
   48MOL   C13513389   5.217   1.133   4.819  0.7800  0.0982  0.3343
   48MOL   H13613390   5.181   1.100   5.157 -0.1458 -0.3611 -0.0809
   48MOL   H13713391   5.329   1.299   5.148  0.6709  0.8404 -1.5083
   48MOL   H13813392   5.523   1.401   4.835  0.1097  1.1202 -0.3845
   48MOL   H13913393   5.440   1.478   5.122  1.4683 -2.4816  0.5018
   48MOL   H14013394   5.347   1.278   4.725 -2.6927 -0.3813 -0.8259
   48MOL   H14113395   5.178   1.099   4.724 -2.8937  0.5438  1.5878
   48MOL   C14213396   5.601   1.582   5.033 -0.0561 -0.0160  0.2495
   48MOL   C14313397   5.651   1.645   4.921  0.0761  0.2988 -0.0050
   48MOL   C14413398   5.765   1.731   4.928  0.0963  0.6891 -0.4463
   48MOL   C14513399   5.821   1.764   5.054  0.1501 -0.6782 -0.2311
   48MOL   C14613400   5.936   1.856   5.056 -0.7643  0.4171 -0.7153
   48MOL   C14713401   6.026   1.865   5.154 -0.1269  0.5516 -0.2899
   48MOL   C14813402   5.771   1.704   5.175  0.2206 -0.2985 -0.5047
   48MOL   C14913403   5.658   1.615   5.157 -0.7874 -0.2411 -0.2807
   48MOL   H15013404   5.618   1.632   4.819  1.6190 -1.7791 -0.2764
   48MOL   H15113405   5.804   1.772   4.836 -0.5810 -0.2713 -1.1785
   48MOL   H15213406   5.947   1.926   4.975 -0.2810 -0.2324 -1.2100
   48MOL   H15313407   6.013   1.808   5.244  3.2890  1.0086  0.5871
   48MOL   H15413408   5.807   1.732   5.273 -1.0808  2.5631 -0.7863
   48MOL   H15513409   5.616   1.565   5.243  0.0768 -2.2233 -0.9905
   48MOL   C15613410   6.160   1.930   5.151 -0.0230  0.0083  0.6908
   48MOL   C15713411   6.240   1.940   5.265  0.4430 -0.7610 -0.5221
   48MOL   C15813412   6.366   1.994   5.272  0.2323  0.1172 -0.1544
   48MOL   C15913413   6.419   2.062   5.161 -0.6181 -0.2931 -0.2873
   48MOL   C16013414   6.554   2.114   5.163 -0.3239  0.1172  0.0573
   48MOL   C16113415   6.651   2.104   5.258 -0.0829  0.0601 -0.6697
   48MOL   C16213416   6.337   2.062   5.046  0.1386 -0.6826 -0.9401
   48MOL   C16313417   6.215   1.991   5.036 -0.0961  0.2579  0.1850
   48MOL   H16413418   6.204   1.907   5.361  1.0577 -1.1265 -0.4158
   48MOL   H16513419   6.407   2.004   5.371 -0.2820  1.1125 -0.0381
   48MOL   H16613420   6.577   2.163   5.070  2.8999 -0.4645  0.5011
   48MOL   H16713421   6.626   2.052   5.350  1.2097 -0.4700 -0.6016
   48MOL   H16813422   6.370   2.120   4.960 -0.4131 -1.4070 -1.6434
   48MOL   H16913423   6.158   1.995   4.945  1.3000 -0.6862 -0.7517
   48MOL   C17013424   6.779   2.166   5.256  0.8688 -0.0965 -0.2602
   48MOL   C17113425   6.863   2.161   5.369  0.5441  0.5596  0.4664
   48MOL   C17213426   6.991   2.218   5.360 -0.6430 -0.6720 -0.1174
   48MOL   C17313427   7.037   2.296   5.251  0.9222  0.4157 -0.9849
   48MOL   C17413428   7.169   2.364   5.235 -0.8154  0.4318 -0.0838
   48MOL   C17513429   7.261   2.387   5.323 -0.1215  0.0025  0.1793
   48MOL   C17613430   6.943   2.305   5.143  0.2998  0.3124  0.0146
   48MOL   C17713431   6.812   2.251   5.148  0.1659  0.2786 -0.7647
   48MOL   H17813432   6.833   2.097   5.451  0.2609  0.8386  0.5789
   48MOL   H17913433   7.047   2.210   5.452  1.1161  1.0451 -0.9980
   48MOL   H18013434   7.177   2.408   5.136  2.7639  2.2352  0.9277
   48MOL   H18113435   7.249   2.355   5.425  0.1523 -0.2580  0.1334
   48MOL   H18213436   6.978   2.370   5.064  1.8201  1.6960  1.7711
   48MOL   H18313437   6.743   2.280   5.070  0.5566  0.2402 -1.1225
   48MOL   C18413438   7.387   2.461   5.309 -0.1141  0.1796  0.6953
   48MOL   C18513439   7.411   2.532   5.189 -0.6407 -0.7803  0.6478
   48MOL   C18613440   7.540   2.582   5.159  0.3035 -0.4395  0.3632
   48MOL   C18713441   7.646   2.554   5.244  0.4878 -0.2210  0.4142
   48MOL   C18813442   7.784   2.587   5.210  0.2610  0.4963 -0.4061
   48MOL   C18913443   7.831   2.637   5.097 -1.2383  0.2809  0.0753
   48MOL   C19013444   7.620   2.494   5.371  0.4537  0.0844 -0.3056
   48MOL   C19113445   7.490   2.447   5.404  0.1419  0.4164  0.2048
   48MOL   H19213446   7.340   2.533   5.108 -0.4052  0.0810  0.4444
   48MOL   H19313447   7.554   2.630   5.063 -0.2163 -0.4436  0.2831
   48MOL   H19413448   7.859   2.566   5.285 -0.0466 -1.0372 -0.5199
   48MOL   H19513449   7.760   2.666   5.021 -0.4077  0.8458 -0.4895
   48MOL   H19613450   7.704   2.483   5.439 -1.4419 -1.1746  1.8743
   48MOL   H19713451   7.466   2.398   5.497 -2.7238  2.8301  0.8081
   48MOL   C19813452   7.973   2.676   5.064  0.7383 -0.0090 -0.2770
   48MOL   C19913453   7.997   2.747   4.946 -0.2210  0.3010 -0.1696
   48MOL   C20013454   8.122   2.817   4.939 -0.5390  0.1655 -0.1579
   48MOL   C20113455   0.084   2.789   5.029  0.7913 -0.1293  0.0628
   48MOL   C20213456   0.216   2.850   5.004  0.3040 -0.2333  0.0493
   48MOL   C20313457   0.269   2.866   4.879  0.2176  0.0455  0.1460
   48MOL   C20413458   0.062   2.695   5.130  0.0977  0.3333  0.1459
   48MOL   C20513459   8.077   2.644   5.151  0.3764 -0.1847 -0.0866
   48MOL   H20613460   7.909   2.763   4.885 -0.4371 -2.1292 -0.5695
   48MOL   H20713461   8.137   2.888   4.859 -2.8493 -1.2609 -1.9294
   48MOL   H20813462   0.271   2.895   5.085  0.7815  0.6911 -0.7861
   48MOL   H20913463   0.223   2.818   4.793  1.8626  2.1010 -1.9430
   48MOL   H21013464   0.130   2.672   5.212 -0.1844  3.9883  1.4724
   48MOL   H21113465   8.065   2.582   5.238 -0.4698 -1.3515 -1.0282
   48MOL   C21213466   0.391   2.941   4.850 -0.1784  0.3421 -0.1692
   48MOL   C21313467   0.459   2.918   4.728  0.4295  0.7035 -0.0105
   48MOL   C21413468   0.584   2.973   4.700 -0.0051 -0.1165 -0.4411
   48MOL   C21513469   0.634   3.068   4.790 -0.7517  0.3408  0.0771
   48MOL   C21613470   0.758   3.137   4.754  0.5127 -0.3001  0.4107
   48MOL   C21713471   0.840   3.218   4.833  0.3902  0.2493  0.0110
   48MOL   C21813472   0.570   3.098   4.907  0.2310 -0.4727 -0.5215
   48MOL   C21913473   0.449   3.030   4.944 -0.2180 -0.6962 -0.2503
   48MOL   H22013474   0.413   2.859   4.651 -0.1928  3.0366 -1.4810
   48MOL   H22113475   0.627   2.950   4.604  0.7312 -2.1139  0.3499
   48MOL   H22213476   0.785   3.125   4.651  2.1483  2.2157  0.5077
   48MOL   H22313477   0.821   3.231   4.938  2.2847 -1.0625  0.5360
   48MOL   H22413478   0.612   3.161   4.984  0.1518 -2.0619  0.8587
   48MOL   H22513479   0.400   3.075   5.029  1.0200  2.6903 -1.2568
   48MOL   C22613480   0.952   3.290   4.776 -0.3666 -0.4599 -0.1470
   48MOL   C22713481   0.988   3.297   4.642 -0.5832 -0.5884  0.2452
   48MOL   C22813482   1.095   3.379   4.600  0.4068  0.3267 -0.5330
   48MOL   C22913483   1.168   3.453   4.699  0.4286  0.3909 -0.0643
   48MOL   C23013484   1.284   3.544   4.666  0.7567 -0.3319 -0.1092
   48MOL   C23113485   1.318   3.571   4.537  0.0855  0.3530  0.0120
   48MOL   C23213486   1.140   3.437   4.834  0.5624  0.7655 -0.8578
   48MOL   C23313487   1.035   3.350   4.872 -0.1903  0.3343 -0.2130
   48MOL   H23413488   0.943   3.240   4.562  0.2869 -0.2466 -0.4996
   48MOL   H23513489   1.114   3.379   4.494  1.5147  1.3733 -0.3462
   48MOL   H23613490   1.331   3.596   4.748  0.4366 -1.3827  0.7530
   48MOL   H23713491   1.267   3.514   4.460 -0.3113  1.1364 -0.3210
   48MOL   H23813492   1.182   3.499   4.912  0.2844  1.2531 -1.0868
   48MOL   H23913493   1.015   3.345   4.978  0.0574  2.0566 -0.0678
   48MOL   C24013494   1.420   3.655   4.479 -0.3285  0.8541  0.5712
   48MOL   C24113495   1.431   3.655   4.339 -0.2579  0.0341  0.2809
   48MOL   C24213496   1.546   3.708   4.278  0.0935  0.4151 -0.3694
   48MOL   C24313497   1.643   3.777   4.346 -0.1049  0.1271  0.0432
   48MOL   C24413498   1.764   3.837   4.290 -0.2263 -0.8388  0.3471
   48MOL   C24513499   1.818   3.809   4.168  0.4859 -0.0739 -0.2119
   48MOL   C24613500   1.623   3.790   4.487  0.1719  0.3558  0.0832
   48MOL   C24713501   1.519   3.723   4.552 -0.1471 -0.3168 -0.1912
   48MOL   H24813502   1.370   3.595   4.273  1.5185 -2.0144  0.4124
   48MOL   H24913503   1.570   3.686   4.176 -1.4007  2.6581 -1.2533
   48MOL   H25013504   1.818   3.905   4.353 -1.2315  0.4964 -0.2125
   48MOL   H25113505   1.780   3.728   4.108  0.2970 -1.7413  2.1439
   48MOL   H25213506   1.689   3.861   4.533  2.2716  0.0908 -2.3701
   48MOL   H25313507   1.517   3.726   4.660 -1.9322 -1.3075 -0.1862
   48MOL   C25413508   1.945   3.863   4.108 -0.7218 -0.5621 -0.5425
   48MOL   C25513509   2.029   3.962   4.174  0.9101  0.2270 -0.3768
   48MOL   C25613510   2.138   4.015   4.111  0.2903 -0.2739  0.5324
   48MOL   C25713511   2.175   3.969   3.982 -0.0040  0.7127  0.6344
   48MOL   C25813512   2.292   4.033   3.921 -0.3690 -0.2664  0.0198
   48MOL   C25913513   2.301   4.069   3.791  0.3561  0.2253 -0.5939
   48MOL   C26013514   2.101   3.868   3.919 -0.2435 -0.7246  0.7459
   48MOL   C26113515   1.993   3.814   3.986  0.2710  0.1240  0.0433
   48MOL   H26213516   2.006   4.007   4.269  0.3889 -1.0746  0.1292
   48MOL   H26313517   2.199   4.093   4.154  1.8102 -2.2843  2.1575
   48MOL   H26413518   2.373   4.042   3.992 -0.8962  1.8053  0.4065
   48MOL   H26513519   2.394   4.113   3.758 -0.1177  0.5714 -1.4972
   48MOL   H26613520   2.129   3.837   3.820 -0.8043  0.7472  0.1166
   48MOL   H26713521   1.943   3.736   3.930 -0.5013  0.5371  0.1536
   48MOL   C26813522   2.192   4.075   3.692 -0.1689 -0.0215  0.2880
   48MOL   C26913523   2.061   4.114   3.727  0.0707  0.8606  0.9582
   48MOL   C27013524   1.962   4.133   3.628  0.1434  0.7021  0.1951
   48MOL   C27113525   1.989   4.098   3.496 -0.0127  0.9606  0.0325
   48MOL   C27213526   1.895   4.105   3.393  0.4812 -0.6346 -0.2081
   48MOL   C27313527   1.773   4.148   3.409  0.6436 -0.3332  0.2921
   48MOL   C27413528   2.120   4.055   3.464  1.1328  0.5252 -0.9501
   48MOL   C27513529   2.221   4.037   3.561  0.2572  0.1268 -0.4842
   48MOL   H27613530   2.037   4.144   3.828 -0.7469 -2.4812  1.8346
   48MOL   H27713531   1.865   4.171   3.658 -0.4652 -1.2335  0.7141
   48MOL   H27813532   1.929   4.069   3.297 -2.8777  1.8006 -2.4350
   48MOL   H27913533   1.736   4.182   3.504 -0.1209  1.0310 -0.4763
   48MOL   H28013534   2.155   4.032   3.365  1.3205 -3.0928 -0.1387
   48MOL   H28113535   2.319   4.001   3.534  0.0817 -0.9223  0.2317
   48MOL   H28213536   1.705   4.159   3.325 -0.2106 -0.9549  0.8991
   49MOL     C113537   3.435   1.435   6.584  0.0241  0.1587 -0.6554
   49MOL     C213538   3.420   1.552   6.657 -0.4555  0.8504 -0.2165
   49MOL     C313539   3.524   1.646   6.657  0.1095  0.6187 -0.3085
   49MOL     C413540   3.644   1.620   6.582 -0.4930 -0.4569  0.1544
   49MOL     C513541   3.749   1.718   6.596  0.2413  0.6223  0.3517
   49MOL     C613542   3.873   1.718   6.531 -0.1597  0.0756  0.2848
   49MOL     C713543   3.657   1.497   6.516 -0.0817  0.5190 -0.3473
   49MOL     C813544   3.551   1.402   6.515 -0.1183  0.1027 -0.4728
   49MOL     H913545   3.325   1.567   6.706 -1.3991 -0.9951 -1.3987
   49MOL    H1013546   3.532   1.731   6.723  1.0806  2.1313 -2.3611
   49MOL    H1113547   3.716   1.793   6.666 -1.6913 -1.0181  1.2542
   49MOL    H1213548   3.899   1.634   6.468 -2.3798 -0.6952  0.3290
   49MOL    H1313549   3.741   1.473   6.452 -0.6692 -1.2046 -0.5187
   49MOL    H1413550   3.560   1.311   6.457  2.4896  0.7043 -1.0917
   49MOL    H1513551   3.346   1.375   6.572  0.8219 -1.0611 -0.5662
   49MOL    C1613552   3.985   1.811   6.557 -0.5592  0.5406  0.0189
   49MOL    C1713553   3.986   1.915   6.660 -0.8582  0.1771 -0.3577
   49MOL    C1813554   4.101   1.998   6.672  1.1057 -0.1812 -0.5168
   49MOL    C1913555   4.215   1.972   6.598 -0.7837 -0.1159  0.1613
   49MOL    C2013556   4.329   2.059   6.626 -0.4560 -0.4962  0.2577
   49MOL    C2113557   4.453   2.049   6.567  0.3149 -0.0047 -0.2870
   49MOL    C2213558   4.213   1.872   6.491 -0.0282 -0.4347 -0.1876
   49MOL    C2313559   4.098   1.798   6.476  0.1972  0.2212 -0.6009
   49MOL    H2413560   3.908   1.924   6.735  0.2643 -1.1335  1.0097
   49MOL    H2513561   4.100   2.078   6.745 -3.3591  0.4853 -1.1281
   49MOL    H2613562   4.314   2.135   6.701 -1.3527 -0.7637  0.3643
   49MOL    H2713563   4.469   1.975   6.490 -0.0821 -1.6437  1.1501
   49MOL    H2813564   4.294   1.854   6.422 -0.7761 -1.9686 -0.6817
   49MOL    H2913565   4.109   1.722   6.400  0.2380 -1.3436  0.9437
   49MOL    C3013566   4.565   2.132   6.608 -0.5323  0.5588 -0.0951
   49MOL    C3113567   4.564   2.239   6.695  0.8493  0.1365 -0.0440
   49MOL    C3213568   4.682   2.302   6.750  0.1895  0.4460  0.5855
   49MOL    C3313569   4.805   2.251   6.718  0.2180  0.2740  0.4223
   49MOL    C3413570   4.925   2.313   6.769 -0.3660 -0.2200 -0.5090
   49MOL    C3513571   5.046   2.310   6.710 -0.0273 -0.3469 -0.0149
   49MOL    C3613572   4.808   2.140   6.624  0.5365 -0.4628  0.4618
   49MOL    C3713573   4.692   2.088   6.568 -0.6327  0.5517  0.2056
   49MOL    H3813574   4.477   2.268   6.752  1.5125 -0.2081  1.1461
   49MOL    H3913575   4.663   2.377   6.825  0.8846 -0.5221  1.7403
   49MOL    H4013576   4.914   2.363   6.864 -1.1748 -1.8675  0.2876
   49MOL    H4113577   5.046   2.256   6.617 -0.2242  1.3753 -1.0295
   49MOL    H4213578   4.903   2.095   6.598 -0.3286 -2.4708  0.7006
   49MOL    H4313579   4.710   1.999   6.510  0.5035  0.9659 -0.0721
   49MOL    C4413580   5.171   2.375   6.736 -0.6883  0.6307 -1.0201
   49MOL    C4513581   5.280   2.357   6.646 -0.1563 -0.0550 -0.0579
   49MOL    C4613582   5.401   2.424   6.666 -0.4862  0.3156 -0.4680
   49MOL    C4713583   5.414   2.510   6.773  0.4178 -0.5173 -0.6435
   49MOL    C4813584   5.550   2.576   6.777 -0.2297  0.1063  0.1402
   49MOL    C4913585   5.606   2.643   6.878 -0.2215  0.5232  0.1381
   49MOL    C5013586   5.307   2.535   6.864 -0.8844 -0.0351  0.3296
   49MOL    C5113587   5.187   2.468   6.846 -0.3707 -0.1224 -1.0275
   49MOL    H5213588   5.270   2.288   6.564  0.0587  0.6335 -0.6639
   49MOL    H5313589   5.486   2.402   6.603 -1.1121 -0.5837 -1.0166
   49MOL    H5413590   5.611   2.561   6.689 -0.0432 -0.4840  0.3702
   49MOL    H5513591   5.549   2.670   6.966 -0.3944 -1.0582  0.5335
   49MOL    H5613592   5.326   2.613   6.937 -0.1001 -0.6144  0.7570
   49MOL    H5713593   5.099   2.477   6.909 -0.6873 -0.3965 -1.4305
   49MOL    C5813594   5.734   2.703   6.881  0.2370  0.0502  1.0964
   49MOL    C5913595   5.834   2.667   6.787 -0.0478 -0.5321 -0.2606
   49MOL    C6013596   5.964   2.721   6.785  0.2907 -0.4738  0.5476
   49MOL    C6113597   5.998   2.819   6.885 -0.1056 -0.1222 -0.4650
   49MOL    C6213598   6.132   2.874   6.900  0.3118 -0.4893  0.7847
   49MOL    C6313599   6.176   2.963   6.990  0.3283 -0.4818  0.6004
   49MOL    C6413600   5.896   2.863   6.976  0.5506 -0.0330 -0.0546
   49MOL    C6513601   5.770   2.805   6.973  0.4148  0.2152 -0.7661
   49MOL    H6613602   5.807   2.598   6.708 -1.8323  0.0533 -0.1797
   49MOL    H6713603   6.041   2.678   6.722  0.0158 -0.5594  0.2678
   49MOL    H6813604   6.194   2.848   6.816 -1.3860  2.4129 -1.4678
   49MOL    H6913605   6.107   2.993   7.068 -0.1810 -0.0245 -0.0280
   49MOL    H7013606   5.923   2.934   7.053 -0.7730 -0.1114  0.5001
   49MOL    H7113607   5.698   2.852   7.038  0.1778  0.2986 -1.0838
   49MOL    C7213608   6.305   3.040   6.994  0.4099  0.6182 -1.3056
   49MOL    C7313609   6.296   3.159   7.070 -0.3183  0.1811 -0.2186
   49MOL    C7413610   6.404   3.243   7.081 -1.2339 -0.3717  1.0513
   49MOL    C7513611   6.524   3.211   7.007  0.0414 -0.6699 -0.9545
   49MOL    C7613612   6.622   3.322   7.007 -0.3616 -0.6140  0.0393
   49MOL    C7713613   6.755   3.302   6.972  0.1683  0.3917 -0.1151
   49MOL    C7813614   6.532   3.095   6.930  0.4778  0.8290  1.0406
   49MOL    C7913615   6.420   3.008   6.920 -0.4191 -0.5659  0.2512
   49MOL    H8013616   6.217   3.186   7.137 -0.3924  0.9456 -0.6003
   49MOL    H8113617   6.399   3.330   7.145  0.8329  0.3796  0.2336
   49MOL    H8213618   6.583   3.417   7.039 -0.9530 -0.3457 -1.4228
   49MOL    H8313619   6.790   3.201   6.952 -1.9288 -0.2286 -0.6892
   49MOL    H8413620   6.626   3.081   6.878 -0.6453 -0.0884 -0.7909
   49MOL    H8513621   6.428   2.912   6.871 -3.0314 -2.0072  2.4691
   49MOL    C8613622   6.858   3.405   6.954 -0.6515 -0.0275  0.4379
   49MOL    C8713623   6.995   3.366   6.939  0.1102  0.1123 -0.2524
   49MOL    C8813624   7.098   3.458   6.914  0.7645 -0.5387 -0.7588
   49MOL    C8913625   7.057   3.588   6.886 -0.0623 -0.6579 -0.6089
   49MOL    C9013626   7.161   3.693   6.849 -0.1501 -0.1229 -0.4173
   49MOL    C9113627   7.288   3.674   6.817  0.0448  0.5938  0.2034
   49MOL    C9213628   6.926   3.635   6.907  0.7421  0.3061 -0.1505
   49MOL    C9313629   6.824   3.542   6.949 -0.0831  0.3324  0.2174
   49MOL    H9413630   7.019   3.261   6.941  1.2633  0.3337 -1.6290
   49MOL    H9513631   7.200   3.424   6.903  0.6928 -1.2894  0.8064
   49MOL    H9613632   7.120   3.793   6.847 -0.8549 -0.4190 -1.1051
   49MOL    H9713633   7.327   3.573   6.821 -0.6105  0.3478  0.3562
   49MOL    H9813634   6.913   3.742   6.914 -0.3987  0.1769 -0.1845
   49MOL    H9913635   6.725   3.579   6.974 -1.8746 -2.6847 -2.1230
   49MOL   C10013636   7.374   3.792   6.786  0.9073  0.3124  0.1276
   49MOL   C10113637   7.459   3.795   6.678  0.1992  0.5659  0.0999
   49MOL   C10213638   7.537   3.905   6.640 -0.1013  0.5987  0.6396
   49MOL   C10313639   7.537   4.022   6.714  0.1820  0.0251 -0.5099
   49MOL   C10413640   7.618   4.138   6.664  0.6818  0.2748 -0.9278
   49MOL   C10513641   7.715   4.139   6.571  0.9722  0.0631  0.1729
   49MOL   C10613642   7.452   4.024   6.831  0.5408 -0.2474 -0.1209
   49MOL   C10713643   7.376   3.910   6.868 -0.3953 -0.7576 -0.5195
   49MOL   H10813644   7.445   3.711   6.612 -1.8268  0.1437  1.0186
   49MOL   H10913645   7.604   3.892   6.556  0.4167  2.3100  0.7698
   49MOL   H11013646   7.590   4.233   6.707 -0.7406 -1.2693  1.6943
   49MOL   H11113647   7.740   4.048   6.520  2.9712 -0.7015  2.4234
   49MOL   H11213648   7.444   4.115   6.888 -0.2641  0.9080 -2.0361
   49MOL   H11313649   7.318   3.913   6.960  2.8653 -1.0025  1.6381
   49MOL   C11413650   7.782   4.263   6.522  0.4706 -0.9293 -0.5600
   49MOL   C11513651   7.913   4.245   6.463  0.7883 -0.3733 -0.1293
   49MOL   C11613652   7.979   4.354   6.428  0.4567  0.4411  0.0754
   49MOL   C11713653   7.933   4.482   6.448  1.1322  0.6375  0.2644
   49MOL   C11813654   8.012   4.598   6.412  0.1399 -0.1071 -0.2614
   49MOL   C11913655   8.117   4.605   6.328  0.1835  0.9654 -0.4077
   49MOL   C12013656   7.804   4.501   6.502 -0.9072 -0.1755 -0.8152
   49MOL   C12113657   7.725   4.390   6.543  0.2343  0.1522  0.6429
   49MOL   H12213658   7.946   4.146   6.435 -0.0723 -0.5783 -0.4456
   49MOL   H12313659   8.070   4.339   6.372  0.9143 -2.0236  1.4379
   49MOL   H12413660   7.977   4.687   6.463 -0.8405 -0.9981  0.6186
   49MOL   H12513661   0.007   4.509   6.293 -1.7446 -0.0372  0.3446
   49MOL   H12613662   7.760   4.600   6.508 -0.3825  0.0515 -0.6391
   49MOL   H12713663   7.619   4.396   6.565  0.2137 -1.5185  1.1412
   49MOL   C12813664   0.033   4.733   6.283 -0.2543 -0.0183 -0.4386
   49MOL   C12913665   0.017   4.850   6.360  0.1780  0.1679 -0.1255
   49MOL   C13013666   0.047   4.972   6.314  0.3944 -0.3814 -0.2318
   49MOL   C13113667   0.089   4.993   6.179 -0.3993  0.3517 -0.2214
   49MOL   C13213668   0.093   5.129   6.124  0.3656 -0.3046 -0.1332
   49MOL   C13313669   0.103   5.157   5.988  0.0246  0.2678 -0.5874
   49MOL   C13413670   0.120   4.878   6.101 -1.0108 -0.9746 -0.6775
   49MOL   C13513671   0.092   4.748   6.156 -0.5529 -0.0392 -0.1644
   49MOL   H13613672   8.113   4.846   6.456 -0.1782  0.1093 -0.3043
   49MOL   H13713673   0.021   5.049   6.384  1.1284 -0.6741  0.3719
   49MOL   H13813674   0.086   5.207   6.198 -2.5024 -0.4298 -0.2256
   49MOL   H13913675   0.110   5.074   5.919  1.7470 -0.2559  0.1918
   49MOL   H14013676   0.165   4.891   6.004 -0.5489  0.6477 -0.2634
   49MOL   H14113677   0.114   4.660   6.099 -0.5192  0.2113 -0.5385
   49MOL   C14213678   0.106   5.295   5.935  0.1557  0.4018  0.1496
   49MOL   C14313679   0.114   5.312   5.795 -0.2750  0.7002  0.5534
   49MOL   C14413680   0.120   5.444   5.743  0.0414  0.0388  0.0529
   49MOL   C14513681   0.102   5.559   5.823 -0.3726  0.7958 -0.6159
   49MOL   C14613682   0.095   5.696   5.778  0.3373 -0.5083  0.0296
   49MOL   C14713683   0.090   5.736   5.650  0.3588  0.2415  0.0148
   49MOL   C14813684   0.087   5.540   5.964 -0.6725  0.2580  0.5984
   49MOL   C14913685   0.092   5.409   6.020 -0.2057 -0.2123 -0.0804
   49MOL   H15013686   0.122   5.228   5.728  0.1837  1.7691 -0.7596
   49MOL   H15113687   0.130   5.458   5.637  0.3750  1.3098  0.2483
   49MOL   H15213688   0.090   5.773   5.853  1.0438  1.7016 -2.1301
   49MOL   H15313689   0.113   5.669   5.569  0.8809 -0.2334  0.5512
   49MOL   H15413690   0.069   5.620   6.035  0.1998  1.1134 -0.1342
   49MOL   H15513691   0.105   5.404   6.128  2.6984 -0.2936 -0.4030
   49MOL   C15613692   0.037   5.864   5.604 -0.2628 -0.5363 -0.4454
   49MOL   C15713693   8.104   5.948   5.690  0.3518 -0.5436 -0.1327
   49MOL   C15813694   8.060   6.078   5.647 -0.1830 -0.7260  0.3869
   49MOL   C15913695   8.090   6.123   5.514  0.2161  0.6282  0.0852
   49MOL   C16013696   8.031   6.246   5.461  0.6146  0.8654  0.3088
   49MOL   C16113697   8.034   6.306   5.343 -0.0775  0.8879  0.2835
   49MOL   C16213698   0.012   6.036   5.424 -0.0190 -0.3020  0.4335
   49MOL   C16313699   0.068   5.912   5.474  0.4044 -0.2860 -0.3111
   49MOL   H16413700   8.079   5.927   5.793  0.7890  0.6663  0.2317
   49MOL   H16513701   8.012   6.149   5.713  3.2511  2.4606 -0.3127
   49MOL   H16613702   7.962   6.289   5.533 -0.3433 -0.7406  0.3841
   49MOL   H16713703   8.106   6.270   5.271 -1.4198 -0.5887 -0.3419
   49MOL   H16813704   0.030   6.058   5.320  1.0886  0.7487  0.8455
   49MOL   H16913705   0.112   5.838   5.410  1.3109 -0.5075  0.5544
   49MOL   C17013706   7.949   6.415   5.304  0.2013  0.3553 -0.0769
   49MOL   C17113707   7.961   6.475   5.175 -0.1796  0.2602 -0.0939
   49MOL   C17213708   7.871   6.574   5.133 -0.3346 -0.2687  0.6201
   49MOL   C17313709   7.764   6.621   5.211 -0.2404  0.2975  0.0131
   49MOL   C17413710   7.669   6.720   5.155  0.3992  0.1709 -0.0562
   49MOL   C17513711   7.553   6.766   5.213  0.1958  0.2931  0.7196
   49MOL   C17613712   7.751   6.563   5.340  0.3155  0.4397  0.4802
   49MOL   C17713713   7.842   6.467   5.390  0.1549 -0.2590  0.7424
   49MOL   H17813714   8.053   6.454   5.123  2.2984  2.7644  3.0801
   49MOL   H17913715   7.878   6.615   5.033 -0.4809  0.9561  1.0938
   49MOL   H18013716   7.694   6.767   5.061  0.1197  0.4487  0.0085
   49MOL   H18113717   7.520   6.729   5.309 -1.6051  1.8398  0.7269
   49MOL   H18213718   7.668   6.581   5.406 -0.1237 -1.0227  0.3579
   49MOL   H18313719   7.816   6.417   5.482 -1.2019  0.3933  0.7222
   49MOL   C18413720   7.462   6.867   5.152  0.5342 -0.5512  0.7768
   49MOL   C18513721   7.335   6.883   5.209 -0.3110  0.3400 -0.6422
   49MOL   C18613722   7.239   6.971   5.157  0.8124  0.5651  0.4592
   49MOL   C18713723   7.270   7.042   5.036  0.1001  0.1987 -0.3480
   49MOL   C18813724   7.172   7.131   4.976 -0.0966 -0.1584  0.3310
   49MOL   C18913725   7.063   7.186   5.030 -0.0463 -0.8732  0.1274
   49MOL   C19013726   7.396   7.028   4.978  0.2647 -0.1014  0.3970
   49MOL   C19113727   7.497   6.944   5.037  0.4697 -0.0342  0.6601
   49MOL   H19213728   7.311   6.824   5.296  1.5063  1.3632  0.5808
   49MOL   H19313729   7.142   6.994   5.199  1.0331  1.4085  0.5034
   49MOL   H19413730   7.195   7.170   4.878 -0.3672  1.7126  1.0037
   49MOL   H19513731   7.043   7.170   5.135 -2.1600  0.1615 -0.0877
   49MOL   H19613732   7.412   7.080   4.885  3.0332  0.4452  1.1396
   49MOL   H19713733   7.592   6.933   4.987  0.4624  0.1381  0.6075
   49MOL   C19813734   6.965   7.272   4.962 -0.2724 -0.1814 -0.1251
   49MOL   C19913735   6.848   7.299   5.027  0.9205  0.6276  0.0625
   49MOL   C20013736   6.741   7.363   4.962 -0.0811  0.3191  0.9524
   49MOL   C20113737   6.760   7.403   4.831 -0.2650 -0.0101  0.4724
   49MOL   C20213738   6.651   7.462   4.752  0.1638 -0.0720  0.0065
   49MOL   C20313739   6.533   7.510   4.800  0.3730 -0.4774  0.2632
   49MOL   C20413740   6.883   7.388   4.767 -0.3212 -0.7126 -0.2441
   49MOL   C20513741   6.988   7.323   4.833 -0.5604  0.0719  0.1447
   49MOL   H20613742   6.819   7.246   5.116  0.6017  0.5550 -0.0842
   49MOL   H20713743   6.641   7.371   5.002 -1.0543  2.2553 -1.7881
   49MOL   H20813744   6.663   7.475   4.645 -0.9019 -3.0780 -0.5407
   49MOL   H20913745   6.513   7.499   4.906  0.2333 -0.8810  0.1971
   49MOL   H21013746   6.896   7.426   4.667  2.1912 -0.1072  0.2805
   49MOL   H21113747   7.084   7.312   4.785 -0.9098  3.5921 -1.5697
   49MOL   C21213748   6.425   7.567   4.717 -0.0454  0.5396 -0.5167
   49MOL   C21313749   6.411   7.547   4.578  0.2132  0.2829  0.1680
   49MOL   C21413750   6.297   7.586   4.509 -0.2276  0.3661  0.5305
   49MOL   C21513751   6.200   7.662   4.583 -0.1937  0.2131 -0.0408
   49MOL   C21613752   6.074   7.711   4.520 -0.3917  0.7070 -0.0214
   49MOL   C21713753   6.023   7.836   4.534 -0.9998  0.2380  0.4327
   49MOL   C21813754   6.223   7.690   4.718  0.1873 -0.0438  0.0364
   49MOL   C21913755   6.328   7.640   4.788 -0.5170 -0.7151  0.3748
   49MOL   H22013756   6.496   7.509   4.524 -0.9880  0.2597 -1.7649
   49MOL   H22113757   6.285   7.568   4.403  1.1167 -2.0767  0.7655
   49MOL   H22213758   6.033   7.631   4.460 -2.9302  1.4663  0.6635
   49MOL   H22313759   6.080   7.898   4.601  0.3950  1.3487 -1.7415
   49MOL   H22413760   6.139   7.737   4.769 -0.1233 -1.2934  0.6936
   49MOL   H22513761   6.336   7.646   4.896 -2.8035 -1.1432  0.5973
   49MOL   C22613762   5.890   7.882   4.486  0.3861  0.1626  0.3478
   49MOL   C22713763   5.782   7.795   4.481  0.4934 -0.9932  0.6038
   49MOL   C22813764   5.650   7.842   4.458  0.0140 -0.4270 -0.1919
   49MOL   C22913765   5.632   7.983   4.436 -0.2262 -0.8422 -0.3324
   49MOL   C23013766   5.496   8.042   4.434 -0.4692 -0.4399 -1.0314
   49MOL   C23113767   5.375   7.984   4.458 -0.6597 -0.4674  0.5615
   49MOL   C23213768   5.742   8.065   4.420 -0.0379 -0.2098  0.0771
   49MOL   C23313769   5.877   8.015   4.437 -0.7626  0.5090 -0.5465
   49MOL   H23413770   5.789   7.695   4.522 -1.3505 -1.6676 -0.6891
   49MOL   H23513771   5.567   7.778   4.484  1.1656 -2.5737 -1.5851
   49MOL   H23613772   5.492   0.005   4.419  1.3557 -0.3265 -0.8577
   49MOL   H23713773   5.375   7.877   4.468  0.1817 -0.4208  1.0590
   49MOL   H23813774   5.729   0.025   4.397 -0.4872  0.4789  3.1628
   49MOL   H23913775   5.966   8.076   4.443 -0.7400  0.4407 -0.1567
   49MOL   C24013776   5.234   8.045   4.463 -0.3230 -0.0082  0.2631
   49MOL   C24113777   5.205   0.035   4.417  0.2928  0.2784 -0.3185
   49MOL   C24213778   5.078   0.091   4.439 -0.4244  0.3225  0.0398
   49MOL   C24313779   4.981   0.014   4.505  0.2842  0.2686 -0.2332
   49MOL   C24413780   4.852   0.076   4.540 -0.0671 -0.6886  0.1867
   49MOL   C24513781   4.745   0.010   4.596  0.2529  0.1748 -0.3121
   49MOL   C24613782   5.010   8.025   4.537  0.1718 -0.6880 -0.6882
   49MOL   C24713783   5.138   7.974   4.532 -0.2796 -0.4203  0.1371
   49MOL   H24813784   5.280   0.088   4.360 -0.2944  0.7414 -0.6649
   49MOL   H24913785   5.059   0.190   4.401 -0.8060  0.1237 -0.2814
   49MOL   H25013786   4.843   0.181   4.519 -0.6084 -1.2125 -2.2915
   49MOL   H25113787   4.748   8.049   4.618 -1.9005  0.1472 -0.0420
   49MOL   H25213788   4.936   7.963   4.585 -0.1222  0.4090  0.3234
   49MOL   H25313789   5.157   7.878   4.576  0.0433 -0.8014 -0.8123
   49MOL   C25413790   4.620   0.076   4.620  0.8540 -0.1269  0.1071
   49MOL   C25513791   4.587   0.214   4.594 -0.3982 -1.0980  0.0660
   49MOL   C25613792   4.464   0.275   4.626 -0.2929  0.2337 -0.4811
   49MOL   C25713793   4.370   0.196   4.694 -0.8954  0.3890 -0.2665
   49MOL   C25813794   4.240   0.241   4.745 -0.1023  0.2796 -0.2879
   49MOL   C25913795   4.154   0.326   4.696  0.5592 -0.2269 -0.0399
   49MOL   C26013796   4.394   0.059   4.717  0.0748 -0.4852 -0.0541
   49MOL   C26113797   4.516   8.143   4.677  0.1656  0.1424 -0.1394
   49MOL   H26213798   4.664   0.277   4.552 -1.2395 -1.0538 -1.4360
   49MOL   H26313799   4.455   0.383   4.619  0.7841  0.5194  2.0345
   49MOL   H26413800   4.206   0.206   4.841  0.8859  0.9934  0.3194
   49MOL   H26513801   4.064   0.347   4.751  0.3956 -0.7142 -0.1200
   49MOL   H26613802   4.319   8.143   4.764 -0.0660 -0.2128  0.0745
   49MOL   H26713803   4.533   8.040   4.705  1.1412  0.1995 -0.5025
   49MOL   C26813804   4.172   0.389   4.568  0.0361  0.6257  0.0827
   49MOL   C26913805   4.180   0.527   4.548 -0.5367 -0.2695 -0.6102
   49MOL   C27013806   4.187   0.582   4.420  0.4971 -0.0654  0.4022
   49MOL   C27113807   4.150   0.498   4.311  0.5859  0.0868 -0.1330
   49MOL   C27213808   4.150   0.556   4.172 -0.0050 -0.5500  0.1395
   49MOL   C27313809   4.137   0.484   4.057 -0.2432  0.3187  0.7864
   49MOL   C27413810   4.142   0.356   4.331  0.3769  0.2207  0.7676
   49MOL   C27513811   4.166   0.302   4.459  0.6245  0.1974 -0.4434
   49MOL   H27613812   4.176   0.591   4.636  1.6185  0.6763 -1.1540
   49MOL   H27713813   4.189   0.689   4.408 -2.8832  0.0322  0.3629
   49MOL   H27813814   4.157   0.664   4.168  1.4404 -0.6695 -1.1301
   49MOL   H27913815   4.121   0.378   4.046 -2.0898  0.6613  0.0086
   49MOL   H28013816   4.133   0.283   4.252  0.7188 -2.1919  2.8890
   49MOL   H28113817   4.160   0.194   4.462 -1.6926  0.3246 -0.0555
   49MOL   H28213818   4.144   0.547   3.970 -0.3234  0.5666  0.9602
   50MOL     C113819   0.347   2.685   1.863  0.0525 -0.0039  0.4076
   50MOL     C213820   0.241   2.594   1.858  0.1976  0.0164 -0.8315
   50MOL     C313821   0.109   2.635   1.819 -0.2544  0.5912 -0.1160
   50MOL     C413822   0.085   2.767   1.778 -0.1061  0.2806 -0.3196
   50MOL     C513823   8.090   2.826   1.776 -0.5051  0.5313  0.1414
   50MOL     C613824   8.056   2.956   1.799  0.3187 -0.4556  0.9371
   50MOL     C713825   0.196   2.856   1.774  0.0030  0.0157  0.7661
   50MOL     C813826   0.322   2.816   1.817  0.1032 -0.8230  0.0149
   50MOL     H913827   0.252   2.489   1.882 -1.0878 -0.2590 -1.3846
   50MOL    H1013828   0.029   2.563   1.822  0.3378 -0.2238 -2.5064
   50MOL    H1113829   8.017   2.749   1.753  3.3124 -2.9825 -0.8149
   50MOL    H1213830   8.121   3.040   1.816 -0.4637  0.5504 -0.8697
   50MOL    H1313831   0.193   2.962   1.754  2.0135  0.3228  1.8772
   50MOL    H1413832   0.395   2.895   1.814 -0.7728 -0.0295 -0.5692
   50MOL    H1513833   0.439   2.645   1.902  0.1593  0.0048  0.1685
   50MOL    C1613834   7.917   2.997   1.793  0.4382 -0.3888  0.0135
   50MOL    C1713835   7.880   3.123   1.744 -0.0727  0.0934  0.3993
   50MOL    C1813836   7.748   3.168   1.741  0.2824  0.2032  0.2257
   50MOL    C1913837   7.639   3.087   1.772 -0.3009 -0.4622  0.3553
   50MOL    C2013838   7.509   3.153   1.761  0.0478  0.7043  0.7370
   50MOL    C2113839   7.399   3.113   1.826 -0.2324 -0.0372 -0.2881
   50MOL    C2213840   7.662   2.957   1.810 -0.3015  0.2366 -0.6856
   50MOL    C2313841   7.802   2.910   1.814  0.0789  0.4377 -0.0640
   50MOL    H2413842   7.959   3.191   1.717 -0.1729 -0.6310 -1.7422
   50MOL    H2513843   7.730   3.273   1.722  2.4850  0.9318  1.8370
   50MOL    H2613844   7.501   3.219   1.676  0.8001  0.0376  0.1306
   50MOL    H2713845   7.404   3.036   1.901 -1.6536  2.1900  2.1973
   50MOL    H2813846   7.575   2.896   1.829  0.4410 -1.4632 -2.5797
   50MOL    H2913847   7.818   2.809   1.851  1.8307  1.0193  0.8296
   50MOL    C3013848   7.262   3.170   1.802  0.1703  0.4725  0.0911
   50MOL    C3113849   7.154   3.119   1.873  0.1545  0.2131 -0.5134
   50MOL    C3213850   7.020   3.163   1.851 -0.6127  0.5549 -0.3468
   50MOL    C3313851   7.004   3.258   1.746  0.7186  0.7304  0.0900
   50MOL    C3413852   6.870   3.312   1.711 -0.2034 -0.8154 -0.6769
   50MOL    C3513853   6.752   3.263   1.751  0.3588 -0.7563 -0.0234
   50MOL    C3613854   7.111   3.307   1.670  0.0390  0.3150 -0.1570
   50MOL    C3713855   7.239   3.262   1.699 -0.8748 -0.0121 -0.1939
   50MOL    H3813856   7.171   3.054   1.958  0.5950  1.3406  0.2645
   50MOL    H3913857   6.930   3.127   1.899  0.0811 -0.1089  0.4805
   50MOL    H4013858   6.869   3.404   1.655 -1.0661 -1.7119 -2.1808
   50MOL    H4113859   6.757   3.167   1.800  0.7850  1.0333  3.6227
   50MOL    H4213860   7.089   3.376   1.591 -2.3857 -0.1347  0.0830
   50MOL    H4313861   7.321   3.296   1.637 -2.0773  1.7768 -0.8622
   50MOL    C4413862   6.618   3.323   1.721  0.1546  0.6176  0.3755
   50MOL    C4513863   6.601   3.436   1.634 -0.4841  0.7082  0.1885
   50MOL    C4613864   6.473   3.487   1.603 -0.1441  0.0263  0.1682
   50MOL    C4713865   6.360   3.438   1.674  0.0903  0.3695 -0.1622
   50MOL    C4813866   6.230   3.495   1.635  0.1863 -0.0359  0.6751
   50MOL    C4913867   6.108   3.478   1.689 -0.0714 -0.1360 -0.5118
   50MOL    C5013868   6.378   3.328   1.760 -0.2781  0.4516 -0.7998
   50MOL    C5113869   6.501   3.264   1.774  0.1618 -0.7792 -0.8427
   50MOL    H5213870   6.686   3.476   1.579  0.8642 -0.1226  1.6224
   50MOL    H5313871   6.461   3.567   1.532  2.6596  0.1065 -0.3074
   50MOL    H5413872   6.239   3.561   1.550  3.6249  0.5813  1.4270
   50MOL    H5513873   6.096   3.409   1.771 -0.0780 -1.3190 -1.4968
   50MOL    H5613874   6.287   3.280   1.791 -0.8774  2.6526  0.9943
   50MOL    H5713875   6.515   3.179   1.839 -1.0125 -0.2560  0.0976
   50MOL    C5813876   5.981   3.553   1.645  1.1007  0.1517 -0.1935
   50MOL    C5913877   5.866   3.543   1.722 -0.1110  0.3748 -0.0436
   50MOL    C6013878   5.748   3.609   1.681  0.0317 -0.0953  0.2703
   50MOL    C6113879   5.741   3.687   1.563 -0.1304 -0.5843 -0.0301
   50MOL    C6213880   5.626   3.770   1.534 -0.0872  0.5736 -0.3325
   50MOL    C6313881   5.514   3.775   1.613 -0.0024  0.3575  0.0268
   50MOL    C6413882   5.856   3.693   1.481  0.0787  0.3152 -0.6867
   50MOL    C6513883   5.975   3.633   1.527  0.2046  0.8512  0.5592
   50MOL    H6613884   5.866   3.485   1.813  1.3052 -2.4921 -1.8052
   50MOL    H6713885   5.672   3.604   1.757 -1.8299 -2.0817 -1.6450
   50MOL    H6813886   5.643   3.836   1.450  0.9367 -0.7055 -1.1570
   50MOL    H6913887   5.494   3.703   1.692 -0.6165 -1.5885 -1.8524
   50MOL    H7013888   5.850   3.752   1.391 -0.5182  0.9655 -0.2210
   50MOL    H7113889   6.064   3.650   1.467 -1.6045 -0.5119 -2.6791
   50MOL    C7213890   5.399   3.858   1.582  0.1409 -0.5945  0.4090
   50MOL    C7313891   5.390   3.917   1.452 -0.5608 -0.0601  0.3308
   50MOL    C7413892   5.289   4.016   1.423  0.3916  0.0248 -0.0426
   50MOL    C7513893   5.193   4.063   1.519  0.1274 -0.4065  0.0421
   50MOL    C7613894   5.074   4.149   1.491  0.1944  0.8496 -0.4199
   50MOL    C7713895   4.969   4.164   1.576  0.1171 -0.1327  0.4480
   50MOL    C7813896   5.209   3.999   1.645 -0.0126  0.1257 -0.0721
   50MOL    C7913897   5.310   3.905   1.673  0.0057  0.0251  0.7383
   50MOL    H8013898   5.448   3.893   1.364 -0.9187 -0.0079  0.0770
   50MOL    H8113899   5.289   4.052   1.321 -0.3568 -0.1437 -0.1077
   50MOL    H8213900   5.075   4.200   1.395  2.3107 -2.1997 -2.0946
   50MOL    H8313901   4.965   4.106   1.667  2.6283 -1.4107 -0.2374
   50MOL    H8413902   5.147   4.039   1.724  0.0849  2.2643 -1.0463
   50MOL    H8513903   5.323   3.869   1.774 -0.1027 -3.1433 -0.3308
   50MOL    C8613904   4.851   4.239   1.553  0.2450  0.4593  0.2909
   50MOL    C8713905   4.827   4.322   1.437  0.3181  0.2762  0.5974
   50MOL    C8813906   4.703   4.383   1.426 -0.3927  0.6693 -0.2296
   50MOL    C8913907   4.614   4.382   1.528  0.4344 -0.2686 -0.5354
   50MOL    C9013908   4.492   4.459   1.509 -0.5791  1.0150 -0.7993
   50MOL    C9113909   4.417   4.497   1.610  0.5062  0.9365 -0.3485
   50MOL    C9213910   4.632   4.301   1.646  0.0612 -0.2309 -0.4649
   50MOL    C9313911   4.754   4.223   1.652 -0.0724 -0.2326  0.3311
   50MOL    H9413912   4.905   4.323   1.362  0.6149  1.7112  0.9212
   50MOL    H9513913   4.685   4.434   1.333 -0.1716  1.2131  0.0190
   50MOL    H9613914   4.465   4.472   1.405 -1.3149 -0.4696 -0.7988
   50MOL    H9713915   4.447   4.476   1.711  0.2194 -0.2724 -0.5135
   50MOL    H9813916   4.559   4.284   1.724 -0.8685  0.0320 -1.2693
   50MOL    H9913917   4.766   4.170   1.745  2.0163 -2.5316 -1.1734
   50MOL   C10013918   4.289   4.564   1.593 -0.5272 -0.3100  0.2662
   50MOL   C10113919   4.208   4.587   1.709  0.4871  0.3688 -0.2370
   50MOL   C10213920   4.089   4.659   1.703  0.3088 -0.0344  0.0846
   50MOL   C10313921   4.039   4.703   1.579 -0.0372  0.0650 -0.3108
   50MOL   C10413922   3.917   4.782   1.574  0.5912 -0.3208 -0.3120
   50MOL   C10513923   3.816   4.785   1.666  0.6550 -0.9321 -0.2689
   50MOL   C10613924   4.102   4.669   1.466 -1.2510 -0.3895 -0.5998
   50MOL   C10713925   4.237   4.617   1.473 -0.3755 -0.3251  0.2504
   50MOL   H10813926   4.244   4.545   1.802  1.2254  0.4051 -0.4974
   50MOL   H10913927   4.037   4.677   1.796 -0.8792 -1.1871 -0.3268
   50MOL   H11013928   3.900   4.842   1.487  1.0059 -0.4445 -0.4819
   50MOL   H11113929   3.812   4.733   1.761  0.3007  1.5849  1.1551
   50MOL   H11213930   4.075   4.712   1.370 -0.9944  1.4553  0.1223
   50MOL   H11313931   4.287   4.604   1.378 -1.7444 -0.3592 -0.4799
   50MOL   C11413932   3.690   4.857   1.644  0.1271  0.2441 -0.0612
   50MOL   C11513933   3.642   4.881   1.511 -0.2446 -0.0538  0.4568
   50MOL   C11613934   3.529   4.963   1.499  0.9259 -0.1833 -0.2913
   50MOL   C11713935   3.471   5.026   1.611  1.1808 -0.2881 -0.3839
   50MOL   C11813936   3.356   5.118   1.589  0.0294  0.1277 -1.0845
   50MOL   C11913937   3.272   5.153   1.689  0.0538  0.5077 -0.1590
   50MOL   C12013938   3.519   5.000   1.735 -0.3387 -1.0152 -0.3243
   50MOL   C12113939   3.622   4.908   1.756  0.2367 -0.7085 -0.0517
   50MOL   H12213940   3.698   4.846   1.425 -0.7289  0.2971 -0.0022
   50MOL   H12313941   3.500   4.968   1.395  2.2499 -0.8556 -0.7013
   50MOL   H12413942   3.339   5.158   1.490 -0.0452  0.4977 -0.9203
   50MOL   H12513943   3.293   5.112   1.787 -0.3636  0.7459  0.0315
   50MOL   H12613944   3.483   5.035   1.831 -0.2369  1.2791 -1.0905
   50MOL   H12713945   3.663   4.896   1.855  2.0269  0.1915 -0.6619
   50MOL   C12813946   3.149   5.233   1.681  0.3286  0.1205 -0.2914
   50MOL   C12913947   3.097   5.270   1.554 -1.0386 -0.5447 -0.4575
   50MOL   C13013948   2.988   5.350   1.538  0.1632 -0.0734  0.6413
   50MOL   C13113949   2.918   5.398   1.651  0.1832  0.3391 -0.5939
   50MOL   C13213950   2.803   5.487   1.634  0.0968  0.2730 -0.5401
   50MOL   C13313951   2.788   5.570   1.529 -0.1262  0.5937 -0.1675
   50MOL   C13413952   2.962   5.358   1.780  0.2306  0.4316  0.0462
   50MOL   C13513953   3.075   5.269   1.790  0.5794  0.2551 -0.9141
   50MOL   H13613954   3.158   5.242   1.470  0.1701  1.0863 -0.1308
   50MOL   H13713955   2.953   5.370   1.438 -0.1328 -3.2030  0.0509
   50MOL   H13813956   2.723   5.465   1.704 -1.1262  0.8435 -1.7311
   50MOL   H13913957   2.872   5.589   1.464 -0.8073 -0.2114 -1.3174
   50MOL   H14013958   2.911   5.395   1.868 -0.4859 -1.8290  0.6111
   50MOL   H14113959   3.114   5.230   1.883  0.9100  3.3408  0.2965
   50MOL   C14213960   2.669   5.651   1.498  0.4124 -0.5250  0.1243
   50MOL   C14313961   2.659   5.721   1.374 -0.5959 -0.3065  0.1302
   50MOL   C14413962   2.546   5.799   1.347  0.0338  0.1362  0.0952
   50MOL   C14513963   2.432   5.800   1.438  0.3211 -0.1213  1.1693
   50MOL   C14613964   2.302   5.858   1.395 -0.0175 -0.0161 -0.1397
   50MOL   C14713965   2.259   5.891   1.271 -0.0741  1.1663 -0.4664
   50MOL   C14813966   2.444   5.731   1.555 -0.0468  0.5836  0.2171
   50MOL   C14913967   2.561   5.663   1.595 -0.2039 -0.4643  0.2360
   50MOL   H15013968   2.741   5.709   1.306 -1.0356  2.8017 -1.0603
   50MOL   H15113969   2.549   5.858   1.256 -1.6848  1.8990  1.1480
   50MOL   H15213970   2.234   5.881   1.476 -0.1500 -1.8607  0.3056
   50MOL   H15313971   2.333   5.874   1.194 -0.7114  0.1388 -0.8587
   50MOL   H15413972   2.357   5.738   1.618 -0.1768 -0.2485  0.1429
   50MOL   H15513973   2.565   5.615   1.692  0.0610 -0.4894  0.2141
   50MOL   C15613974   2.138   5.949   1.226 -0.5587  0.1513 -0.0421
   50MOL   C15713975   2.057   6.022   1.314 -0.6430  0.2982 -0.5121
   50MOL   C15813976   1.925   6.063   1.280 -0.0594  1.0865  0.0726
   50MOL   C15913977   1.872   6.024   1.150  0.0951  0.3576  0.2253
   50MOL   C16013978   1.737   6.060   1.099 -0.5726  0.2741 -0.9645
   50MOL   C16113979   1.670   6.177   1.114  0.2600 -0.1492 -0.0190
   50MOL   C16213980   1.959   5.953   1.063 -0.2240 -0.3774 -0.6132
   50MOL   C16313981   2.089   5.911   1.099  0.1292  0.4400 -0.0210
   50MOL   H16413982   2.091   6.037   1.416  0.1183  0.6780 -0.8253
   50MOL   H16513983   1.864   6.109   1.356  0.7309  2.4178 -0.0829
   50MOL   H16613984   1.686   5.975   1.057 -0.7363 -0.2276  0.2251
   50MOL   H16713985   1.719   6.262   1.159 -1.2924  0.1510  1.1742
   50MOL   H16813986   1.942   5.931   0.958 -2.0997 -0.9725 -0.2061
   50MOL   H16913987   2.138   5.851   1.025 -1.5518 -1.0853  0.0606
   50MOL   C17013988   1.530   6.193   1.072  0.9647  0.4740  0.0044
   50MOL   C17113989   1.462   6.309   1.120 -0.1429 -0.0367 -0.4939
   50MOL   C17213990   1.332   6.342   1.083  0.4406  0.0759 -0.1627
   50MOL   C17313991   1.264   6.260   1.001  0.4388 -0.6457  0.0453
   50MOL   C17413992   1.134   6.296   0.937  1.1214 -0.3928  0.1337
   50MOL   C17513993   1.076   6.418   0.953 -0.4533 -0.3739  0.3493
   50MOL   C17613994   1.321   6.137   0.966  0.2666 -0.1709  0.1423
   50MOL   C17713995   1.456   6.106   0.992 -0.6258  0.4636 -0.1305
   50MOL   H17813996   1.517   6.379   1.181 -0.2149 -0.0026 -0.4675
   50MOL   H17913997   1.297   6.436   1.124  3.1158  0.7044  0.7829
   50MOL   H18013998   1.091   6.211   0.887  0.6928 -0.0292 -0.1122
   50MOL   H18113999   1.127   6.495   1.009 -0.2884  0.7860 -1.3509
   50MOL   H18214000   1.264   6.075   0.898  0.3982  0.3663 -0.4638
   50MOL   H18314001   1.500   6.011   0.966 -0.5160  0.7296 -0.9420
   50MOL   C18414002   0.944   6.459   0.909 -0.2943  0.6738 -0.2359
   50MOL   C18514003   0.879   6.390   0.806 -0.2410 -0.0832  0.3112
   50MOL   C18614004   0.751   6.424   0.763 -0.0535 -0.0954 -0.4267
   50MOL   C18714005   0.686   6.534   0.822  0.2651  0.0242 -0.6836
   50MOL   C18814006   0.559   6.574   0.762 -0.3935  0.0568  0.0543
   50MOL   C18914007   0.469   6.656   0.826 -0.2433  0.2457  0.2516
   50MOL   C19014008   0.750   6.605   0.927  0.4864  0.4316 -0.7488
   50MOL   C19114009   0.876   6.559   0.977 -0.0645 -0.5507 -0.1602
   50MOL   H19214010   0.918   6.298   0.764  0.6223  0.5468 -0.2554
   50MOL   H19314011   0.709   6.359   0.688  2.7291 -1.6529 -0.6950
   50MOL   H19414012   0.539   6.531   0.665 -0.4741 -0.5826  0.3483
   50MOL   H19514013   0.506   6.705   0.914 -0.4380  0.0185  0.4613
   50MOL   H19614014   0.705   6.694   0.970  0.2182  0.0488 -0.2268
   50MOL   H19714015   0.917   6.608   1.064  1.9722 -0.9321 -0.8707
   50MOL   C19814016   0.336   6.688   0.770  0.1360  0.6239  0.1423
   50MOL   C19914017   0.255   6.790   0.833 -1.0140 -0.4708  0.1356
   50MOL   C20014018   0.140   6.835   0.765  0.0598 -0.6000  0.5843
   50MOL   C20114019   0.086   6.766   0.659 -1.0313  0.3681  0.3889
   50MOL   C20214020   8.100   6.805   0.616  0.0283  0.3708  0.0536
   50MOL   C20314021   8.016   6.760   0.520 -0.0878  0.2716 -0.1056
   50MOL   C20414022   0.154   6.656   0.603  0.3850 -0.3004 -0.2294
   50MOL   C20514023   0.284   6.628   0.657 -0.2945  0.4574 -0.4226
   50MOL   H20614024   0.306   6.844   0.911 -0.2029 -0.1936 -0.5815
   50MOL   H20714025   0.097   6.926   0.804  0.9415 -0.6388  1.6703
   50MOL   H20814026   8.066   6.894   0.668  0.1179  0.7054 -0.4557
   50MOL   H20914027   8.048   6.677   0.458  2.0147  0.4942  0.6441
   50MOL   H21014028   0.124   6.596   0.519 -2.0813 -0.0807  0.4483
   50MOL   H21114029   0.337   6.547   0.610  0.7562  0.8788  0.0102
   50MOL   C21214030   7.890   6.829   0.498  0.4522 -0.1225  0.4565
   50MOL   C21314031   7.840   6.945   0.569 -0.1350  0.3129 -0.7012
   50MOL   C21414032   7.707   6.993   0.547 -0.7045 -0.2935  0.1138
   50MOL   C21514033   7.621   6.932   0.457  0.5219 -0.2769  0.4131
   50MOL   C21614034   7.487   6.988   0.438 -0.0050  0.2667  0.4367
   50MOL   C21714035   7.382   6.940   0.369 -0.1771  0.0992 -0.2483
   50MOL   C21814036   7.667   6.819   0.381  0.4353  0.1024 -0.1424
   50MOL   C21914037   7.796   6.769   0.406  0.0343 -0.2635 -0.2465
   50MOL   H22014038   7.897   6.990   0.648 -0.4917 -1.1549  0.4204
   50MOL   H22114039   7.673   7.083   0.596  0.4743  0.5629 -0.6125
   50MOL   H22214040   7.481   7.085   0.485 -0.2498 -0.4374  1.8938
   50MOL   H22314041   7.407   6.841   0.335 -0.6171 -0.9153  2.2295
   50MOL   H22414042   7.601   6.773   0.309 -1.5588  1.4273  0.7998
   50MOL   H22514043   7.820   6.675   0.358 -1.2588 -0.1199 -1.1991
   50MOL   C22614044   7.245   6.995   0.345  0.5026 -0.2726  0.3509
   50MOL   C22714045   7.195   7.100   0.422 -0.6555 -0.0529 -0.2702
   50MOL   C22814046   7.059   7.139   0.407 -0.0336  0.0210  0.3393
   50MOL   C22914047   6.978   7.085   0.309  0.5722  0.6144  0.1842
   50MOL   C23014048   6.848   7.146   0.281 -0.4674  0.4301 -0.1821
   50MOL   C23114049   6.764   7.135   0.176  0.4929 -0.4971 -0.0589
   50MOL   C23214050   7.025   6.974   0.234  0.3447 -0.0712  0.0435
   50MOL   C23314051   7.159   6.930   0.251  0.5717 -0.6558 -0.7946
   50MOL   H23414052   7.269   7.144   0.487 -0.2093  1.3186 -1.6663
   50MOL   H23514053   7.029   7.229   0.459  1.7310  0.5857  0.4290
   50MOL   H23614054   6.816   7.221   0.353 -3.0077 -1.1398  0.4035
   50MOL   H23714055   6.789   7.072   0.092 -1.4723  1.5823 -2.3027
   50MOL   H23814056   6.958   6.939   0.157  1.3694 -0.5122 -0.6573
   50MOL   H23914057   7.200   6.849   0.193 -0.4237 -2.0329  0.3958
   50MOL   C24014058   6.633   7.195   0.161  0.6902  0.4442 -0.8751
   50MOL   C24114059   6.566   7.177   0.044  0.0238 -0.2329  0.0097
   50MOL   C24214060   6.447   7.241   0.022  0.3428  0.3633  0.6048
   50MOL   C24314061   6.382   7.318   0.124 -0.3931  0.1812  0.0406
   50MOL   C24414062   6.255   7.388   0.089  0.0378  1.1463 -0.2370
   50MOL   C24514063   6.210   7.492   0.160 -0.3359  0.5067 -0.2621
   50MOL   C24614064   6.448   7.330   0.247  0.8381  0.1309  0.3838
   50MOL   C24714065   6.573   7.271   0.263 -0.4454 -0.0238  0.0931
   50MOL   H24814066   6.614   7.124   8.107 -1.3533 -1.2529 -0.1643
   50MOL   H24914067   6.395   7.216   8.076  2.6714 -0.3559 -0.5697
   50MOL   H25014068   6.202   7.355   0.001  0.6819  2.2951 -1.0681
   50MOL   H25114069   6.270   7.529   0.241  0.9561  0.0012 -0.9640
   50MOL   H25214070   6.414   7.388   0.331  0.4232  1.6884 -0.8461
   50MOL   H25314071   6.625   7.277   0.357  0.0604 -0.3391 -0.1608
   50MOL   C25414072   6.083   7.568   0.138  0.5626  0.2723  0.9567
   50MOL   C25514073   6.043   7.675   0.227  0.1932  0.2470 -0.2799
   50MOL   C25614074   5.917   7.735   0.223  0.6644  0.5574  0.3128
   50MOL   C25714075   5.827   7.705   0.113  1.2636  0.8911 -0.8566
   50MOL   C25814076   5.701   7.781   0.101  0.0015  0.6697 -0.0311
   50MOL   C25914077   5.649   7.839   8.133 -0.0122  0.4821 -0.7039
   50MOL   C26014078   5.869   7.604   0.021  0.0778 -0.6731  0.3158
   50MOL   C26114079   5.995   7.534   0.032  0.2379 -0.4074  0.4737
   50MOL   H26214080   6.118   7.713   0.294  0.3872 -1.5098  0.5434
   50MOL   H26314081   5.876   7.804   0.295 -2.1154 -1.1604  0.4345
   50MOL   H26414082   5.641   7.790   0.190 -0.5063 -0.3932 -0.2590
   50MOL   H26514083   5.553   7.882   0.012 -0.1392 -1.3393  2.4855
   50MOL   H26614084   5.802   7.571   8.088  1.8439 -0.9147 -1.1366
   50MOL   H26714085   6.020   7.456   8.107  4.2804 -0.1163  1.4998
   50MOL   C26814086   5.707   7.865   8.003 -0.3946  0.1521 -0.4558
   50MOL   C26914087   5.847   7.872   7.984 -0.0150  0.4713 -0.1829
   50MOL   C27014088   5.903   7.890   7.852 -0.1318  0.0181  0.1479
   50MOL   C27114089   5.822   7.894   7.745  0.4830 -0.1862 -0.1988
   50MOL   C27214090   5.870   7.901   7.608 -0.6674 -0.1907 -0.4088
   50MOL   C27314091   5.999   7.911   7.576  0.6045 -1.2589  0.4977
   50MOL   C27414092   5.680   7.889   7.767  0.2226  0.6027 -0.1927
   50MOL   C27514093   5.625   7.883   7.893 -0.1295  0.3129 -0.7824
   50MOL   H27614094   5.919   7.872   8.065 -0.7921 -2.0003  0.5434
   50MOL   H27714095   6.009   7.897   7.838  0.0149 -0.1077  1.1209
   50MOL   H27814096   5.796   7.894   7.529 -1.6256  0.5195  0.4126
   50MOL   H27914097   6.077   7.914   7.650 -0.0862  0.7228  1.1650
   50MOL   H28014098   5.617   7.891   7.679 -1.1064 -0.4354  0.7292
   50MOL   H28114099   5.520   7.890   7.916 -0.0593 -1.5099  0.1531
   50MOL   H28214100   6.024   7.925   7.472  1.4647 -2.6241  0.5004
   51MOL     C114101   2.466   4.518   3.685 -0.1263  0.4208 -0.1249
   51MOL     C214102   2.433   4.397   3.624  0.8790  0.1706  0.8362
   51MOL     C314103   2.317   4.393   3.541  0.3394 -0.8823 -0.9052
   51MOL     C414104   2.225   4.504   3.532 -1.0631 -0.0528  0.3616
   51MOL     C514105   2.103   4.491   3.453 -0.1879 -0.0499 -0.2122
   51MOL     C614106   2.011   4.593   3.432 -1.5665  0.5540  0.9541
   51MOL     C714107   2.261   4.623   3.605 -0.4484  0.0506  1.0412
   51MOL     C814108   2.385   4.632   3.669  0.4062  0.1471 -0.1791
   51MOL     H914109   2.501   4.315   3.639 -0.0629 -0.6003  0.9371
   51MOL    H1014110   2.291   4.305   3.484 -0.1237 -1.3054 -0.0493
   51MOL    H1114111   2.086   4.399   3.400  0.1202  0.5817 -1.4225
   51MOL    H1214112   2.024   4.693   3.472 -0.2181  1.4156 -1.5417
   51MOL    H1314113   2.196   4.709   3.604  0.8961  1.0875 -1.0885
   51MOL    H1414114   2.417   4.722   3.719 -1.6090  1.0427 -0.4338
   51MOL    H1514115   2.554   4.528   3.746 -0.7042 -0.9848  0.9697
   51MOL    C1614116   1.894   4.594   3.342  0.6100  0.4001 -0.0480
   51MOL    C1714117   1.847   4.477   3.288 -0.1963  0.5039 -1.0778
   51MOL    C1814118   1.735   4.477   3.205 -0.0581 -0.0721 -0.0977
   51MOL    C1914119   1.662   4.593   3.179 -0.7232  0.1660 -0.6571
   51MOL    C2014120   1.543   4.597   3.094  0.0679  0.1334 -0.3578
   51MOL    C2114121   1.466   4.499   3.054  0.6110  0.2742  0.2865
   51MOL    C2214122   1.701   4.720   3.236 -0.0699 -0.0983 -0.5051
   51MOL    C2314123   1.825   4.716   3.312 -0.4470  0.4774  0.1428
   51MOL    H2414124   1.883   4.376   3.306  0.6232  1.1626  1.1859
   51MOL    H2514125   1.696   4.384   3.166  0.4549 -0.7959  1.0678
   51MOL    H2614126   1.506   4.695   3.068  0.0830  0.3771  0.5560
   51MOL    H2714127   1.487   4.396   3.077 -0.7385  0.1785  1.1885
   51MOL    H2814128   1.649   4.814   3.226  0.2760  0.0369 -0.9986
   51MOL    H2914129   1.865   4.807   3.353  2.7008 -0.4027 -0.8874
   51MOL    C3014130   1.334   4.505   2.977  0.3635  0.9798  0.1097
   51MOL    C3114131   1.268   4.623   2.936 -0.4637  0.2551 -0.4272
   51MOL    C3214132   1.146   4.607   2.863 -0.5731  0.2562  0.0343
   51MOL    C3314133   1.080   4.488   2.841  0.4439 -0.1070 -0.2529
   51MOL    C3414134   0.954   4.481   2.778  0.0826 -0.1433  1.0506
   51MOL    C3514135   0.878   4.373   2.736  0.6015  0.3375  0.3555
   51MOL    C3614136   1.147   4.372   2.884 -0.3067 -0.4398 -0.6335
   51MOL    C3714137   1.269   4.379   2.953  0.2019  0.5031  0.8033
   51MOL    H3814138   1.310   4.720   2.955  0.6937 -0.4485  0.7573
   51MOL    H3914139   1.101   4.693   2.815 -0.1737 -0.5188 -1.7758
   51MOL    H4014140   0.901   4.574   2.767  1.4440  0.6338  0.9157
   51MOL    H4114141   0.915   4.274   2.756 -2.9153 -0.8570  1.4607
   51MOL    H4214142   1.100   4.276   2.869 -1.0967  0.0922 -1.6102
   51MOL    H4314143   1.315   4.283   2.966 -0.5021 -0.2883 -2.2884
   51MOL    C4414144   0.745   4.369   2.669  0.5652  0.5002  0.0446
   51MOL    C4514145   0.661   4.254   2.674 -0.6605  0.7186 -0.2810
   51MOL    C4614146   0.526   4.266   2.643 -0.0194  0.1851  0.3931
   51MOL    C4714147   0.470   4.387   2.588 -0.8322  0.0735 -0.1269
   51MOL    C4814148   0.324   4.407   2.564 -0.0240  0.1665  0.6795
   51MOL    C4914149   0.235   4.305   2.570  1.1315 -0.3298  0.1015
   51MOL    C5014150   0.561   4.495   2.569  0.7846 -0.1915  0.2408
   51MOL    C5114151   0.690   4.488   2.612 -0.2787  0.1742 -0.3268
   51MOL    H5214152   0.702   4.163   2.714 -0.8099 -0.1740 -2.0869
   51MOL    H5314153   0.466   4.179   2.665  2.1424 -0.6304  3.2956
   51MOL    H5414154   0.295   4.506   2.532 -0.3316 -0.0481  0.2957
   51MOL    H5514155   0.261   4.202   2.590 -1.0489 -0.9357 -0.0357
   51MOL    H5614156   0.529   4.595   2.541 -0.9149 -0.0398  2.5522
   51MOL    H5714157   0.755   4.574   2.602 -1.5697  1.2687  0.6460
   51MOL    C5814158   0.087   4.333   2.557  0.2993 -0.6001  0.2861
   51MOL    C5914159   8.135   4.234   2.598 -0.2480 -0.0699  1.0708
   51MOL    C6014160   8.000   4.255   2.585  0.8266 -0.0316  0.1822
   51MOL    C6114161   7.951   4.372   2.545 -0.2625 -0.5632  0.2504
   51MOL    C6214162   7.803   4.389   2.550 -0.3144 -0.0514  0.8023
   51MOL    C6314163   7.744   4.470   2.465  0.6427 -0.0440 -0.0305
   51MOL    C6414164   8.038   4.472   2.497  0.0511 -0.0717 -0.7894
   51MOL    C6514165   0.035   4.456   2.503 -0.1107 -0.4678 -0.4581
   51MOL    H6614166   0.034   4.140   2.628  1.7561 -0.0929 -1.7332
   51MOL    H6714167   7.932   4.178   2.620 -0.0715  2.0709  3.2782
   51MOL    H6814168   7.753   4.328   2.624 -1.3328 -0.3718 -0.1466
   51MOL    H6914169   7.799   4.526   2.391  1.0603 -0.5187 -0.0811
   51MOL    H7014170   8.004   4.573   2.478 -0.4514  0.1877  1.3322
   51MOL    H7114171   0.096   4.540   2.471 -1.7563  0.9385  0.0459
   51MOL    C7214172   7.596   4.502   2.458 -0.4019  0.2939  1.0438
   51MOL    C7314173   7.504   4.450   2.551 -0.2544  0.5006  0.3436
   51MOL    C7414174   7.363   4.473   2.542 -0.5386 -1.2842  0.2019
   51MOL    C7514175   7.313   4.558   2.439  0.5478  0.2384 -0.1674
   51MOL    C7614176   7.175   4.616   2.432 -0.0715  0.4627  0.4445
   51MOL    C7714177   7.077   4.600   2.527 -0.4230 -0.3394 -0.4276
   51MOL    C7814178   7.405   4.613   2.348 -0.8421 -0.5710 -0.0850
   51MOL    C7914179   7.547   4.590   2.360  0.4199  0.6220  0.2383
   51MOL    H8014180   7.542   4.386   2.630  1.4790  0.5989 -0.3919
   51MOL    H8114181   7.295   4.437   2.618 -2.4052 -1.7649 -1.6473
   51MOL    H8214182   7.145   4.675   2.347  0.2903  1.2788  0.8746
   51MOL    H8314183   7.103   4.541   2.613 -0.5839 -1.1603 -0.9338
   51MOL    H8414184   7.372   4.673   2.265  0.3112  0.1002 -0.0571
   51MOL    H8514185   7.615   4.625   2.283  1.8065 -1.3524  0.5495
   51MOL    C8614186   6.939   4.649   2.522 -0.5244 -0.1037 -0.0948
   51MOL    C8714187   6.888   4.718   2.413  0.2441 -0.3473 -1.2870
   51MOL    C8814188   6.749   4.750   2.409  0.0492  0.1047  0.2878
   51MOL    C8914189   6.655   4.702   2.509  0.2096 -0.1270 -0.0823
   51MOL    C9014190   6.517   4.745   2.506  0.4763 -0.0725  0.6512
   51MOL    C9114191   6.452   4.796   2.395 -0.4012  0.4655 -0.1306
   51MOL    C9214192   6.709   4.640   2.626 -0.0573 -0.2611  0.5842
   51MOL    C9314193   6.853   4.615   2.629 -0.2583 -0.0490 -0.7505
   51MOL    H9414194   6.948   4.748   2.328 -1.1393  2.3028 -1.3684
   51MOL    H9514195   6.717   4.806   2.322 -0.4100 -1.2918 -0.4603
   51MOL    H9614196   6.464   4.748   2.599  0.7356 -2.7627  0.9333
   51MOL    H9714197   6.508   4.805   2.303 -0.5570  1.1585 -0.1555
   51MOL    H9814198   6.637   4.605   2.699  0.2156 -1.8081  0.1246
   51MOL    H9914199   6.884   4.570   2.722 -3.5875 -0.7712  0.0663
   51MOL   C10014200   6.323   4.860   2.389  0.2639  0.2228  0.8916
   51MOL   C10114201   6.282   4.884   2.254 -0.4793  0.4099 -0.5802
   51MOL   C10214202   6.169   4.967   2.225 -0.5619  0.0628 -0.6804
   51MOL   C10314203   6.080   4.997   2.337 -0.1857 -0.4812  0.1855
   51MOL   C10414204   5.948   5.060   2.314  0.1732  0.7675  0.4542
   51MOL   C10514205   5.866   5.110   2.407 -0.2337  0.6252 -0.0521
   51MOL   C10614206   6.117   4.961   2.470  0.5465  0.4919 -0.9595
   51MOL   C10714207   6.242   4.891   2.496 -0.3734  0.9427  0.2827
   51MOL   H10814208   6.345   4.857   2.170  1.2632  1.1714  0.4457
   51MOL   H10914209   6.144   4.988   2.122  3.2950 -0.0062 -1.7144
   51MOL   H11014210   5.911   5.076   2.213  0.2547  2.4562  0.6684
   51MOL   H11114211   5.894   5.098   2.511 -0.3627 -0.9995 -0.1844
   51MOL   H11214212   6.053   4.990   2.552  1.5223  0.9009 -0.3263
   51MOL   H11314213   6.264   4.850   2.594 -2.5571 -1.0386 -0.0014
   51MOL   C11414214   5.740   5.184   2.393 -0.4090 -0.9693  1.2765
   51MOL   C11514215   5.695   5.251   2.507  0.1495  0.1592  0.8657
   51MOL   C11614216   5.577   5.326   2.500 -0.5389 -0.7474  0.0795
   51MOL   C11714217   5.507   5.340   2.372  0.6140  0.7628  0.1762
   51MOL   C11814218   5.394   5.432   2.349  0.3331  0.3402 -0.1306
   51MOL   C11914219   5.344   5.530   2.431  0.8930 -0.0102 -0.1910
   51MOL   C12014220   5.555   5.269   2.263 -0.5721  0.1417 -0.1885
   51MOL   C12114221   5.667   5.190   2.271  0.0490 -0.4758 -0.4021
   51MOL   H12214222   5.750   5.252   2.600  0.2874  0.0840  0.7854
   51MOL   H12314223   5.549   5.384   2.586  0.5556 -1.9828  1.2841
   51MOL   H12414224   5.353   5.410   2.251  1.0111 -1.1878 -0.0765
   51MOL   H12514225   5.388   5.542   2.529 -1.6625 -0.9578  1.1110
   51MOL   H12614226   5.499   5.265   2.170  0.8393  2.3965 -1.1816
   51MOL   H12714227   5.698   5.133   2.185 -0.2663 -2.0299  0.4825
   51MOL   C12814228   5.232   5.624   2.407 -0.5497 -0.7862 -0.7657
   51MOL   C12914229   5.204   5.712   2.511  0.0990 -0.4772  0.8884
   51MOL   C13014230   5.101   5.808   2.499  0.3607  0.8408 -0.7437
   51MOL   C13114231   5.027   5.809   2.380 -0.2234  0.2706 -0.1215
   51MOL   C13214232   4.918   5.908   2.368 -0.2785 -0.3666  0.0416
   51MOL   C13314233   4.809   5.901   2.294  0.5045  0.0104  0.2497
   51MOL   C13414234   5.048   5.718   2.277  0.2981 -0.2666 -0.4607
   51MOL   C13514235   5.154   5.627   2.290  0.2628 -0.0897 -0.9885
   51MOL   H13614236   5.265   5.708   2.600  1.1564 -0.5424  0.1677
   51MOL   H13714237   5.084   5.871   2.584 -0.5322 -1.5610  0.9055
   51MOL   H13814238   4.934   5.998   2.425 -0.8598 -1.2860  1.6956
   51MOL   H13914239   4.776   5.824   2.226  0.8401 -0.3259  0.4648
   51MOL   H14014240   4.979   5.706   2.195  0.6292  2.3630 -1.1678
   51MOL   H14114241   5.168   5.558   2.208  0.0493 -1.4652  0.1122
   51MOL   C14214242   4.706   6.011   2.295 -0.4770 -0.5135  1.6819
   51MOL   C14314243   4.687   6.099   2.407  0.1517  0.1846  0.0142
   51MOL   C14414244   4.595   6.205   2.405 -0.4745 -0.0096 -0.1508
   51MOL   C14514245   4.499   6.216   2.300 -0.0012 -0.2061 -0.2695
   51MOL   C14614246   4.390   6.315   2.306 -0.0868 -0.6654 -0.3753
   51MOL   C14714247   4.312   6.360   2.207 -0.4294  0.4671  0.4795
   51MOL   C14814248   4.520   6.137   2.186  0.3762  0.1240  0.1516
   51MOL   C14914249   4.622   6.036   2.185 -0.1359 -0.4332 -0.4232
   51MOL   H15014250   4.747   6.083   2.495 -0.2366 -0.2787  0.1972
   51MOL   H15114251   4.585   6.267   2.492  2.0815 -0.6094  0.6142
   51MOL   H15214252   4.368   6.357   2.402 -4.7776  2.3741 -2.6210
   51MOL   H15314253   4.326   6.324   2.107 -4.9535 -1.1782  0.3251
   51MOL   H15414254   4.450   6.134   2.103  2.0769  1.1343 -1.3616
   51MOL   H15514255   4.634   5.989   2.089 -2.9070  0.2350 -1.1439
   51MOL   C15614256   4.194   6.450   2.222  0.1815 -0.4999  0.3309
   51MOL   C15714257   4.107   6.465   2.118  0.2150 -0.1787  0.2613
   51MOL   C15814258   3.997   6.554   2.118 -0.0706  0.0096 -0.3462
   51MOL   C15914259   3.974   6.623   2.241 -0.5681  0.6004  0.1799
   51MOL   C16014260   3.864   6.713   2.257 -0.3619  0.2585  0.3427
   51MOL   C16114261   3.761   6.721   2.177 -0.2214  0.0234 -0.0118
   51MOL   C16214262   4.059   6.607   2.351  0.6528 -0.1234  0.1885
   51MOL   C16314263   4.170   6.528   2.335 -0.0629  0.2263 -0.2043
   51MOL   H16414264   4.126   6.417   2.023 -1.2467  2.2058 -1.3200
   51MOL   H16514265   3.941   6.571   2.027 -1.2015  0.8343  0.5030
   51MOL   H16614266   3.866   6.778   2.343  0.0269  1.1235 -0.3181
   51MOL   H16714267   3.749   6.661   2.088 -1.6591  0.2824 -0.0088
   51MOL   H16814268   4.040   6.662   2.442 -2.3280  3.5392 -2.4792
   51MOL   H16914269   4.234   6.529   2.422 -0.5326 -2.7628  0.2437
   51MOL   C17014270   3.644   6.811   2.187 -0.3537 -0.4803 -0.1371
   51MOL   C17114271   3.602   6.868   2.069  0.1372 -0.2200 -0.1445
   51MOL   C17214272   3.482   6.941   2.065 -0.2366  0.0561 -0.5271
   51MOL   C17314273   3.407   6.963   2.178  0.0511 -0.0597 -0.3486
   51MOL   C17414274   3.279   7.032   2.173  0.4091  0.4484 -0.0725
   51MOL   C17514275   3.199   7.057   2.274  0.1147  0.4395 -0.0988
   51MOL   C17614276   3.447   6.903   2.300 -0.3425 -0.5982  0.5206
   51MOL   C17714277   3.565   6.826   2.299  0.0888  0.7752  0.1459
   51MOL   H17814278   3.669   6.859   1.985  0.7139  0.0240  0.2868
   51MOL   H17914279   3.438   6.979   1.974  2.8727  0.6647 -1.8445
   51MOL   H18014280   3.253   7.059   2.072 -0.5187 -0.7839 -0.1824
   51MOL   H18114281   3.235   7.032   2.373 -0.3839  0.6260  0.1332
   51MOL   H18214282   3.398   6.918   2.395  0.9725 -2.1920  1.4907
   51MOL   H18314283   3.595   6.774   2.389 -0.0783 -1.0429 -0.8353
   51MOL   C18414284   3.062   7.109   2.268 -0.5021  0.5136 -0.2495
   51MOL   C18514285   2.994   7.125   2.148 -0.2723 -0.5428  0.4792
   51MOL   C18614286   2.868   7.181   2.150  0.0629 -0.5210  0.1410
   51MOL   C18714287   2.804   7.217   2.273  0.4010 -0.4928 -0.9536
   51MOL   C18814288   2.670   7.279   2.276  0.4688  0.5698 -0.1978
   51MOL   C18914289   2.597   7.329   2.174 -1.1137  0.6080 -0.0764
   51MOL   C19014290   2.878   7.211   2.390 -0.0201  0.2637  0.0287
   51MOL   C19114291   3.008   7.155   2.388 -0.0721 -0.5435 -0.2636
   51MOL   H19214292   3.046   7.090   2.060  1.2067  2.5716  0.0574
   51MOL   H19314293   2.820   7.190   2.053  0.6387  0.1238 -0.0892
   51MOL   H19414294   2.620   7.295   2.370 -0.7212 -2.6116 -0.2274
   51MOL   H19514295   2.633   7.314   2.074  0.9445 -1.0138  0.8740
   51MOL   H19614296   2.846   7.255   2.483  0.6722 -0.3003  0.5368
   51MOL   H19714297   3.068   7.164   2.477  0.1299 -0.1001 -0.4395
   51MOL   C19814298   2.465   7.396   2.186 -0.1097 -0.1544 -0.3365
   51MOL   C19914299   2.403   7.432   2.311  0.1570  0.0434  0.2677
   51MOL   C20014300   2.277   7.496   2.322  0.1370  0.5982  0.4859
   51MOL   C20114301   2.204   7.525   2.207  0.6023  0.2329  0.1293
   51MOL   C20214302   2.072   7.585   2.228 -0.3148  0.0158  0.0861
   51MOL   C20314303   1.971   7.592   2.137  0.8632 -0.5180 -0.6462
   51MOL   C20414304   2.253   7.480   2.080  0.4400 -0.2148 -0.2859
   51MOL   C20514305   2.379   7.422   2.065  0.3634  0.1263  0.2654
   51MOL   H20614306   2.454   7.419   2.405 -0.4485 -1.1048  0.4456
   51MOL   H20714307   2.253   7.522   2.424 -0.1269 -0.5489  0.7244
   51MOL   H20814308   2.049   7.624   2.327 -1.3368  0.0215 -0.1504
   51MOL   H20914309   1.980   7.560   2.034 -2.8565 -1.2791 -0.8126
   51MOL   H21014310   2.199   7.495   1.988  0.3633 -1.5122 -0.4618
   51MOL   H21114311   2.417   7.404   1.965 -0.0676 -2.2176  0.4882
   51MOL   C21214312   1.846   7.657   2.166  0.5178  0.2076 -0.2941
   51MOL   C21314313   1.835   7.757   2.263 -1.1564  0.6378 -0.2458
   51MOL   C21414314   1.715   7.818   2.306 -0.5031 -0.2291 -0.8983
   51MOL   C21514315   1.599   7.798   2.230 -0.6420 -0.7900  0.2602
   51MOL   C21614316   1.472   7.872   2.246  0.6669  0.1504  0.0007
   51MOL   C21714317   1.444   7.959   2.347  0.3299 -0.4499  0.8785
   51MOL   C21814318   1.603   7.693   2.132 -0.8040 -0.6443  0.3111
   51MOL   C21914319   1.724   7.623   2.101 -0.0399  0.5211  0.0447
   51MOL   H22014320   1.917   7.791   2.324  0.6272 -3.6032 -0.1520
   51MOL   H22114321   1.720   7.895   2.382  1.1041 -1.2718  0.0719
   51MOL   H22214322   1.397   7.852   2.170 -1.0996 -0.0083  1.7384
   51MOL   H22314323   1.517   7.978   2.425 -0.5799 -2.1042  2.1375
   51MOL   H22414324   1.514   7.666   2.076 -0.2695  1.0205 -1.3894
   51MOL   H22514325   1.721   7.537   2.036  0.0260  0.7422 -0.2498
   51MOL   C22614326   1.320   8.038   2.362  0.2860  0.2440 -0.9760
   51MOL   C22714327   1.211   8.017   2.275  0.0538  0.0968 -0.2029
   51MOL   C22814328   1.085   8.080   2.292 -0.7690 -0.3843 -0.2194
   51MOL   C22914329   1.070   0.035   2.400 -0.0088 -0.2942  0.1409
   51MOL   C23014330   0.949   0.106   2.422 -0.0289 -0.4889 -0.0529
   51MOL   C23114331   0.922   0.206   2.512 -1.0169 -0.4277  0.7498
   51MOL   C23214332   1.180   0.059   2.486  0.3778  0.4166 -0.7791
   51MOL   C23314333   1.305   8.139   2.466 -0.7377  0.5613 -0.3265
   51MOL   H23414334   1.223   7.954   2.188  0.5072 -2.0179  1.3525
   51MOL   H23514335   0.999   8.047   2.235 -0.4751 -0.3160 -0.6989
   51MOL   H23614336   0.872   0.079   2.351 -1.6324  0.3416  1.3316
   51MOL   H23714337   0.994   0.228   2.589 -0.2268  1.9680 -0.5994
   51MOL   H23814338   1.176   0.123   2.573 -1.5427  0.1139 -0.6354
   51MOL   H23914339   1.388   0.015   2.532 -1.5679  1.0920  0.5607
   51MOL   C24014340   0.790   0.283   2.536  0.1860 -0.2469 -0.4050
   51MOL   C24114341   0.664   0.246   2.479  0.1077 -0.4496 -0.5950
   51MOL   C24214342   0.559   0.329   2.498  0.3578 -0.1679  0.2987
   51MOL   C24314343   0.568   0.447   2.576 -0.2531  0.2398  0.2777
   51MOL   C24414344   0.453   0.536   2.592 -0.0562  0.3368  0.6108
   51MOL   C24514345   0.329   0.522   2.535  0.3372 -0.0407  0.2224
   51MOL   C24614346   0.690   0.478   2.645  0.1329  0.2111 -0.1375
   51MOL   C24714347   0.797   0.391   2.625 -0.5810  0.2153 -0.0611
   51MOL   H24814348   0.654   0.163   2.411  0.6400  2.0093 -3.8120
   51MOL   H24914349   0.474   0.310   2.434 -0.3109 -1.4566  1.5435
   51MOL   H25014350   0.474   0.619   2.659  1.1586  1.3880 -1.0425
   51MOL   H25114351   0.301   0.431   2.484 -0.9878 -0.8648  2.3570
   51MOL   H25214352   0.690   0.572   2.699 -0.0848  0.0084  0.2175
   51MOL   H25314353   0.895   0.416   2.664  0.0453 -1.9090 -0.2003
   51MOL   C25414354   0.216   0.617   2.546 -0.7478 -0.0366  0.2402
   51MOL   C25514355   0.118   0.628   2.447  0.4524  0.9609 -0.6591
   51MOL   C25614356   0.021   0.722   2.453 -0.1910  0.4251 -0.6669
   51MOL   C25714357   0.022   0.831   2.543 -0.2351  0.2598 -0.3742
   51MOL   C25814358   8.077   0.942   2.544 -0.3008 -0.2468 -0.0844
   51MOL   C25914359   8.017   1.001   2.436 -0.3490 -0.7275 -0.3681
   51MOL   C26014360   0.121   0.827   2.644 -0.1333 -0.0134  0.5878
   51MOL   C26114361   0.216   0.722   2.641 -0.1217  0.1242 -0.2465
   51MOL   H26214362   0.120   0.561   2.363 -1.3913  1.4199 -1.0893
   51MOL   H26314363   8.089   0.716   2.377  0.1725 -3.0246 -0.8327
   51MOL   H26414364   8.059   0.982   2.643 -1.4823  1.3911 -0.9439
   51MOL   H26514365   7.944   1.079   2.452  0.7400  0.3036 -0.3607
   51MOL   H26614366   0.121   0.901   2.722 -1.1242  0.0626  0.5247
   51MOL   H26714367   0.292   0.721   2.717  1.8906 -1.7700 -2.1877
   51MOL   C26814368   8.033   0.960   2.297 -0.2964 -0.2041 -0.0129
   51MOL   C26914369   7.924   0.905   2.233  1.2009 -0.0601  0.1051
   51MOL   C27014370   7.928   0.861   2.098  0.5266 -0.4924 -0.3665
   51MOL   C27114371   8.042   0.889   2.018 -0.9882  0.0279 -0.3345
   51MOL   C27214372   8.051   0.843   1.878  0.0564  0.4470  0.4943
   51MOL   C27314373   0.010   0.837   1.793 -0.0906 -0.0540 -0.5116
   51MOL   C27414374   0.007   0.964   2.074  0.3089 -0.4706 -0.4282
   51MOL   C27514375   8.143   0.996   2.215 -0.4456  0.0233  0.9859
   51MOL   H27614376   7.842   0.877   2.297  0.3107 -0.3017 -1.1257
   51MOL   H27714377   7.849   0.806   2.052 -0.4035  0.5490 -0.0469
   51MOL   H27814378   7.959   0.795   1.847  2.2748 -3.2772 -0.5742
   51MOL   H27914379   0.101   0.882   1.830 -1.4651  1.2107  1.4376
   51MOL   H28014380   0.089   0.993   2.010 -0.6108  0.3105 -1.2685
   51MOL   H28114381   0.079   1.063   2.244 -0.4201  0.3070  0.2609
   51MOL   H28214382   0.012   0.796   1.693  4.6640  0.4777 -0.7384
   52MOL     C114383   0.434   0.179   7.368  0.2590 -0.4142 -0.0013
   52MOL     C214384   0.498   0.125   7.254  1.2476  0.1215 -0.7242
   52MOL     C314385   0.615   0.047   7.276 -0.0610 -0.2536  0.5217
   52MOL     C414386   0.661   0.021   7.408  0.1830  0.4341  0.1203
   52MOL     C514387   0.777   8.081   7.439 -0.3686  0.5467  0.1364
   52MOL     C614388   0.852   8.000   7.363 -0.3142  0.2404  0.5025
   52MOL     C714389   0.599   0.079   7.521 -0.0022  0.0502  0.3891
   52MOL     C814390   0.491   0.164   7.496 -0.4165  0.0682  0.0929
   52MOL     H914391   0.452   0.151   7.160  0.1874 -1.1997 -0.6005
   52MOL    H1014392   0.662   0.000   7.191 -1.1205 -0.8060  0.2416
   52MOL    H1114393   0.811   8.090   7.542 -1.3689 -0.0466  0.5278
   52MOL    H1214394   0.835   8.001   7.256  0.1016 -2.3694  0.3774
   52MOL    H1314395   0.633   0.066   7.622  1.7550  2.7653  0.1904
   52MOL    H1414396   0.440   0.194   7.587 -1.7838  1.0503 -0.9749
   52MOL    H1514397   0.340   0.233   7.368  0.4806 -0.0127 -1.5007
   52MOL    C1614398   0.969   7.925   7.399 -0.0020 -0.1360 -0.1139
   52MOL    C1714399   1.037   7.846   7.303  0.3002  0.1085  0.8761
   52MOL    C1814400   1.163   7.784   7.328 -0.1939  0.1238  0.0300
   52MOL    C1914401   1.214   7.792   7.461 -0.0106  0.4100 -0.6236
   52MOL    C2014402   1.338   7.718   7.498 -0.2962  0.2049  0.6659
   52MOL    C2114403   1.385   7.616   7.423  0.0928 -1.0768  0.6359
   52MOL    C2214404   1.148   7.865   7.555 -0.1874  0.0674  0.1716
   52MOL    C2314405   1.025   7.927   7.530 -0.1545 -0.7881 -0.0589
   52MOL    H2414406   0.989   7.853   7.206 -0.9408  2.0495  1.5992
   52MOL    H2514407   1.224   7.728   7.260  0.8564  2.8276 -1.3120
   52MOL    H2614408   1.381   7.757   7.590 -1.8658 -0.2897  1.6348
   52MOL    H2714409   1.329   7.583   7.337 -0.2080  1.2171 -0.0659
   52MOL    H2814410   1.200   7.876   7.649  0.7149 -1.1151 -0.1787
   52MOL    H2914411   0.999   7.987   7.616  0.4177 -1.6244  0.7024
   52MOL    C3014412   1.509   7.537   7.460  0.0803 -0.2335  0.4292
   52MOL    C3114413   1.593   7.565   7.575 -0.2117 -0.3902  0.1141
   52MOL    C3214414   1.701   7.480   7.609  0.0886  0.6612  1.2353
   52MOL    C3314415   1.730   7.367   7.529 -0.2240  0.2876 -0.4256
   52MOL    C3414416   1.824   7.269   7.567 -0.8640 -0.3489  0.0117
   52MOL    C3514417   1.848   7.147   7.511 -0.8493 -0.7605  1.1929
   52MOL    C3614418   1.658   7.350   7.410 -0.5305  0.8417  0.1460
   52MOL    C3714419   1.548   7.435   7.382  1.1042 -0.6080  0.0924
   52MOL    H3814420   1.576   7.650   7.640 -1.1187  0.6333 -1.4337
   52MOL    H3914421   1.740   7.496   7.708  0.4982 -0.1681  1.2138
   52MOL    H4014422   1.888   7.293   7.650 -0.7261  0.1039 -0.2206
   52MOL    H4114423   1.791   7.117   7.425 -1.1077  2.3151  0.2327
   52MOL    H4214424   1.680   7.272   7.339  2.4091  1.7989 -0.0851
   52MOL    H4314425   1.486   7.427   7.295  0.6749  0.5449  0.2809
   52MOL    C4414426   1.950   7.046   7.554  0.2282 -0.0046 -0.0908
   52MOL    C4514427   2.047   7.074   7.651  0.1263  0.1046 -0.1968
   52MOL    C4614428   2.134   6.972   7.698  0.2886  0.6688  0.1421
   52MOL    C4714429   2.132   6.843   7.636  0.1678  0.6943 -0.2238
   52MOL    C4814430   2.239   6.752   7.674 -0.2467 -0.6604  0.0688
   52MOL    C4914431   2.259   6.633   7.619  0.4293  0.6358 -0.3742
   52MOL    C5014432   2.033   6.816   7.544 -0.2580  0.4039  0.0237
   52MOL    C5114433   1.945   6.915   7.500 -0.2392 -0.2969  0.5615
   52MOL    H5214434   2.053   7.171   7.698  1.0870  0.2979 -0.7034
   52MOL    H5314435   2.210   7.000   7.769 -1.0891  1.4260  1.3343
   52MOL    H5414436   2.306   6.795   7.747  0.9943  2.3650 -2.7272
   52MOL    H5514437   2.190   6.590   7.547  0.9287 -0.2477 -0.3188
   52MOL    H5614438   2.016   6.715   7.509  0.0675 -0.0790  1.2336
   52MOL    H5714439   1.873   6.894   7.422  0.6364 -0.3032 -0.2471
   52MOL    C5814440   2.371   6.544   7.641 -0.0480  0.6576 -0.9747
   52MOL    C5914441   2.501   6.601   7.672 -0.9164  0.0250  0.5174
   52MOL    C6014442   2.610   6.515   7.696  0.2754  0.7161  0.2946
   52MOL    C6114443   2.596   6.377   7.671  0.1677 -0.2818 -0.1603
   52MOL    C6214444   2.716   6.283   7.679 -0.1976  0.1087 -0.2855
   52MOL    C6314445   2.842   6.314   7.697  0.0980  0.0485 -0.4538
   52MOL    C6414446   2.473   6.322   7.631 -0.4259 -0.0441  0.1909
   52MOL    C6514447   2.361   6.407   7.621  0.2345 -0.1872  0.3336
   52MOL    H6614448   2.508   6.707   7.690  0.0005 -0.1974  1.4858
   52MOL    H6714449   2.711   6.550   7.709  1.4783 -2.7850  0.8722
   52MOL    H6814450   2.686   6.180   7.663 -1.9610  0.9182 -2.4548
   52MOL    H6914451   2.870   6.418   7.704 -0.3713  0.1260  0.3092
   52MOL    H7014452   2.452   6.219   7.607  1.0942 -0.3668  0.1760
   52MOL    H7114453   2.268   6.361   7.591 -0.3837  1.1092  0.2716
   52MOL    C7214454   2.948   6.214   7.700  0.5099  0.3243 -0.3207
   52MOL    C7314455   2.920   6.087   7.747 -0.3792 -1.2942 -0.0972
   52MOL    C7414456   3.019   5.999   7.768 -0.2295  0.1035  0.4208
   52MOL    C7514457   3.153   6.026   7.732 -0.7269 -0.6280  0.2326
   52MOL    C7614458   3.262   5.942   7.770 -0.5913 -0.0307  0.1756
   52MOL    C7714459   3.387   5.990   7.800 -0.5440 -0.3991  0.1578
   52MOL    C7814460   3.177   6.148   7.668  0.5925 -0.3495  0.6980
   52MOL    C7914461   3.079   6.249   7.654  0.7761  0.3566  0.1529
   52MOL    H8014462   2.820   6.053   7.769 -1.7476  2.2025 -0.6031
   52MOL    H8114463   2.984   5.906   7.809  1.1772 -1.0553 -0.9487
   52MOL    H8214464   3.244   5.836   7.758 -0.3859  0.0054 -0.4706
   52MOL    H8314465   3.403   6.097   7.799 -0.1736 -0.4576 -0.2894
   52MOL    H8414466   3.279   6.167   7.635  0.3473 -0.9517 -0.4302
   52MOL    H8514467   3.108   6.342   7.608  3.6165 -0.9584 -0.8245
   52MOL    C8614468   3.514   5.918   7.838  0.3146 -0.4076  0.0101
   52MOL    C8714469   3.529   5.781   7.864 -0.0245  0.1472 -0.5622
   52MOL    C8814470   3.655   5.723   7.902 -0.4741 -0.0133  0.7579
   52MOL    C8914471   3.764   5.810   7.907  0.7393 -0.3368 -0.8623
   52MOL    C9014472   3.896   5.762   7.937 -0.9198  0.0739  0.5448
   52MOL    C9114473   3.929   5.635   7.972 -0.1247  0.0518 -0.1734
   52MOL    C9214474   3.754   5.943   7.874  0.0364 -0.7326 -0.0841
   52MOL    C9314475   3.628   5.998   7.839 -0.1485  0.7545  0.5348
   52MOL    H9414476   3.451   5.707   7.856  0.9865 -1.0797  0.5797
   52MOL    H9514477   3.663   5.616   7.915 -0.4834  0.0205  1.0614
   52MOL    H9614478   3.975   5.834   7.921 -0.4572 -0.5938 -0.2689
   52MOL    H9714479   3.849   5.564   7.991  0.3001 -0.5257 -0.5147
   52MOL    H9814480   3.839   6.009   7.868 -0.7187  0.1706 -1.1515
   52MOL    H9914481   3.616   6.101   7.809  1.7508  0.3873 -1.6674
   52MOL   C10014482   4.067   5.590   7.974 -0.1745  0.3771 -0.5941
   52MOL   C10114483   4.088   5.471   8.047 -0.0050  0.0068  0.5323
   52MOL   C10214484   4.215   5.417   8.062  0.1700 -0.2380 -0.4234
   52MOL   C10314485   4.328   5.479   8.000  0.2744 -0.8830  0.3212
   52MOL   C10414486   4.461   5.412   8.012 -0.5318  0.2946  0.1417
   52MOL   C10514487   4.576   5.441   7.944  0.0163  0.9307  0.5310
   52MOL   C10614488   4.311   5.594   7.923 -0.5984  0.0975 -1.0235
   52MOL   C10714489   4.179   5.646   7.908 -0.2537  0.3096 -0.4186
   52MOL   H10814490   4.010   5.427   8.107  0.0427 -0.1456  0.4800
   52MOL   H10914491   4.221   5.326   8.120 -1.8406 -1.1744 -1.6566
   52MOL   H11014492   4.469   5.334   8.086 -0.8659  0.4168  0.3102
   52MOL   H11114493   4.592   5.513   7.865 -1.3999  1.3912  0.6448
   52MOL   H11214494   4.399   5.640   7.880 -0.3437  0.4202 -0.1645
   52MOL   H11314495   4.167   5.741   7.857  0.0261  0.8850  0.5694
   52MOL   C11414496   4.705   5.375   7.973 -0.9454  0.3672  0.0811
   52MOL   C11514497   4.818   5.385   7.887  0.1461  1.2895 -0.1072
   52MOL   C11614498   4.948   5.330   7.911  0.4028  0.7294  0.2885
   52MOL   C11714499   4.973   5.274   8.041 -0.0420 -0.0197 -0.0924
   52MOL   C11814500   5.108   5.241   8.090 -0.2876 -0.8488 -0.0533
   52MOL   C11914501   5.208   5.222   8.009 -0.0279  0.1623 -0.4396
   52MOL   C12014502   4.856   5.251   8.127  0.0871 -0.0516  1.0406
   52MOL   C12114503   4.727   5.306   8.097  0.2069 -0.3085  0.3424
   52MOL   H12214504   4.808   5.444   7.797  1.9164  0.2412 -1.0149
   52MOL   H12314505   5.021   5.358   7.836 -1.9181  3.8699 -0.9012
   52MOL   H12414506   5.116   5.242   0.053 -0.1859  0.3864 -0.0572
   52MOL   H12514507   5.189   5.220   7.902 -4.5557 -0.0606  0.2790
   52MOL   H12614508   4.863   5.213   0.084 -1.6896 -1.9661  0.4906
   52MOL   H12714509   4.649   5.309   0.027 -0.7335  1.2756 -0.6877
   52MOL   C12814510   5.349   5.202   8.040 -0.2732  0.7534 -0.0381
   52MOL   C12914511   5.432   5.153   7.940  0.2086  0.5411 -0.6239
   52MOL   C13014512   5.567   5.120   7.959  0.5066 -0.8166 -0.9211
   52MOL   C13114513   5.623   5.145   8.086  0.8134  0.0265 -0.2150
   52MOL   C13214514   5.756   5.093   8.119 -0.8469 -0.1151  0.0974
   52MOL   C13314515   5.804   5.068   0.095  0.3024 -0.1520  0.3989
   52MOL   C13414516   5.543   5.207   0.041 -0.3093  0.1800 -0.0692
   52MOL   C13514517   5.408   5.239   0.018 -0.6191  0.1124 -0.1511
   52MOL   H13614518   5.390   5.152   7.841 -0.7289 -2.7443 -0.2608
   52MOL   H13714519   5.626   5.068   7.885  1.0771  0.0481 -1.0826
   52MOL   H13814520   5.818   5.072   8.033  1.4040  1.8679  1.1773
   52MOL   H13914521   5.752   5.090   0.187 -0.2468  0.5226 -0.0691
   52MOL   H14014522   5.590   5.220   0.138 -0.6383  1.6360 -0.0884
   52MOL   H14114523   5.354   5.296   0.092 -2.2437  0.1770 -1.3700
   52MOL   C14214524   5.924   5.005   0.122 -0.2643 -0.6633  0.4076
   52MOL   C14314525   6.046   5.014   0.042  0.1378 -0.5442 -0.4859
   52MOL   C14414526   6.155   4.923   0.059 -0.1698 -0.5629 -0.0629
   52MOL   C14514527   6.150   4.829   0.167  0.8096 -0.3859 -0.1754
   52MOL   C14614528   6.265   4.738   0.194  0.4453  0.0842  0.0563
   52MOL   C14714529   6.356   4.703   0.103  0.2307  0.3260 -0.5233
   52MOL   C14814530   6.038   4.830   0.256  0.3773 -0.2031 -0.1148
   52MOL   C14914531   5.930   4.911   0.230  0.2269 -0.1190 -0.4542
   52MOL   H15014532   6.037   5.084   8.104  0.3459  0.3400  0.2381
   52MOL   H15114533   6.240   4.929   8.137 -0.0230 -0.0529  0.1665
   52MOL   H15214534   6.277   4.706   0.296  2.1056 -1.8929 -0.7347
   52MOL   H15314535   6.349   4.735   0.000  1.7556  3.2304  0.2222
   52MOL   H15414536   6.034   4.770   0.346  0.3597  0.5654  0.4076
   52MOL   H15514537   5.846   4.906   0.297  0.2845  0.3512 -0.3433
   52MOL   C15614538   6.472   4.618   0.127  0.4089 -0.5694 -0.2339
   52MOL   C15714539   6.588   4.628   0.040  0.0210  0.2099  0.3803
   52MOL   C15814540   6.702   4.552   0.051  0.2007 -0.0601 -0.7310
   52MOL   C15914541   6.718   4.477   0.174  0.5188  0.2238 -0.5625
   52MOL   C16014542   6.835   4.400   0.208  0.6699  0.0768  0.5076
   52MOL   C16114543   6.940   4.361   0.139  0.1533 -1.0645 -0.4891
   52MOL   C16214544   6.606   4.468   0.261  0.0516  0.2114 -0.2988
   52MOL   C16314545   6.486   4.542   0.241 -0.3187 -0.0936 -0.2570
   52MOL   H16414546   6.579   4.682   8.091 -1.1894 -0.5263  0.0507
   52MOL   H16514547   6.792   4.563   8.138 -0.9591 -0.9850 -2.7681
   52MOL   H16614548   6.833   4.374   0.313 -0.8805 -0.6866  0.3052
   52MOL   H16714549   6.940   4.376   0.032  1.1116  0.2813 -0.3137
   52MOL   H16814550   6.619   4.403   0.346  2.2560  1.5633  0.4336
   52MOL   H16914551   6.420   4.534   0.326  1.5099 -1.3917  1.1073
   52MOL   C17014552   7.055   4.286   0.197  0.1278  0.1714 -0.2545
   52MOL   C17114553   7.152   4.243   0.109 -0.1015 -0.0453  0.6884
   52MOL   C17214554   7.263   4.177   0.156  0.5153  0.1686  0.1073
   52MOL   C17314555   7.284   4.179   0.293  0.3839  0.0473 -0.2077
   52MOL   C17414556   7.413   4.125   0.333 -0.3542 -0.0271 -0.1816
   52MOL   C17514557   7.435   4.075   0.454 -0.3420 -0.4240 -0.4988
   52MOL   C17614558   7.190   4.222   0.382  0.8369  0.0508  0.0290
   52MOL   C17714559   7.071   4.270   0.333 -0.2079  0.2883  0.6467
   52MOL   H17814560   7.133   4.259   0.004  0.3048 -0.8842  0.4762
   52MOL   H17914561   7.331   4.139   0.081 -0.2563  0.1446 -0.5928
   52MOL   H18014562   7.485   4.127   0.252  0.8892  0.3697  0.9193
   52MOL   H18114563   7.352   4.061   0.521  0.6759 -1.5613  0.5558
   52MOL   H18214564   7.208   4.223   0.488 -2.2823  0.7318  0.5800
   52MOL   H18314565   7.003   4.305   0.409  0.3435  1.7133  0.5027
   52MOL   C18414566   7.573   4.026   0.501 -0.2937  0.2509  0.8963
   52MOL   C18514567   7.593   3.979   0.633  0.1103  0.1861 -0.5701
   52MOL   C18614568   7.719   3.949   0.677 -0.0971 -0.8623  0.3200
   52MOL   C18714569   7.831   3.974   0.597 -0.0966 -1.1411 -0.0788
   52MOL   C18814570   7.970   3.956   0.646 -0.2058  0.6993  0.2266
   52MOL   C18914571   8.016   3.906   0.765 -0.0847 -0.3520 -0.0178
   52MOL   C19014572   7.818   4.009   0.466 -0.5834  0.5602 -0.6317
   52MOL   C19114573   7.687   4.029   0.417  0.4268  0.2351  0.1816
   52MOL   H19214574   7.512   3.956   0.700  0.7094 -2.1241 -0.5588
   52MOL   H19314575   7.737   3.913   0.777  1.6468 -1.3919 -0.1628
   52MOL   H19414576   8.047   3.973   0.572 -1.6717 -2.4685 -2.1200
   52MOL   H19514577   7.948   3.872   0.842 -0.9896 -2.4758 -1.6812
   52MOL   H19614578   7.908   4.007   0.406  0.0765  0.0707  0.3535
   52MOL   H19714579   7.681   4.065   0.315  1.9880  0.3078  0.1046
   52MOL   C19814580   0.014   3.889   0.800 -0.8752  0.1730 -0.3212
   52MOL   C19914581   0.118   3.901   0.705 -0.1628  0.4399  0.2860
   52MOL   C20014582   0.254   3.884   0.741  0.6762  0.4927  0.3269
   52MOL   C20114583   0.291   3.852   0.870  0.1897  0.0797  0.5914
   52MOL   C20214584   0.426   3.844   0.920 -1.5083 -0.3662  0.0202
   52MOL   C20314585   0.545   3.868   0.860 -0.5809 -0.2409 -0.6815
   52MOL   C20414586   0.191   3.827   0.966  0.2182 -0.2324  0.0021
   52MOL   C20514587   0.058   3.850   0.929 -0.9819  0.4908  0.0378
   52MOL   H20614588   0.095   3.937   0.606 -0.1175  0.9335  0.4498
   52MOL   H20714589   0.317   3.906   0.656 -2.3035  1.5660 -1.7086
   52MOL   H20814590   0.430   3.819   1.026 -0.7962  0.8562  0.2933
   52MOL   H20914591   0.533   3.887   0.755 -0.9934 -0.5767 -0.6947
   52MOL   H21014592   0.217   3.786   1.062  0.6001  0.6740  0.2832
   52MOL   H21114593   8.124   3.832   1.001  0.4978  0.4430  1.6515
   52MOL   C21214594   0.677   3.857   0.918  0.8029 -0.8567 -0.7644
   52MOL   C21314595   0.696   3.783   1.037  0.0471  0.2215 -0.0995
   52MOL   C21414596   0.819   3.800   1.104  0.1101  0.4893 -0.6602
   52MOL   C21514597   0.927   3.870   1.044  0.0012 -0.6989 -0.5059
   52MOL   C21614598   1.052   3.888   1.115  0.5491 -0.4412 -0.4543
   52MOL   C21714599   1.079   3.852   1.242 -0.8032  0.1096 -0.4625
   52MOL   C21814600   0.910   3.929   0.920 -0.2983 -0.2707  0.4574
   52MOL   C21914601   0.785   3.922   0.858 -0.6118 -0.0079  0.4802
   52MOL   H22014602   0.615   3.727   1.082  0.3133 -2.0937 -2.3860
   52MOL   H22114603   0.828   3.755   1.202 -2.2286  0.9832 -0.1952
   52MOL   H22214604   1.127   3.948   1.065 -1.6536  2.0622 -0.8789
   52MOL   H22314605   1.001   3.802   1.296  1.6610 -2.9750  0.4043
   52MOL   H22414606   0.993   3.981   0.875 -0.4028 -0.3693  0.1481
   52MOL   H22514607   0.767   3.977   0.768  1.1007  0.4326  0.4042
   52MOL   C22614608   1.193   3.877   1.331 -0.5369 -0.2482 -0.3410
   52MOL   C22714609   1.224   3.789   1.440 -0.1095  0.0431 -0.3330
   52MOL   C22814610   1.329   3.822   1.525  0.6848 -0.6627 -0.1670
   52MOL   C22914611   1.408   3.939   1.509  0.8143  0.1684 -0.1341
   52MOL   C23014612   1.504   3.989   1.612 -0.3731  0.0500 -0.7977
   52MOL   C23114613   1.518   3.937   1.735  0.2000  0.0518 -0.2268
   52MOL   C23214614   1.368   4.030   1.404 -0.6046  0.2247  0.0139
   52MOL   C23314615   1.269   3.995   1.315  0.1533  0.0345  0.3583
   52MOL   H23414616   1.153   3.710   1.463 -0.7965  0.0725 -2.2413
   52MOL   H23514617   1.340   3.761   1.613  0.0164  1.1045  1.1721
   52MOL   H23614618   1.575   4.066   1.585 -1.4729  1.2298 -0.3487
   52MOL   H23714619   1.444   3.862   1.758 -0.2974  0.7452  0.4618
   52MOL   H23814620   1.415   4.127   1.396 -2.2399  1.0057 -0.2585
   52MOL   H23914621   1.244   4.063   1.235 -0.1322  0.2971  0.6696
   52MOL   C24014622   1.610   3.956   1.846  1.3521 -0.1187  0.6202
   52MOL   C24114623   1.733   4.023   1.831  0.1567  0.7755  0.5300
   52MOL   C24214624   1.827   4.014   1.939  0.4712  0.6016  0.1133
   52MOL   C24314625   1.801   3.939   2.058  1.3121  0.3935 -0.0687
   52MOL   C24414626   1.894   3.937   2.170 -0.1733 -0.2595  0.8632
   52MOL   C24514627   1.855   3.918   2.297  0.0538  0.0403  0.6782
   52MOL   C24614628   1.673   3.880   2.070 -0.3565 -0.6171 -0.4705
   52MOL   C24714629   1.580   3.882   1.965 -0.7444 -0.9501  0.8508
   52MOL   H24814630   1.763   4.082   1.746  1.0212 -1.5259 -0.8237
   52MOL   H24914631   1.925   4.059   1.942  0.8789 -0.2548 -0.3119
   52MOL   H25014632   2.001   3.942   2.156 -0.3222  1.0523  0.1315
   52MOL   H25114633   1.750   3.906   2.315  0.2022 -0.5197  1.1619
   52MOL   H25214634   1.663   3.812   2.154  0.2990 -0.5469 -0.3357
   52MOL   H25314635   1.493   3.819   1.978 -0.0594 -2.1873 -0.4022
   52MOL   C25414636   1.939   3.896   2.413 -0.2173  0.9737  0.4687
   52MOL   C25514637   1.875   3.893   2.535 -0.0007 -0.4201 -0.0363
   52MOL   C25614638   1.942   3.850   2.650  0.0342 -0.0190 -0.2830
   52MOL   C25714639   2.074   3.799   2.637  0.5008 -0.1273 -0.5115
   52MOL   C25814640   2.145   3.738   2.753 -0.8934 -0.0878  0.5900
   52MOL   C25914641   2.094   3.653   2.838 -0.1731 -0.4518  0.6767
   52MOL   C26014642   2.141   3.801   2.515  0.1694  0.1684  0.2964
   52MOL   C26114643   2.076   3.854   2.401 -0.6525  0.6870 -0.7207
   52MOL   H26214644   1.772   3.923   2.547  0.8454  2.4149  0.3144
   52MOL   H26314645   1.903   3.850   2.751  0.7659 -1.0725  0.0038
   52MOL   H26414646   2.243   3.782   2.767 -1.1557  0.3294  1.1583
   52MOL   H26514647   2.170   3.639   2.913  0.2082  0.8779  0.5495
   52MOL   H26614648   2.241   3.762   2.509 -0.8278 -2.0595 -3.3320
   52MOL   H26714649   2.117   3.852   2.301 -1.1257  2.2474 -0.9690
   52MOL   C26814650   1.963   3.585   2.843  0.1852 -0.3006 -0.6506
   52MOL   C26914651   1.903   3.544   2.725 -0.9956  0.1256 -0.1722
   52MOL   C27014652   1.790   3.469   2.711 -0.4173 -0.3785  0.0849
   52MOL   C27114653   1.727   3.435   2.830 -0.7454  0.0623  0.0081
   52MOL   C27214654   1.600   3.358   2.833 -0.8786  0.4503 -0.2274
   52MOL   C27314655   1.524   3.336   2.718 -0.2414  0.2713  0.2227
   52MOL   C27414656   1.781   3.474   2.959 -0.1662 -0.0880  0.1945
   52MOL   C27514657   1.895   3.555   2.964 -0.2788  0.5722  0.1733
   52MOL   H27614658   1.961   3.560   2.635 -0.2232 -0.6685  0.1778
   52MOL   H27714659   1.753   3.439   2.614 -0.1932 -0.1083 -0.0870
   52MOL   H27814660   1.578   3.302   2.922  2.1759 -1.2512 -0.4648
   52MOL   H27914661   1.548   3.368   2.618  0.8605 -2.0242 -0.2767
   52MOL   H28014662   1.730   3.447   3.050 -1.4677  2.1984  0.1735
   52MOL   H28114663   1.921   3.577   3.067 -3.2285 -3.2756  1.8981
   52MOL   H28214664   1.433   3.279   2.716 -0.0533  0.0078 -2.2023
   53MOL     C114665   7.427   2.759   1.579 -0.2019 -0.5188  0.3320
   53MOL     C214666   7.402   2.897   1.552  0.6051  0.7651 -0.1283
   53MOL     C314667   7.275   2.941   1.507 -0.5136 -0.3323 -0.1082
   53MOL     C414668   7.167   2.850   1.511 -0.5088  0.3213  0.0764
   53MOL     C514669   7.040   2.911   1.491 -0.4314 -0.6205  1.1295
   53MOL     C614670   6.920   2.846   1.473  0.6716  0.1362  0.7669
   53MOL     C714671   7.190   2.711   1.539  0.1065 -0.1593 -0.4677
   53MOL     C814672   7.318   2.666   1.571 -0.4674  0.3196 -0.6333
   53MOL     H914673   7.470   2.980   1.564  0.7278  0.7151 -0.4786
   53MOL    H1014674   7.254   3.044   1.483 -1.1636 -0.5869 -0.6446
   53MOL    H1114675   7.045   3.019   1.492  2.3283 -0.6996  0.3885
   53MOL    H1214676   6.913   2.738   1.478 -0.5693  0.0105 -2.2130
   53MOL    H1314677   7.101   2.651   1.547 -1.0105  1.5992  0.5534
   53MOL    H1414678   7.331   2.561   1.595 -0.8274  0.2354 -0.8012
   53MOL    H1514679   7.525   2.741   1.621  0.4507  1.4893 -0.2348
   53MOL    C1614680   6.790   2.915   1.445  0.6730 -1.1470 -0.7011
   53MOL    C1714681   6.688   2.838   1.378 -0.7918  0.5646  0.0148
   53MOL    C1814682   6.565   2.894   1.359 -0.0611 -0.7954 -0.3438
   53MOL    C1914683   6.538   3.030   1.383  0.1139 -0.5352 -0.2732
   53MOL    C2014684   6.418   3.094   1.345  0.9937 -0.2445  0.3638
   53MOL    C2114685   6.301   3.028   1.309  0.1140 -0.2825 -0.7157
   53MOL    C2214686   6.639   3.111   1.438  0.6759 -0.3050 -0.4263
   53MOL    C2314687   6.766   3.053   1.473  0.9656  0.2746  0.0559
   53MOL    H2414688   6.702   2.742   1.332  1.2965  0.9183 -0.1228
   53MOL    H2514689   6.488   2.832   1.314  0.2109 -0.4594 -1.2943
   53MOL    H2614690   6.431   3.201   1.338  3.4417 -0.4801  0.7651
   53MOL    H2714691   6.295   2.921   1.318 -1.1360  0.0286  3.0902
   53MOL    H2814692   6.621   3.216   1.454  0.5713 -0.0848 -1.9651
   53MOL    H2914693   6.845   3.115   1.512 -1.4459  1.6680  2.8538
   53MOL    C3014694   6.176   3.098   1.283 -0.3339 -0.2120  0.0720
   53MOL    C3114695   6.161   3.239   1.292  0.2073  0.8013  0.6687
   53MOL    C3214696   6.037   3.303   1.264 -0.2590  0.1614 -0.1593
   53MOL    C3314697   5.922   3.230   1.218 -0.3381  0.6773  0.0979
   53MOL    C3414698   5.793   3.289   1.185  0.1540 -0.0406  0.2814
   53MOL    C3514699   5.763   3.422   1.206 -0.1184  0.0269 -0.6297
   53MOL    C3614700   5.939   3.089   1.219  0.3336 -0.2485  0.2758
   53MOL    C3714701   6.059   3.027   1.258  1.1395  0.2742 -0.1904
   53MOL    H3814702   6.250   3.300   1.300  2.8999 -2.9586  0.1736
   53MOL    H3914703   6.025   3.409   1.284 -2.7102 -0.5741  2.6120
   53MOL    H4014704   5.727   3.216   1.140  3.2938 -2.7317 -0.0938
   53MOL    H4114705   5.834   3.486   1.256  0.8414 -3.6351  2.9442
   53MOL    H4214706   5.861   3.025   1.182  0.4935  0.1225 -0.7244
   53MOL    H4314707   6.060   2.919   1.255  2.9945  0.2248  1.2841
   53MOL    C4414708   5.633   3.478   1.161 -0.1935  0.0530  0.4191
   53MOL    C4514709   5.605   3.611   1.185 -0.8288 -0.1043  1.1124
   53MOL    C4614710   5.482   3.667   1.158 -0.1459  0.1185 -0.3291
   53MOL    C4714711   5.384   3.587   1.097 -0.5681  0.3171  0.4714
   53MOL    C4814712   5.248   3.644   1.076 -0.4803  0.1723  0.5051
   53MOL    C4914713   5.202   3.758   1.137  0.4546 -0.7243  0.0903
   53MOL    C5014714   5.406   3.451   1.081 -0.4279 -1.1944 -0.4491
   53MOL    C5114715   5.530   3.401   1.110 -0.3020 -0.4339 -0.0393
   53MOL    H5214716   5.674   3.674   1.240 -0.5774  1.1874 -0.6489
   53MOL    H5314717   5.475   3.771   1.189  3.2491  0.6911 -1.2847
   53MOL    H5414718   5.186   3.589   1.006  2.0442 -0.3568 -1.3923
   53MOL    H5514719   5.265   3.808   1.210  1.3932 -3.0242  0.9258
   53MOL    H5614720   5.327   3.391   1.037 -1.8215  1.2342 -1.3280
   53MOL    H5714721   5.539   3.294   1.097 -0.0312 -0.4499  0.2669
   53MOL    C5814722   5.070   3.820   1.111 -0.6246  0.2599 -0.6390
   53MOL    C5914723   4.983   3.757   1.019 -0.2204 -0.2831 -0.3034
   53MOL    C6014724   4.855   3.812   1.000 -0.1131  0.4951  0.0201
   53MOL    C6114725   4.812   3.934   1.055  0.0219 -0.0344  0.3348
   53MOL    C6214726   4.679   3.995   1.033  0.6312 -0.0384 -0.4686
   53MOL    C6314727   4.628   4.107   1.095  0.2015  0.3155  0.0918
   53MOL    C6414728   4.908   3.993   1.140  0.4111  0.1213  0.5275
   53MOL    C6514729   5.033   3.943   1.170 -0.5609  0.3472 -0.2167
   53MOL    H6614730   5.013   3.672   0.960  3.9292 -0.5081  1.8910
   53MOL    H6714731   4.790   3.768   0.926 -0.4378 -0.4553  0.8649
   53MOL    H6814732   4.624   3.939   0.958  0.1017  1.6873 -1.3994
   53MOL    H6914733   4.688   4.156   1.170  0.3990  0.3775 -0.1050
   53MOL    H7014734   4.886   4.087   1.188  0.8886  0.7118 -0.3885
   53MOL    H7114735   5.099   3.992   1.240 -1.0386  2.2860 -1.0803
   53MOL    C7214736   4.496   4.161   1.070 -0.1590 -0.5962 -0.1513
   53MOL    C7314737   4.454   4.274   1.145  0.5312  0.4844 -0.7780
   53MOL    C7414738   4.325   4.327   1.136 -0.2440  0.5604  0.0014
   53MOL    C7514739   4.225   4.265   1.056  0.6344  0.2183 -0.9988
   53MOL    C7614740   4.087   4.320   1.051 -0.0168  0.0914 -0.0664
   53MOL    C7714741   4.031   4.413   1.132 -0.5461 -0.1027  0.2294
   53MOL    C7814742   4.265   4.154   0.978 -0.1929  0.0646 -0.5015
   53MOL    C7914743   4.400   4.108   0.980 -0.0644 -0.0008  0.0288
   53MOL    H8014744   4.532   4.326   1.200  1.6048 -0.5287 -1.3105
   53MOL    H8114745   4.320   4.423   1.186  2.9138  1.1157 -0.6336
   53MOL    H8214746   4.029   4.291   0.965  1.3899 -1.5585 -0.4865
   53MOL    H8314747   4.096   4.442   1.214  0.3455 -1.0631 -0.1348
   53MOL    H8414748   4.197   4.118   0.902  0.5689 -0.4631 -0.9476
   53MOL    H8514749   4.426   4.031   0.908 -1.4763 -0.5359  0.0874
   53MOL    C8614750   3.900   4.469   1.117  0.9350 -0.1773  0.2030
   53MOL    C8714751   3.835   4.477   0.992 -0.4914  0.0702 -1.1330
   53MOL    C8814752   3.704   4.522   0.980 -0.1329  0.1600 -0.2917
   53MOL    C8914753   3.635   4.577   1.088  0.2263 -0.0360 -0.0588
   53MOL    C9014754   3.506   4.654   1.056  0.5828  0.9786 -0.3000
   53MOL    C9114755   3.424   4.705   1.149 -0.3933 -0.0422  1.5554
   53MOL    C9214756   3.696   4.579   1.221 -0.8066  0.4635  0.1864
   53MOL    C9314757   3.826   4.529   1.233  0.2841 -0.1820 -0.1809
   53MOL    H9414758   3.881   4.444   0.900  1.2510  1.6327 -0.8503
   53MOL    H9514759   3.667   4.526   0.879 -1.6097 -0.9184  0.1928
   53MOL    H9614760   3.479   4.658   0.951 -0.4487 -0.9458 -0.1243
   53MOL    H9714761   3.452   4.702   1.253  0.0910 -0.4187  1.4130
   53MOL    H9814762   3.651   4.627   1.307  0.2065 -0.0782  1.0485
   53MOL    H9914763   3.870   4.527   1.332  0.0019 -2.3011 -0.0718
   53MOL   C10014764   3.300   4.775   1.114 -0.2611 -0.6095  0.2279
   53MOL   C10114765   3.235   4.841   1.222  0.2105 -0.7744 -0.5847
   53MOL   C10214766   3.106   4.898   1.207 -0.1224 -0.5344  0.6536
   53MOL   C10314767   3.041   4.890   1.076  0.1725  0.3977 -0.1513
   53MOL   C10414768   2.910   4.933   1.055 -0.0929  0.3669  0.3814
   53MOL   C10514769   2.809   4.930   1.149  0.2917 -0.1789  0.0334
   53MOL   C10614770   3.104   4.824   0.974 -0.4625 -0.2544  0.1059
   53MOL   C10714771   3.231   4.763   0.990 -0.4611  0.7009 -0.1390
   53MOL   H10814772   3.287   4.855   1.316 -1.0247  0.0778 -0.0127
   53MOL   H10914773   3.065   4.963   1.283 -0.7688 -1.9250  1.5332
   53MOL   H11014774   2.889   4.961   0.953 -0.9586 -2.5473 -0.2984
   53MOL   H11114775   2.827   4.886   1.247  1.6321  1.9868  0.7835
   53MOL   H11214776   3.066   4.819   0.873  0.5880 -0.4676 -0.2882
   53MOL   H11314777   3.274   4.708   0.908 -2.2356 -0.0612 -0.5968
   53MOL   C11414778   2.666   4.963   1.130  0.7508 -0.2155 -0.0885
   53MOL   C11514779   2.577   4.954   1.244  0.1753 -0.4327  0.1095
   53MOL   C11614780   2.441   4.994   1.235  0.1681 -0.3018 -0.5512
   53MOL   C11714781   2.400   5.052   1.113 -0.3900  0.4938 -0.5479
   53MOL   C11814782   2.259   5.096   1.097 -0.3797 -0.4933 -0.2285
   53MOL   C11914783   2.148   5.053   1.172 -0.2653  0.2768 -0.3207
   53MOL   C12014784   2.490   5.067   1.007  0.2839 -0.1658  0.3999
   53MOL   C12114785   2.618   5.015   1.004  0.4691 -0.3842 -0.3444
   53MOL   H12214786   2.600   4.901   1.335 -3.3038 -0.6464  0.9310
   53MOL   H12314787   2.377   4.981   1.322 -0.1541 -1.7869 -0.9959
   53MOL   H12414788   2.248   5.175   1.024  1.0626  1.8766  2.0201
   53MOL   H12514789   2.160   4.980   1.252  0.0549  1.0524  0.3464
   53MOL   H12614790   2.455   5.114   0.917 -0.4654 -1.3961  0.0359
   53MOL   H12714791   2.675   5.018   0.913 -0.6924  0.4569 -1.0585
   53MOL   C12814792   2.013   5.096   1.144 -0.5884 -0.1414  0.6496
   53MOL   C12914793   1.905   5.011   1.184  0.0934  0.1619 -0.1437
   53MOL   C13014794   1.773   5.050   1.149  0.7950 -0.0693 -0.2194
   53MOL   C13114795   1.748   5.164   1.069 -0.1126 -0.9018  0.3879
   53MOL   C13214796   1.613   5.205   1.011  0.4103  0.7849  0.4909
   53MOL   C13314797   1.493   5.158   1.052 -0.1348 -0.1984  0.2075
   53MOL   C13414798   1.855   5.246   1.037  0.0148 -0.0932  1.1363
   53MOL   C13514799   1.989   5.216   1.070  0.0395 -0.6345 -0.1200
   53MOL   H13614800   1.933   4.928   1.247 -0.1562  2.0048  2.4808
   53MOL   H13714801   1.688   4.985   1.168 -0.2987  1.7993  1.4891
   53MOL   H13814802   1.605   5.277   0.931  1.8321  1.9616  1.3690
   53MOL   H13914803   1.483   5.083   1.130 -2.1524  2.2722  2.4362
   53MOL   H14014804   1.842   5.336   0.978  0.1110  0.4294  1.9027
   53MOL   H14114805   2.073   5.279   1.046  2.0275 -3.5879 -1.3055
   53MOL   C14214806   1.363   5.201   0.986  0.4385  0.0750 -0.1973
   53MOL   C14314807   1.244   5.127   0.999  0.2058  0.9571 -0.3225
   53MOL   C14414808   1.123   5.165   0.931  0.8941 -0.3932 -0.5002
   53MOL   C14514809   1.118   5.293   0.863  0.1301 -1.1439  0.1697
   53MOL   C14614810   0.996   5.346   0.789  0.7452 -0.0463 -0.5663
   53MOL   C14714811   0.973   5.464   0.726 -0.4528  0.4720 -0.6316
   53MOL   C14814812   1.232   5.373   0.858  0.4961  0.4187 -0.0621
   53MOL   C14914813   1.354   5.329   0.923 -0.2115 -1.0675  0.0522
   53MOL   H15014814   1.260   5.030   1.044  1.4775  1.1786 -0.2807
   53MOL   H15114815   1.042   5.094   0.924 -0.6649  1.2244  0.6767
   53MOL   H15214816   0.917   5.273   0.801  1.6490 -0.6515  1.9245
   53MOL   H15314817   1.049   5.541   0.729  1.5362 -1.4816  1.5270
   53MOL   H15414818   1.236   5.471   0.812  0.9218  0.1269 -0.6485
   53MOL   H15514819   1.435   5.401   0.927 -0.3450 -0.9292  0.2536
   53MOL   C15614820   0.858   5.515   0.655 -0.3125 -0.5367  0.5340
   53MOL   C15714821   0.866   5.650   0.612 -0.7129 -0.8378  0.5175
   53MOL   C15814822   0.761   5.702   0.534  0.1918 -0.1590 -0.2099
   53MOL   C15914823   0.649   5.620   0.503  0.2598  0.1527  0.2222
   53MOL   C16014824   0.542   5.668   0.410 -0.6050  0.1208 -0.0533
   53MOL   C16114825   0.522   5.793   0.371  0.4212 -0.6044  0.5988
   53MOL   C16214826   0.647   5.492   0.550  0.1800 -0.4017 -0.3366
   53MOL   C16314827   0.750   5.432   0.625 -0.6667  0.1727 -0.0569
   53MOL   H16414828   0.954   5.712   0.623 -0.9983  0.0608 -2.1426
   53MOL   H16514829   0.769   5.804   0.498  0.4484 -0.5702 -1.3457
   53MOL   H16614830   0.476   5.594   0.366 -0.4914  0.2024 -0.3589
   53MOL   H16714831   0.585   5.872   0.408 -0.1510 -0.6399  1.6818
   53MOL   H16814832   0.551   5.444   0.542  0.4144 -1.3613  2.0411
   53MOL   H16914833   0.737   5.333   0.665  0.3328  1.3381  3.4090
   53MOL   C17014834   0.411   5.846   0.280  0.0216  0.2215 -0.3365
   53MOL   C17114835   0.412   5.987   0.245  0.4430  0.2583 -0.0686
   53MOL   C17214836   0.314   6.037   0.158  0.3980  0.0146 -0.4742
   53MOL   C17314837   0.225   5.949   0.095 -0.5483  0.3792 -0.2654
   53MOL   C17414838   0.129   5.999   8.133 -0.3017 -0.6124 -0.3742
   53MOL   C17514839   0.106   6.125   8.101 -0.0224 -0.5570  0.8702
   53MOL   C17614840   0.222   5.807   0.125  0.2050 -0.4239 -1.1306
   53MOL   C17714841   0.317   5.758   0.218  0.2133  0.3918 -0.5110
   53MOL   H17814842   0.490   6.055   0.276  2.0148 -1.0528 -1.0465
   53MOL   H17914843   0.326   6.142   0.134  0.9729  0.0424 -0.0881
   53MOL   H18014844   0.074   5.930   8.071 -0.7932 -0.3206 -0.2706
   53MOL   H18114845   0.154   6.201   0.016 -0.7301 -0.9347  1.9511
   53MOL   H18214846   0.146   5.743   0.082 -0.8602  0.8202 -1.1375
   53MOL   H18314847   0.325   5.652   0.237  0.5862  0.5833  0.3967
   53MOL   C18414848   0.024   6.163   7.983  0.0780 -0.2991 -0.2792
   53MOL   C18514849   0.048   6.289   7.932 -0.0317 -0.5672 -0.5855
   53MOL   C18614850   8.121   6.341   7.822 -0.2460  0.1354 -0.9326
   53MOL   C18714851   8.027   6.260   7.759  0.2819  0.2985 -0.7294
   53MOL   C18814852   7.963   6.325   7.645  0.1663  0.9644 -0.6956
   53MOL   C18914853   7.838   6.287   7.602 -0.1893 -0.2432  0.2339
   53MOL   C19014854   7.998   6.129   7.810 -0.5390  0.4123  0.0366
   53MOL   C19114855   8.069   6.084   7.922 -0.5513 -0.2697  0.0797
   53MOL   H19214856   0.125   6.357   7.967  1.6678 -3.3811  1.3898
   53MOL   H19314857   0.017   6.433   7.784  0.6044  0.4387  0.6472
   53MOL   H19414858   8.011   6.413   7.606  0.3794  1.6205  0.9849
   53MOL   H19514859   7.802   6.200   7.655  1.5130 -0.4761  1.0427
   53MOL   H19614860   7.922   6.063   7.770  0.6167  0.1963 -1.8548
   53MOL   H19714861   8.051   5.984   7.961  0.1872  0.1517  1.5576
   53MOL   C19814862   7.754   6.352   7.502 -0.8922  0.2184  0.1085
   53MOL   C19914863   7.795   6.452   7.414 -0.2825 -0.2152 -0.1616
   53MOL   C20014864   7.704   6.512   7.320 -0.5306 -0.0329  0.4960
   53MOL   C20114865   7.572   6.470   7.309 -0.1976  0.2621 -0.1558
   53MOL   C20214866   7.484   6.532   7.213  1.3391 -0.2512  0.2099
   53MOL   C20314867   7.348   6.513   7.209 -0.8623  0.6083  0.1221
   53MOL   C20414868   7.532   6.365   7.398 -0.0521  0.1651  0.4563
   53MOL   C20514869   7.620   6.304   7.492  0.2979 -0.5005  0.2971
   53MOL   H20614870   7.896   6.491   7.415  0.5412 -2.2109 -2.7064
   53MOL   H20714871   7.741   6.595   7.261  2.3470  0.1903  2.5033
   53MOL   H20814872   7.544   6.590   7.144  0.6583 -0.3556 -0.4835
   53MOL   H20914873   7.313   6.430   7.269 -0.0263 -1.5003 -2.1823
   53MOL   H21014874   7.433   6.320   7.396  1.3317 -3.0312  1.1915
   53MOL   H21114875   7.582   6.224   7.554 -0.8788 -0.6139 -0.5564
   53MOL   C21214876   7.255   6.591   7.127 -0.2590  0.2461  0.1400
   53MOL   C21314877   7.125   6.538   7.112  0.3505  0.6800 -0.0427
   53MOL   C21414878   7.040   6.603   7.017 -0.4644  0.6075 -0.3943
   53MOL   C21514879   7.070   6.727   6.957 -0.0446 -0.3856 -0.6853
   53MOL   C21614880   6.968   6.794   6.876 -0.1114  0.1418  0.3930
   53MOL   C21714881   6.996   6.859   6.761  0.0086 -0.0472 -0.0185
   53MOL   C21814882   7.191   6.786   6.995 -0.5747  0.2798 -0.7305
   53MOL   C21914883   7.288   6.718   7.075  0.4109  0.4964  0.3073
   53MOL   H22014884   7.086   6.448   7.158 -0.4604  0.3426 -1.3418
   53MOL   H22114885   6.939   6.571   6.994 -0.4067  1.9190 -2.6031
   53MOL   H22214886   6.867   6.796   6.913 -0.7620 -0.1394 -1.3159
   53MOL   H22314887   7.096   6.852   6.720  0.8053 -2.3864  2.1435
   53MOL   H22414888   7.224   6.874   6.942 -1.7706  0.9125 -0.4388
   53MOL   H22514889   7.381   6.770   7.092  0.2106  0.8140  0.4362
   53MOL   C22614890   6.901   6.921   6.664 -0.4670 -0.2296  0.3814
   53MOL   C22714891   6.948   6.994   6.554  0.1244 -0.1857  0.5462
   53MOL   C22814892   6.861   7.064   6.471 -0.2757 -0.5823  0.1948
   53MOL   C22914893   6.724   7.056   6.486 -1.2012  0.1425 -0.0967
   53MOL   C23014894   6.627   7.114   6.392 -1.0068 -0.7655 -0.2661
   53MOL   C23114895   6.662   7.204   6.294 -0.0867  0.0750 -0.8685
   53MOL   C23214896   6.674   6.977   6.590 -0.7553  0.5611 -0.0556
   53MOL   C23314897   6.761   6.914   6.685 -0.0898 -0.4429 -0.0629
   53MOL   H23414898   7.050   7.005   6.522 -0.4776  3.1910 -0.4832
   53MOL   H23514899   6.905   7.114   6.385 -1.5719  1.3944  0.6483
   53MOL   H23614900   6.522   7.093   6.406 -1.0162 -0.6024 -0.0944
   53MOL   H23714901   6.767   7.225   6.297 -0.3280  1.0766  1.0537
   53MOL   H23814902   6.567   6.971   6.605 -0.8852  2.2237 -0.3232
   53MOL   H23914903   6.721   6.848   6.761 -0.2878 -0.1068  0.1286
   53MOL   C24014904   6.578   7.268   6.197 -0.1797  0.6212 -0.5768
   53MOL   C24114905   6.438   7.259   6.190 -0.2292 -0.5058  0.3977
   53MOL   C24214906   6.365   7.326   6.088  0.0950  0.3593 -0.0939
   53MOL   C24314907   6.428   7.411   5.998  0.0386  0.0796  0.4362
   53MOL   C24414908   6.344   7.481   5.893 -0.7255  0.9322 -0.4421
   53MOL   C24514909   6.395   7.560   5.797  0.1083  0.2851  0.5710
   53MOL   C24614910   6.573   7.426   6.009  0.3002  0.4802  0.1041
   53MOL   C24714911   6.646   7.358   6.107  0.2115  0.8066 -0.5564
   53MOL   H24814912   6.391   7.186   6.254  3.7144 -1.0673  2.8489
   53MOL   H24914913   6.262   7.299   6.071 -0.0573  0.7493  0.1937
   53MOL   H25014914   6.238   7.464   5.895 -0.9334  2.2793  0.8562
   53MOL   H25114915   6.499   7.589   5.802  0.8560 -1.8817 -1.2120
   53MOL   H25214916   6.629   7.475   5.931 -1.1780 -1.3243 -2.1719
   53MOL   H25314917   6.752   7.378   6.099  0.3578  0.8001  1.1985
   53MOL   C25414918   6.314   7.619   5.688  0.3082  0.1640 -0.7599
   53MOL   C25514919   6.376   7.701   5.597 -1.4415  1.1809  0.4815
   53MOL   C25614920   6.303   7.762   5.493  0.8537  0.2902  0.5298
   53MOL   C25714921   6.168   7.730   5.476  0.4243  0.3647 -0.0267
   53MOL   C25814922   6.093   7.781   5.363 -0.9708 -0.1536  0.2263
   53MOL   C25914923   6.057   7.907   5.330 -0.3543  0.6775  0.8886
   53MOL   C26014924   6.105   7.644   5.565 -0.2780 -0.0049  0.0856
   53MOL   C26114925   6.176   7.599   5.673  0.2338 -0.1068 -0.2983
   53MOL   H26214926   6.479   7.733   5.613 -1.2736  1.1820 -0.5665
   53MOL   H26314927   6.346   7.841   5.432  2.1905 -0.4672  0.4753
   53MOL   H26414928   6.056   7.703   5.297  1.4095 -1.1202 -0.0070
   53MOL   H26514929   6.001   7.915   5.238 -1.2425  0.9055  1.4426
   53MOL   H26614930   6.007   7.613   5.533 -0.5249  0.8480  0.0014
   53MOL   H26714931   6.123   7.537   5.743 -1.9733  2.0950  0.0713
   53MOL   C26814932   6.082   8.034   5.407  0.1180  0.0495 -0.2841
   53MOL   C26914933   6.048   8.050   5.544  0.1476 -0.4573 -0.2316
   53MOL   C27014934   6.090   0.022   5.605  0.3081 -0.1501 -0.1803
   53MOL   C27114935   6.165   0.121   5.544 -0.9866  0.0927 -0.1663
   53MOL   C27214936   6.228   0.227   5.623  0.0508  0.2593  0.8359
   53MOL   C27314937   6.295   0.325   5.569 -0.0274  0.4092 -0.3923
   53MOL   C27414938   6.190   0.106   5.406  0.3910 -0.1897 -0.8184
   53MOL   C27514939   6.144   8.136   5.334  0.8449 -0.9717  0.3722
   53MOL   H27614940   5.996   7.979   5.606 -1.8422  1.6668  0.5937
   53MOL   H27714941   6.065   0.029   5.710  0.8099  0.9513 -0.1233
   53MOL   H27814942   6.215   0.221   5.731 -0.9068  1.8441  0.8163
   53MOL   H27914943   6.299   0.335   5.461  2.2631  2.0472 -0.1909
   53MOL   H28014944   6.251   0.178   5.352 -2.6567  4.1225  1.2245
   53MOL   H28114945   6.170   8.132   5.229 -1.2001 -2.9553 -0.0999
   53MOL   H28214946   6.331   0.404   5.633 -1.3728  0.5982  0.1586
   54MOL     C114947   3.740   5.271   5.103 -0.1120 -0.2681  0.8742
   54MOL     C214948   3.658   5.285   5.217  0.6949 -0.7592  0.9859
   54MOL     C314949   3.516   5.303   5.199 -0.2024  1.0393 -0.3915
   54MOL     C414950   3.456   5.305   5.072 -0.2485  0.5756  0.0574
   54MOL     C514951   3.309   5.326   5.057 -0.4800 -1.2323 -0.9146
   54MOL     C614952   3.223   5.377   5.152 -0.0989  0.2613 -0.2559
   54MOL     C714953   3.543   5.288   4.960 -0.3585 -0.3965  0.0316
   54MOL     C814954   3.683   5.270   4.973 -0.3263 -0.0181  0.0156
   54MOL     H914955   3.697   5.285   5.318  0.3748 -1.2489  1.1143
   54MOL    H1014956   3.456   5.308   5.288 -1.0175  1.3977 -0.9623
   54MOL    H1114957   3.272   5.304   4.958  0.4175 -0.4155 -1.4360
   54MOL    H1214958   3.250   5.383   5.257  1.6841 -0.7272 -0.6405
   54MOL    H1314959   3.502   5.288   4.860  1.0164  0.9831 -0.5454
   54MOL    H1414960   3.754   5.259   4.893 -1.7108  3.9067 -1.8667
   54MOL    H1514961   3.847   5.257   5.106 -0.1711 -1.3552 -1.1706
   54MOL    C1614962   3.086   5.412   5.116  0.6454 -0.1401  0.0555
   54MOL    C1714963   3.032   5.406   4.990  0.3466  0.1075 -0.3475
   54MOL    C1814964   2.898   5.456   4.969  0.1521 -0.3903 -0.1573
   54MOL    C1914965   2.823   5.506   5.079 -1.0121 -0.5964  0.1164
   54MOL    C2014966   2.690   5.559   5.052  0.6062 -0.2776 -0.3016
   54MOL    C2114967   2.602   5.600   5.144  0.3708  0.3361  0.3980
   54MOL    C2214968   2.885   5.514   5.202 -0.1519  0.2502  0.1788
   54MOL    C2314969   3.015   5.474   5.221  0.5581  0.2303 -0.2578
   54MOL    H2414970   3.080   5.358   4.906 -1.8142 -1.6360 -0.6414
   54MOL    H2514971   2.841   5.434   4.880 -2.1183  0.0385  1.1671
   54MOL    H2614972   2.655   5.559   4.950 -1.2748  1.8002  0.3018
   54MOL    H2714973   2.630   5.591   5.248  2.4742  0.7021 -0.1140
   54MOL    H2814974   2.834   5.562   5.284 -0.7128 -0.6824  0.3818
   54MOL    H2914975   3.063   5.487   5.316 -0.0386 -0.8575  0.2114
   54MOL    C3014976   2.473   5.655   5.114  0.0088  0.1631 -0.1418
   54MOL    C3114977   2.433   5.688   4.984  0.1891  0.2387 -0.5918
   54MOL    C3214978   2.298   5.738   4.960 -0.6217 -0.5964 -0.1716
   54MOL    C3314979   2.213   5.749   5.070  0.0389 -0.2071 -0.3927
   54MOL    C3414980   2.066   5.782   5.044 -0.7718  0.3104 -0.3591
   54MOL    C3514981   1.966   5.808   5.137 -0.2293 -0.3330  0.6038
   54MOL    C3614982   2.260   5.724   5.200  0.2149 -0.4118  0.2249
   54MOL    C3714983   2.387   5.670   5.219  0.1623  0.5539  0.0421
   54MOL    H3814984   2.504   5.685   4.903  1.2601 -0.1363  0.3461
   54MOL    H3914985   2.268   5.765   4.860 -2.5645  0.1827  0.5929
   54MOL    H4014986   2.048   5.779   4.938 -1.8170  2.3519 -0.2614
   54MOL    H4114987   1.993   5.804   5.242 -0.1789  0.3611  0.6177
   54MOL    H4214988   2.184   5.738   5.275 -0.7974 -1.4340 -0.5938
   54MOL    H4314989   2.427   5.646   5.317 -0.5601 -1.3035 -0.0992
   54MOL    C4414990   1.825   5.836   5.097  0.2209 -0.6552  0.9080
   54MOL    C4514991   1.797   5.871   4.964  0.0061 -0.0114 -0.1696
   54MOL    C4614992   1.664   5.886   4.920 -0.4265  0.0836 -0.5805
   54MOL    C4714993   1.552   5.869   5.009  0.3892  0.4009  0.3927
   54MOL    C4814994   1.413   5.894   4.969  0.1483  0.1931  0.3095
   54MOL    C4914995   1.376   5.896   4.841 -0.7485 -0.0451  0.4887
   54MOL    C5014996   1.580   5.830   5.141 -0.2872  0.5124  0.1696
   54MOL    C5114997   1.713   5.816   5.186 -0.4989  0.2891  0.3952
   54MOL    H5214998   1.867   5.889   4.885 -1.1245 -0.9359 -1.4160
   54MOL    H5314999   1.661   5.921   4.818 -0.2288 -2.5088 -1.5139
   54MOL    H5415000   1.345   5.913   5.050  0.7365 -0.7533  1.0391
   54MOL    H5515001   1.453   5.859   4.775 -2.0707 -0.2836 -0.9314
   54MOL    H5615002   1.501   5.828   5.215  0.9169  0.8972  1.5114
   54MOL    H5715003   1.736   5.779   5.285  3.4252  0.7117 -0.2578
   54MOL    C5815004   1.247   5.939   4.782 -0.0727  0.0418  0.5872
   54MOL    C5915005   1.145   5.992   4.863  0.1779  0.3963  0.2288
   54MOL    C6015006   1.018   6.033   4.805 -1.0660 -0.4445  0.0978
   54MOL    C6115007   0.994   6.025   4.669 -0.1175  0.0162  0.2469
   54MOL    C6215008   0.862   6.057   4.609 -0.2911  0.6615  0.3050
   54MOL    C6315009   0.800   5.995   4.505 -0.3723  0.2204  0.1430
   54MOL    C6415010   1.092   5.962   4.590 -0.0351 -0.4092  0.0560
   54MOL    C6515011   1.219   5.935   4.648  0.8797 -0.1646  0.2891
   54MOL    H6615012   1.151   6.002   4.970  0.6199  0.3036  0.2140
   54MOL    H6715013   0.938   6.055   4.875  0.4487 -0.8158  1.9711
   54MOL    H6815014   0.804   6.135   4.657 -0.5680  1.4489 -1.2699
   54MOL    H6915015   0.855   5.915   4.458  1.0361 -0.2902  2.5577
   54MOL    H7015016   1.070   5.949   4.485  1.5044  0.7394 -0.4249
   54MOL    H7115017   1.295   5.888   4.587  1.1702 -0.7741  1.1105
   54MOL    C7215018   0.670   6.031   4.456 -0.1993 -0.7654 -0.4217
   54MOL    C7315019   0.611   6.153   4.488 -0.1662 -0.1326 -0.6767
   54MOL    C7415020   0.484   6.182   4.433  0.6169  0.1103  0.5627
   54MOL    C7515021   0.421   6.096   4.339  0.1088  0.0213 -0.4805
   54MOL    C7615022   0.279   6.125   4.308  0.4231 -0.2589  0.3891
   54MOL    C7715023   0.191   6.194   4.376  0.8313  0.3088 -0.8597
   54MOL    C7815024   0.486   5.984   4.297  0.4151 -0.5058  0.2963
   54MOL    C7915025   0.609   5.951   4.357 -0.2053 -0.5138  0.1842
   54MOL    H8015026   0.659   6.224   4.554  0.0534 -0.9436  0.0389
   54MOL    H8115027   0.436   6.272   4.467 -2.3527 -1.8921  1.8504
   54MOL    H8215028   0.253   6.087   4.210  1.6331 -0.6881  0.2295
   54MOL    H8315029   0.223   6.228   4.474  0.1812 -2.1989  0.2732
   54MOL    H8415030   0.437   5.911   4.236 -0.7878 -1.0602  1.8991
   54MOL    H8515031   0.657   5.862   4.319 -1.6280 -1.0423 -0.4024
   54MOL    C8615032   0.048   6.207   4.340 -0.4549  0.0483  0.4345
   54MOL    C8715033   8.102   6.263   4.433 -0.1288  0.6975 -0.4511
   54MOL    C8815034   7.972   6.299   4.390  0.3569  0.3966 -0.1158
   54MOL    C8915035   7.937   6.282   4.253  0.4005  0.1016  0.1617
   54MOL    C9015036   7.797   6.328   4.201 -0.5605  0.6229 -0.1708
   54MOL    C9115037   7.700   6.406   4.256 -0.0176  0.3984  0.2220
   54MOL    C9215038   8.020   6.227   4.159  0.5327  0.0440  0.4514
   54MOL    C9315039   8.142   6.188   4.206 -0.5579  1.4228  0.2987
   54MOL    H9415040   8.128   6.277   4.537 -0.9321  1.7705 -0.3778
   54MOL    H9515041   7.904   6.338   4.465  0.2756 -1.9107  1.0674
   54MOL    H9615042   7.780   6.298   4.098  0.1013  2.2745 -0.7881
   54MOL    H9715043   7.714   6.436   4.359  1.7358  0.9884 -0.1655
   54MOL    H9815044   7.990   6.215   4.056  1.4253  1.1331  0.0605
   54MOL    H9915045   0.066   6.138   4.139 -2.2546 -0.8126  0.1916
   54MOL   C10015046   7.573   6.446   4.188 -0.1884  0.1269  0.6023
   54MOL   C10115047   7.553   6.447   4.047 -0.6816  0.0033 -0.5389
   54MOL   C10215048   7.423   6.470   3.995  0.7390 -0.1141 -0.2271
   54MOL   C10315049   7.309   6.495   4.074 -0.0903 -0.1204  1.0981
   54MOL   C10415050   7.174   6.512   4.012  0.1670 -0.4876  0.2142
   54MOL   C10515051   7.059   6.504   4.078  0.0047  0.0187 -0.3711
   54MOL   C10615052   7.332   6.487   4.213  0.1807  0.1922  0.6826
   54MOL   C10715053   7.461   6.463   4.271 -0.0703  0.1116 -0.0126
   54MOL   H10815054   7.631   6.423   3.976  0.5186 -0.2159  0.8475
   54MOL   H10915055   7.412   6.472   3.887  0.3823 -0.0259 -0.1882
   54MOL   H11015056   7.171   6.539   3.908  0.3896  1.2989  0.6509
   54MOL   H11115057   7.058   6.480   4.184  1.8878  0.5851 -0.2037
   54MOL   H11215058   7.251   6.503   4.283 -0.8680 -0.5325 -0.3476
   54MOL   H11315059   7.466   6.459   4.379 -2.0110  1.0537  0.1285
   54MOL   C11415060   6.918   6.527   4.028 -0.0575  0.5112  0.1781
   54MOL   C11515061   6.816   6.518   4.119 -0.5030 -0.4099 -0.8510
   54MOL   C11615062   6.683   6.514   4.073  0.4046 -0.8531 -0.0632
   54MOL   C11715063   6.648   6.539   3.938  0.3542  0.2394 -0.1817
   54MOL   C11815064   6.509   6.556   3.901  0.1844 -0.1161  0.5678
   54MOL   C11915065   6.466   6.569   3.775  0.4381  0.3901  0.9004
   54MOL   C12015066   6.755   6.555   3.849 -0.3806  0.8401  0.7656
   54MOL   C12115067   6.887   6.531   3.886 -0.0551 -0.0492 -0.3414
   54MOL   H12215068   6.837   6.499   4.223 -1.9657 -0.4179 -0.5443
   54MOL   H12315069   6.609   6.502   4.151  0.5012  0.7542  0.2852
   54MOL   H12415070   6.438   6.556   3.982 -0.7291  0.7907 -0.2103
   54MOL   H12515071   6.531   6.563   3.689 -1.6662 -0.5849 -0.6940
   54MOL   H12615072   6.738   6.579   3.745 -0.7165 -0.0045  0.6277
   54MOL   H12715073   6.965   6.548   3.814  1.1615  0.4004  1.0628
   54MOL   C12815074   6.326   6.597   3.735 -0.3514  0.0501 -0.4438
   54MOL   C12915075   6.287   6.615   3.605 -0.2396 -0.3117  0.5237
   54MOL   C13015076   6.153   6.645   3.565 -0.2078  0.0041 -0.0312
   54MOL   C13115077   6.060   6.668   3.669  0.0067  0.1694  0.9409
   54MOL   C13215078   5.930   6.726   3.647 -0.4231  0.0512 -0.1041
   54MOL   C13315079   5.846   6.772   3.737 -0.6526 -0.3148 -0.1490
   54MOL   C13415080   6.096   6.631   3.798  0.0140 -0.1980  0.4282
   54MOL   C13515081   6.227   6.601   3.835 -0.4627 -0.1592 -0.1294
   54MOL   H13615082   6.358   6.602   3.524  1.7635 -2.0287  2.4723
   54MOL   H13715083   6.125   6.661   3.462  0.3089 -1.6267 -0.4428
   54MOL   H13815084   5.903   6.725   3.543 -2.4155  2.1530  0.3665
   54MOL   H13915085   5.869   6.765   3.843  0.2450 -0.6271 -0.3630
   54MOL   H14015086   6.024   6.641   3.878  1.0204  1.8861  1.1008
   54MOL   H14115087   6.239   6.590   3.941 -1.2066  0.1830 -0.0057
   54MOL   C14215088   5.710   6.826   3.708  0.4594  0.0846 -0.1777
   54MOL   C14315089   5.638   6.777   3.597 -0.0805  0.0067 -0.1907
   54MOL   C14415090   5.512   6.833   3.579  0.0833  0.7493  0.8122
   54MOL   C14515091   5.469   6.940   3.656 -0.2782 -0.4894  0.0398
   54MOL   C14615092   5.339   6.996   3.615  0.2573  0.1445  0.4205
   54MOL   C14715093   5.273   7.103   3.670  0.4096 -0.1264 -0.0381
   54MOL   C14815094   5.549   6.995   3.760  0.1852 -0.6474  0.3480
   54MOL   C14915095   5.670   6.931   3.786  0.7720 -0.1861 -0.0664
   54MOL   H15015096   5.684   6.701   3.535 -0.6774  0.7016 -1.5071
   54MOL   H15115097   5.444   6.794   3.504 -0.7703  0.1960  1.8727
   54MOL   H15215098   5.283   6.938   3.543 -1.2073  0.5200  1.2463
   54MOL   H15315099   5.323   7.163   3.744  1.1924  1.6874 -1.9597
   54MOL   H15415100   5.524   7.088   3.809  2.7577 -0.2122  0.9135
   54MOL   H15515101   5.745   6.956   3.859  1.4689  1.0503 -1.1893
   54MOL   C15615102   5.140   7.140   3.633 -0.5219  0.7483 -0.0588
   54MOL   C15715103   5.055   7.052   3.563  0.1197 -0.2537  0.1885
   54MOL   C15815104   4.920   7.097   3.535  0.3909  0.2157  0.2133
   54MOL   C15915105   4.871   7.221   3.586 -1.2855  0.3885  0.8889
   54MOL   C16015106   4.736   7.265   3.557 -0.3693  0.3019  0.1084
   54MOL   C16115107   4.678   7.380   3.585  0.1491 -0.3028 -0.3792
   54MOL   C16215108   4.963   7.302   3.659 -0.0864  0.6055 -0.2929
   54MOL   C16315109   5.097   7.265   3.676 -0.3538 -0.7162 -0.1298
   54MOL   H16415110   5.073   6.950   3.533 -0.0552 -0.1221 -0.3795
   54MOL   H16515111   4.850   7.036   3.480  0.6814  0.4790 -0.4499
   54MOL   H16615112   4.673   7.194   3.505  0.8507 -0.7193  0.0289
   54MOL   H16715113   4.745   7.455   3.624  0.4951  0.7829 -2.9659
   54MOL   H16815114   4.926   7.393   3.704 -2.4290 -0.4276 -0.0361
   54MOL   H16915115   5.159   7.332   3.732 -0.7211  1.5483 -2.3090
   54MOL   C17015116   4.541   7.416   3.553 -0.3924 -0.0403  0.0018
   54MOL   C17115117   4.483   7.533   3.605  0.8068 -0.3173 -0.8164
   54MOL   C17215118   4.349   7.567   3.577  0.0974 -0.1250 -0.4952
   54MOL   C17315119   4.278   7.500   3.480 -0.8823 -0.1011  0.7841
   54MOL   C17415120   4.153   7.552   3.434 -0.8491  0.3099  0.2885
   54MOL   C17515121   4.111   7.679   3.448 -0.2215 -0.1838  0.5003
   54MOL   C17615122   4.332   7.384   3.421  0.2109 -0.0154 -0.0572
   54MOL   C17715123   4.458   7.340   3.467 -0.0824 -0.0654  0.1836
   54MOL   H17815124   4.532   7.602   3.672  0.0260  1.1745 -1.7530
   54MOL   H17915125   4.312   7.655   3.627  2.0111  0.4557 -0.0693
   54MOL   H18015126   4.079   7.486   3.391 -0.3108 -0.9656  1.2576
   54MOL   H18115127   4.178   7.748   3.498  0.5720 -0.7799  0.2730
   54MOL   H18215128   4.274   7.336   3.343  0.2228 -0.1917  0.0418
   54MOL   H18315129   4.485   7.252   3.409 -2.1649 -0.2257 -0.5755
   54MOL   C18415130   3.978   7.731   3.403  0.1065  0.7717  0.3207
   54MOL   C18515131   3.915   7.848   3.462  0.6845 -0.0691  0.2438
   54MOL   C18615132   3.791   7.895   3.406 -0.2314 -0.0669  0.1054
   54MOL   C18715133   3.721   7.818   3.310 -0.2174  0.0132 -0.0652
   54MOL   C18815134   3.582   7.861   3.260 -0.4712 -0.4640 -0.0875
   54MOL   C18915135   3.518   7.976   3.286 -0.0419  0.8764  0.4889
   54MOL   C19015136   3.781   7.701   3.257  0.2732  0.1064  0.4301
   54MOL   C19115137   3.902   7.657   3.305 -0.1596  0.6938 -0.8785
   54MOL   H19215138   3.977   7.910   3.525  1.6967  0.9593 -1.7003
   54MOL   H19315139   3.752   7.991   3.434 -2.2542 -0.5017 -1.1351
   54MOL   H19415140   3.531   7.787   3.199 -3.1280  1.9690 -0.9058
   54MOL   H19515141   3.572   8.052   3.342  0.0044  1.0150  0.2590
   54MOL   H19615142   3.734   7.645   3.178 -0.4800  0.3226  0.7272
   54MOL   H19715143   3.940   7.573   3.248 -1.5680  0.2259 -1.1541
   54MOL   C19815144   3.378   8.015   3.242 -0.0932 -0.4233  1.2046
   54MOL   C19915145   3.320   8.137   3.283 -0.8979  0.0852  0.2669
   54MOL   C20015146   3.185   0.027   3.249  0.4077 -0.0667  0.2294
   54MOL   C20115147   3.101   8.078   3.179  0.3202  0.4745 -0.1699
   54MOL   C20215148   2.970   8.118   3.126  0.3272  0.4446 -0.3998
   54MOL   C20315149   2.900   0.089   3.144 -1.2050 -0.0777  0.2305
   54MOL   C20415150   3.159   7.956   3.141  0.1512 -0.5068  0.2187
   54MOL   C20515151   3.296   7.931   3.161  0.0184  0.1330  0.1927
   54MOL   H20615152   3.377   0.061   3.344  0.1228 -0.0356 -0.5389
   54MOL   H20715153   3.153   0.128   3.273  0.0207 -0.0816 -0.2233
   54MOL   H20815154   2.913   8.043   3.074 -0.3893 -1.0917  2.5208
   54MOL   H20915155   2.940   0.169   3.204 -1.7122 -1.2885  2.2241
   54MOL   H21015156   3.102   7.881   3.089  1.9367 -0.9036 -1.2233
   54MOL   H21115157   3.334   7.836   3.126 -2.4259 -0.8294  0.0610
   54MOL   C21215158   2.772   0.122   3.081  0.4327 -0.2968  0.3002
   54MOL   C21315159   2.682   0.024   3.040  0.0567 -0.0870 -0.4893
   54MOL   C21415160   2.557   0.068   2.981 -0.2935  0.1062 -0.2741
   54MOL   C21515161   2.514   0.205   2.988  0.1927 -0.4128  0.3175
   54MOL   C21615162   2.385   0.262   2.950 -0.3358  0.5024  0.3593
   54MOL   C21715163   2.289   0.195   2.882  0.2525  0.6538 -0.2689
   54MOL   C21815164   2.604   0.302   3.039  0.3924  0.3948 -0.6919
   54MOL   C21915165   2.730   0.254   3.085 -0.6704  0.2289 -0.2382
   54MOL   H22015166   2.701   8.063   3.056  1.3359  0.4845  2.0933
   54MOL   H22115167   2.499   8.135   2.934 -1.8304 -0.7137  2.8252
   54MOL   H22215168   2.369   0.366   2.975  0.0686  0.5484  0.4395
   54MOL   H22315169   2.303   0.091   2.857  0.2901  1.1161 -2.2960
   54MOL   H22415170   2.580   0.406   3.052  1.5915  0.4346  1.4529
   54MOL   H22515171   2.799   0.320   3.136  0.0131  0.2719 -1.1949
   54MOL   C22615172   2.160   0.247   2.848  0.1339  0.6577 -0.1629
   54MOL   C22715173   2.119   0.380   2.883 -0.4198  0.2015 -0.1258
   54MOL   C22815174   1.985   0.419   2.871  0.3042  0.4723  0.0272
   54MOL   C22915175   1.884   0.331   2.836 -0.0640  0.1309 -0.2130
   54MOL   C23015176   1.747   0.380   2.844 -0.7755  0.0765 -0.4016
   54MOL   C23115177   1.645   0.331   2.779  0.5230 -0.2219 -1.2240
   54MOL   C23215178   1.921   0.200   2.788  0.2852  0.9278 -0.8762
   54MOL   C23315179   2.060   0.161   2.802  0.0645  0.6216 -1.0291
   54MOL   H23415180   2.195   0.448   2.918 -0.8645  1.2142 -1.1177
   54MOL   H23515181   1.959   0.520   2.900 -0.0355  0.7139 -1.0746
   54MOL   H23615182   1.748   0.472   2.901  0.7171  0.3973 -0.9150
   54MOL   H23715183   1.646   0.245   2.714 -0.5611 -0.6003 -0.7500
   54MOL   H23815184   1.851   0.123   2.759  0.1965  1.0044 -0.8630
   54MOL   H23915185   2.079   0.056   2.784 -0.2134  0.6369 -1.4327
   54MOL   C24015186   1.509   0.396   2.791  0.5402  0.1363 -0.1863
   54MOL   C24115187   1.480   0.504   2.874  0.4511  0.4433  0.0662
   54MOL   C24215188   1.349   0.548   2.871 -0.5957  0.1339 -0.6701
   54MOL   C24315189   1.249   0.506   2.778 -0.6950 -0.1316 -0.5206
   54MOL   C24415190   1.112   0.572   2.767 -0.2680  0.4310 -0.8078
   54MOL   C24515191   1.044   0.628   2.873  0.2369 -0.2232  0.9099
   54MOL   C24615192   1.281   0.399   2.703 -0.0219  0.1030  0.7101
   54MOL   C24715193   1.406   0.342   2.703 -0.5562 -0.3670 -0.5453
   54MOL   H24815194   1.557   0.548   2.936  1.3048 -0.8319 -0.0612
   54MOL   H24915195   1.326   0.630   2.938  2.7599  1.4234 -0.9771
   54MOL   H25015196   1.069   0.575   2.667 -2.2495 -1.4124 -0.0582
   54MOL   H25115197   1.090   0.622   2.970  0.9937 -2.0074  0.4643
   54MOL   H25215198   1.202   0.361   2.640 -1.0674 -2.2484  3.3005
   54MOL   H25315199   1.409   0.252   2.643 -1.4336  1.1184 -2.8621
   54MOL   C25415200   0.919   0.707   2.850  0.0468  0.0260 -0.0513
   54MOL   C25515201   0.913   0.781   2.731  0.2553  0.4905 -0.2748
   54MOL   C25615202   0.804   0.870   2.703 -0.3075 -0.7502  0.9642
   54MOL   C25715203   0.693   0.867   2.786  0.2787 -0.3147 -0.7167
   54MOL   C25815204   0.574   0.950   2.756 -0.0381  0.5220 -0.2125
   54MOL   C25915205   0.501   1.030   2.832  0.1621 -0.7226 -0.4431
   54MOL   C26015206   0.693   0.787   2.907 -0.1095  1.0765  0.6103
   54MOL   C26115207   0.810   0.715   2.943  0.0526 -0.6321 -0.0568
   54MOL   H26215208   1.009   0.797   2.683 -0.1847  1.4432 -0.8627
   54MOL   H26315209   0.811   0.930   2.614 -3.1991 -1.2315  0.3774
   54MOL   H26415210   0.539   0.937   2.654  0.7067 -2.3186 -0.1616
   54MOL   H26515211   0.413   1.068   2.783 -0.3193 -1.4974 -0.2038
   54MOL   H26615212   0.614   0.809   2.976 -0.7798  0.7521 -0.0422
   54MOL   H26715213   0.816   0.655   3.032  0.4784 -0.2521  0.1750
   54MOL   C26815214   0.530   1.066   2.975 -0.4610  0.6351 -0.8181
   54MOL   C26915215   0.662   1.094   3.014 -0.1157 -0.8572  0.9576
   54MOL   C27015216   0.693   1.125   3.146  0.4351 -0.3128 -0.3648
   54MOL   C27115217   0.589   1.143   3.240  0.1290 -0.5530  0.5958
   54MOL   C27215218   0.611   1.183   3.384 -0.1948 -0.4653  0.0766
   54MOL   C27315219   0.727   1.218   3.444 -0.3608  0.0566 -0.4877
   54MOL   C27415220   0.460   1.102   3.208  0.0947 -0.3321 -0.3302
   54MOL   C27515221   0.435   1.066   3.078 -0.4812  0.4046 -0.5525
   54MOL   H27615222   0.740   1.083   2.941 -1.1614  0.3428 -0.3811
   54MOL   H27715223   0.796   1.145   3.173 -0.0961  0.2228  1.3765
   54MOL   H27815224   0.525   1.182   3.449  0.5643  0.8175  1.1400
   54MOL   H27915225   0.818   1.213   3.386  0.4338 -1.9885  0.8806
   54MOL   H28015226   0.384   1.109   3.284  0.8307 -0.7664  0.4605
   54MOL   H28115227   0.331   1.038   3.065 -0.0444 -1.3003 -0.4681
   54MOL   H28215228   0.731   1.245   3.548  0.4051  1.5112 -0.8878
   55MOL     C115229   3.164   4.723   1.698 -0.1991  0.3887  0.4581
   55MOL     C215230   3.093   4.610   1.723 -0.8820 -1.1830 -0.0074
   55MOL     C315231   3.126   4.489   1.652 -0.4605  0.3665  0.3446
   55MOL     C415232   3.226   4.494   1.549 -0.0647  0.0293  1.0467
   55MOL     C515233   3.269   4.368   1.484  0.7783  0.0874  0.4456
   55MOL     C615234   3.318   4.359   1.362 -0.2424 -0.3325 -0.0199
   55MOL     C715235   3.287   4.614   1.527 -0.5058 -0.6828  0.4409
   55MOL     C815236   3.256   4.731   1.594 -0.4107  0.2910  0.0276
   55MOL     H915237   3.031   4.614   1.812  1.1305 -1.6515  1.4601
   55MOL    H1015238   3.096   4.388   1.678  1.0216  0.4682  2.6720
   55MOL    H1115239   3.249   4.287   1.552 -1.1831  0.3811  0.2538
   55MOL    H1215240   3.328   4.450   1.305 -1.7906  1.3001  2.2274
   55MOL    H1315241   3.364   4.610   1.451 -0.9069  0.5734 -0.0334
   55MOL    H1415242   3.314   4.818   1.566  2.0752 -1.0451  0.8557
   55MOL    H1515243   3.142   4.816   1.749 -0.4106 -0.5057  2.0334
   55MOL    C1615244   3.362   4.237   1.291  0.2067  0.3823  0.8555
   55MOL    C1715245   3.412   4.249   1.158  0.0195  0.2756 -0.0792
   55MOL    C1815246   3.450   4.127   1.090  0.7063 -0.3527 -0.1296
   55MOL    C1915247   3.445   4.002   1.162 -0.0940  0.1401  0.0889
   55MOL    C2015248   3.501   3.881   1.101  0.1898  0.2834 -0.4328
   55MOL    C2115249   3.568   3.866   0.983  0.5330 -0.4019 -0.0739
   55MOL    C2215250   3.392   3.996   1.296  0.1680  0.1475 -0.0864
   55MOL    C2315251   3.339   4.110   1.352 -0.6570 -0.4503  0.4351
   55MOL    H2415252   3.424   4.344   1.109  1.0659  0.9317  1.3894
   55MOL    H2515253   3.476   4.129   0.985  1.1749  0.3421 -0.0035
   55MOL    H2615254   3.488   3.793   1.163 -0.8438 -0.1569 -1.2593
   55MOL    H2715255   3.580   3.956   0.925 -2.3463  1.9526  2.7842
   55MOL    H2815256   3.393   3.905   1.355 -1.0263 -0.8350 -1.5320
   55MOL    H2915257   3.297   4.120   1.451  0.8746 -1.3756  1.1913
   55MOL    C3015258   3.633   3.738   0.943  0.7960  0.2946  0.2759
   55MOL    C3115259   3.633   3.699   0.805  0.7055 -0.5393 -0.5342
   55MOL    C3215260   3.689   3.576   0.768  0.5317  0.2971 -0.3062
   55MOL    C3315261   3.752   3.495   0.865 -0.4548 -0.5235  0.4427
   55MOL    C3415262   3.797   3.363   0.822 -0.4197  0.5381 -0.4026
   55MOL    C3515263   3.825   3.260   0.904 -0.2926  0.0558 -0.1280
   55MOL    C3615264   3.758   3.535   1.003 -0.8682  0.5970 -0.5454
   55MOL    C3715265   3.683   3.651   1.042 -0.8586  0.2821  0.0630
   55MOL    H3815266   3.575   3.768   0.745 -0.7032 -1.6078 -0.4241
   55MOL    H3915267   3.687   3.540   0.666  1.5834 -2.3350  0.5457
   55MOL    H4015268   3.809   3.349   0.716  0.7919 -1.8988  0.0182
   55MOL    H4115269   3.811   3.282   1.009 -1.3475  0.0800 -0.2680
   55MOL    H4215270   3.789   3.470   1.084 -1.2758  1.6440  0.4711
   55MOL    H4315271   3.677   3.667   1.148 -0.2584 -0.2610  0.1888
   55MOL    C4415272   3.858   3.122   0.856 -0.1010 -0.0910 -0.3044
   55MOL    C4515273   3.912   3.043   0.959 -0.3083  0.4436  0.1425
   55MOL    C4615274   3.934   2.909   0.936 -0.1846 -0.0449 -0.2656
   55MOL    C4715275   3.905   2.848   0.811  0.5276  0.2720  0.3821
   55MOL    C4815276   3.911   2.702   0.784  0.0445 -0.1332 -0.1358
   55MOL    C4915277   3.833   2.638   0.699  0.3438  0.6158 -0.6380
   55MOL    C5015278   3.861   2.939   0.705 -0.3927  0.9836  0.1477
   55MOL    C5115279   3.839   3.074   0.727 -0.2711  0.1581  0.4396
   55MOL    H5215280   3.918   3.079   1.061  1.1959 -1.0327  0.5930
   55MOL    H5315281   3.959   2.842   1.017 -0.7260 -1.4114 -1.2254
   55MOL    H5415282   3.988   2.644   0.833  1.1512  2.0699  0.8050
   55MOL    H5515283   3.752   2.691   0.651  0.8977  0.1187 -2.1528
   55MOL    H5615284   3.829   2.903   0.608 -1.4690  1.9581  0.1355
   55MOL    H5715285   3.784   3.138   0.661 -1.0545 -1.1241 -0.1702
   55MOL    C5815286   3.822   2.487   0.677 -0.0914  0.3394  0.8292
   55MOL    C5915287   3.882   2.406   0.775 -0.5645 -0.3113 -0.3217
   55MOL    C6015288   3.868   2.266   0.771  0.2060 -0.3891  0.3029
   55MOL    C6115289   3.800   2.206   0.661  0.2616 -0.1403 -0.0632
   55MOL    C6215290   3.786   2.053   0.666  0.0171 -0.7905 -0.3685
   55MOL    C6315291   3.691   1.989   0.597 -0.5278  0.5495 -0.4232
   55MOL    C6415292   3.744   2.287   0.560  0.4583  0.4310  0.2706
   55MOL    C6515293   3.749   2.424   0.569  0.4050  0.1166  0.5703
   55MOL    H6615294   3.937   2.448   0.858 -1.5490  2.2025 -0.8885
   55MOL    H6715295   3.905   2.193   0.841 -0.8437 -2.7762 -1.5621
   55MOL    H6815296   3.863   2.005   0.725 -1.5901 -0.8905  1.7058
   55MOL    H6915297   3.631   2.048   0.529 -0.0681 -0.4045 -1.6905
   55MOL    H7015298   3.697   2.237   0.477 -0.7024  1.4094  0.3274
   55MOL    H7115299   3.706   2.485   0.491  0.1661 -0.2812  0.3875
   55MOL    C7215300   3.667   1.847   0.596 -0.3925  0.1053 -0.1588
   55MOL    C7315301   3.558   1.805   0.517 -0.0679  0.1008  0.1356
   55MOL    C7415302   3.505   1.673   0.533 -0.8189 -0.1516 -0.2153
   55MOL    C7515303   3.574   1.584   0.628  0.6713  0.6623 -0.5712
   55MOL    C7615304   3.514   1.458   0.667  0.0283  0.5841 -0.1437
   55MOL    C7715305   3.558   1.376   0.771  0.4202 -0.2670  0.2418
   55MOL    C7815306   3.700   1.622   0.691  0.7385  0.0230  0.4636
   55MOL    C7915307   3.741   1.757   0.676 -0.3110  0.1874 -0.0720
   55MOL    H8015308   3.518   1.880   0.450  2.7077  3.3875  2.0003
   55MOL    H8115309   3.423   1.636   0.473  0.9038 -1.3312 -1.8846
   55MOL    H8215310   3.429   1.423   0.610 -0.1322  1.0001 -0.1596
   55MOL    H8315311   3.633   1.411   0.840 -1.1783  0.0039  1.8729
   55MOL    H8415312   3.758   1.555   0.753 -0.1254 -0.6247  0.5840
   55MOL    H8515313   3.829   1.787   0.731 -0.6728  0.4231  0.3870
   55MOL    C8615314   3.507   1.249   0.811 -0.4742  0.2949  0.0020
   55MOL    C8715315   3.422   1.175   0.727 -0.1527 -0.6091  0.0613
   55MOL    C8815316   3.366   1.054   0.772  0.0262  0.9941 -0.6283
   55MOL    C8915317   3.382   1.014   0.909  0.1530  0.2857  0.6443
   55MOL    C9015318   3.305   0.898   0.959  0.2077 -0.7337  0.4137
   55MOL    C9115319   3.277   0.870   1.086  0.4472  0.6317 -0.5978
   55MOL    C9215320   3.468   1.092   0.992 -0.1022  0.9261  0.3891
   55MOL    C9315321   3.534   1.211   0.946 -0.4395 -0.0151  0.0155
   55MOL    H9415322   3.389   1.206   0.628 -0.8015  1.2991  0.8518
   55MOL    H9515323   3.300   0.997   0.709 -0.1917  1.2661 -0.6439
   55MOL    H9615324   3.270   0.826   0.886 -0.5284 -1.5474  1.5467
   55MOL    H9715325   3.311   0.935   1.165 -0.1818 -0.9319  0.9841
   55MOL    H9815326   3.475   1.063   1.096 -2.1755  0.6443  0.4637
   55MOL    H9915327   3.599   1.261   1.016  0.0037 -2.5473  1.4539
   55MOL   C10015328   3.210   0.748   1.139 -0.2498  0.8395  0.8981
   55MOL   C10115329   3.213   0.717   1.274  0.3763 -0.1246 -0.1920
   55MOL   C10215330   3.161   0.594   1.326  0.1612  0.1379 -0.4253
   55MOL   C10315331   3.103   0.497   1.244  0.1889 -0.8792  0.2085
   55MOL   C10415332   3.066   0.368   1.298  0.5794  1.2004  0.0554
   55MOL   C10515333   3.030   0.261   1.227  0.4786 -0.8331  0.0149
   55MOL   C10615334   3.097   0.530   1.103  0.7522 -0.1592 -0.0238
   55MOL   C10715335   3.144   0.655   1.056 -0.0525  0.2732  0.3283
   55MOL   H10815336   3.276   0.779   1.337  1.3932  0.2644 -1.5678
   55MOL   H10915337   3.183   0.586   1.431 -0.4753  0.8552 -0.2355
   55MOL   H11015338   3.071   0.360   1.406  0.3765 -4.2693 -0.1915
   55MOL   H11115339   3.017   0.271   1.121 -2.7729 -0.6589  0.3635
   55MOL   H11215340   3.043   0.470   1.031  1.4363  0.4296 -1.0431
   55MOL   H11315341   3.130   0.691   0.955  1.9282  3.5951  1.1622
   55MOL   C11415342   3.013   0.128   1.279  0.4823 -0.3546  0.5977
   55MOL   C11515343   3.043   0.021   1.197 -0.3966 -0.0601  1.0427
   55MOL   C11615344   3.042   8.032   1.239 -0.3549  0.1309  0.2432
   55MOL   C11715345   3.018   8.007   1.379 -0.3856 -0.3621  0.2361
   55MOL   C11815346   3.052   7.880   1.432 -0.1059  1.2830 -0.2857
   55MOL   C11915347   3.134   7.790   1.370 -0.4834  0.3497 -0.1502
   55MOL   C12015348   2.980   8.117   1.462 -0.2317 -0.9023  0.3745
   55MOL   C12115349   2.969   0.102   1.411  0.3262 -0.0693  0.1006
   55MOL   H12215350   3.069   0.046   1.095  0.7031 -1.2932  1.0204
   55MOL   H12315351   3.054   7.957   1.163  0.8177  1.2336 -0.6580
   55MOL   H12415352   3.005   7.858   1.527  1.2847 -0.3035  0.0600
   55MOL   H12515353   3.177   7.800   1.272 -1.2074  0.7136 -0.4436
   55MOL   H12615354   2.950   8.099   1.564 -1.2602  0.9848  0.4068
   55MOL   H12715355   2.934   0.182   1.474 -0.1513 -0.5128  0.3995
   55MOL   C12815356   3.188   7.673   1.440 -0.2209  0.2652 -0.1068
   55MOL   C12915357   3.221   7.557   1.364  0.4668 -0.2535 -0.0048
   55MOL   C13015358   3.289   7.451   1.428  0.0468 -0.1533 -0.4429
   55MOL   C13115359   3.319   7.464   1.565 -0.8767  0.8918  0.4771
   55MOL   C13215360   3.416   7.369   1.617 -0.5750 -0.3357  0.4215
   55MOL   C13315361   3.525   7.329   1.552 -0.4478 -0.5425  0.1635
   55MOL   C13415362   3.256   7.566   1.639 -0.3750 -0.7234 -0.6198
   55MOL   C13515363   3.197   7.674   1.581 -0.1396 -0.2313  0.1036
   55MOL   H13615364   3.205   7.555   1.257  0.6357 -0.8712 -0.0202
   55MOL   H13715365   3.320   7.356   1.387  0.6438 -0.8320  1.5041
   55MOL   H13815366   3.396   7.327   1.714 -0.0630  0.7857  1.0319
   55MOL   H13915367   3.541   7.370   1.453 -0.1722  0.9881  0.8346
   55MOL   H14015368   3.256   7.571   1.747 -0.2466  0.0376 -0.6500
   55MOL   H14115369   3.169   7.760   1.641 -1.2933 -1.0107  0.6887
   55MOL   C14215370   3.631   7.242   1.589  0.0466  0.1388  0.7384
   55MOL   C14315371   3.622   7.164   1.708 -0.1497 -0.6152  0.3036
   55MOL   C14415372   3.720   7.078   1.749 -0.5522 -0.1466 -0.2316
   55MOL   C14515373   3.842   7.068   1.681 -0.4683 -0.8009 -0.1582
   55MOL   C14615374   3.942   6.975   1.738 -0.5213 -0.0253  0.2452
   55MOL   C14715375   4.028   6.899   1.665  0.4662  0.4269 -0.1976
   55MOL   C14815376   3.853   7.145   1.559  0.5686  0.4080  0.4600
   55MOL   C14915377   3.750   7.238   1.511  0.1560 -0.4580  0.4474
   55MOL   H15015378   3.531   7.176   1.765 -0.6077 -0.1681 -0.5103
   55MOL   H15115379   3.704   7.027   1.843 -1.1278  2.0522  0.8821
   55MOL   H15215380   3.950   6.971   1.846  1.7701  2.7651  0.2144
   55MOL   H15315381   4.030   6.907   1.557  3.1410  1.9599 -0.0779
   55MOL   H15415382   3.943   7.139   1.499  0.7021 -5.5265  0.9593
   55MOL   H15515383   3.774   7.299   1.425  1.7163 -1.0179  0.4660
   55MOL   C15615384   4.118   6.802   1.720  0.1792  0.7521  0.1556
   55MOL   C15715385   4.149   6.785   1.858 -0.1335 -0.1627  0.2347
   55MOL   C15815386   4.248   6.698   1.905  0.0838 -0.0674 -0.2842
   55MOL   C15915387   4.323   6.619   1.813  0.3930  0.2464  0.1498
   55MOL   C16015388   4.435   6.539   1.851  0.7707 -0.5713 -0.1563
   55MOL   C16115389   4.546   6.509   1.783  0.7284 -0.8856 -0.2538
   55MOL   C16215390   4.282   6.619   1.679  0.2212 -0.0172 -0.0834
   55MOL   C16315391   4.180   6.710   1.633 -0.0520 -0.0076  0.1705
   55MOL   H16415392   4.107   6.847   1.937 -3.3241  0.4965 -1.8815
   55MOL   H16515393   4.278   6.696   2.009 -1.3657  1.3444  0.1937
   55MOL   H16615394   4.422   6.501   1.951  2.4228  2.0338  1.1125
   55MOL   H16715395   4.557   6.563   1.690 -2.2666  0.8886  0.3474
   55MOL   H16815396   4.324   6.565   1.596 -0.2687  1.0922 -1.0685
   55MOL   H16915397   4.151   6.701   1.529  1.3697 -0.2539 -0.2120
   55MOL   C17015398   4.657   6.427   1.828 -0.0804  0.1210 -0.3434
   55MOL   C17115399   4.654   6.376   1.958  0.8142 -0.9268 -0.3860
   55MOL   C17215400   4.762   6.296   2.004 -0.3144  0.3069  0.0071
   55MOL   C17315401   4.877   6.274   1.927 -0.1006 -0.1508 -0.2386
   55MOL   C17415402   4.986   6.205   1.987  0.0082  0.3522 -0.5072
   55MOL   C17515403   5.113   6.203   1.940 -0.0807  0.2211 -0.2203
   55MOL   C17615404   4.883   6.330   1.797 -0.5647 -0.3683 -0.2251
   55MOL   C17715405   4.772   6.411   1.750 -0.0525 -0.4622  0.1625
   55MOL   H17815406   4.566   6.380   2.020  1.3560  2.7481  0.2581
   55MOL   H17915407   4.747   6.253   2.102 -2.0109  1.1545  0.1284
   55MOL   H18015408   4.970   6.154   2.081 -1.6687  0.9332 -0.4723
   55MOL   H18115409   5.131   6.261   1.850  0.6457 -0.4904 -0.5411
   55MOL   H18215410   4.971   6.310   1.738 -2.7485 -1.3309 -3.3239
   55MOL   H18315411   4.783   6.469   1.660 -0.2531  1.7793  1.5501
   55MOL   C18415412   5.215   6.113   1.994  0.6595  0.0428  0.6787
   55MOL   C18515413   5.187   6.000   2.072  0.1192  0.7765  0.4373
   55MOL   C18615414   5.293   5.914   2.117  0.3417 -0.1283  0.1173
   55MOL   C18715415   5.429   5.946   2.088  0.2424 -0.0187  0.8283
   55MOL   C18815416   5.545   5.874   2.146  0.0325 -0.4170  1.2406
   55MOL   C18915417   5.547   5.794   2.251 -0.3932 -0.4582  0.3886
   55MOL   C19015418   5.453   6.059   2.004 -0.1264 -0.8157  0.8997
   55MOL   C19115419   5.347   6.143   1.964 -0.2426  0.6087  0.1502
   55MOL   H19215420   5.091   5.965   2.107  1.5900 -1.8580  2.0053
   55MOL   H19315421   5.271   5.821   2.168  0.2860  0.0837  0.4783
   55MOL   H19415422   5.636   5.895   2.092 -1.2684  2.1877 -0.0263
   55MOL   H19515423   5.455   5.779   2.306  0.8739  1.4620  3.1388
   55MOL   H19615424   5.550   6.095   1.974  0.3832 -1.4639  1.7481
   55MOL   H19715425   5.371   6.222   1.894 -0.8698  0.1988 -0.5454
   55MOL   C19815426   5.674   5.729   2.311 -0.7422 -0.2370  0.0933
   55MOL   C19915427   5.779   5.708   2.214 -0.0007  0.1809  0.3106
   55MOL   C20015428   5.900   5.653   2.268  0.2240 -0.6502 -0.8340
   55MOL   C20115429   5.907   5.602   2.404 -0.5926 -0.3664  0.0871
   55MOL   C20215430   6.022   5.520   2.438  0.0763 -0.6378 -0.5610
   55MOL   C20315431   6.042   5.463   2.558  0.3408  0.4850  0.0334
   55MOL   C20415432   5.807   5.633   2.491 -0.3797 -0.3603  0.8249
   55MOL   C20515433   5.684   5.685   2.443  0.0596  0.4191 -0.2235
   55MOL   H20615434   5.779   5.745   2.112 -1.9508  0.7011  0.4814
   55MOL   H20715435   5.980   5.630   2.201 -1.1345  2.2834 -3.5836
   55MOL   H20815436   6.100   5.497   2.367 -0.4968  2.0218 -2.1085
   55MOL   H20915437   5.974   5.480   2.640  0.2323 -1.8951  0.4695
   55MOL   H21015438   5.803   5.609   2.596  0.1284 -1.7656  0.5287
   55MOL   H21115439   5.610   5.704   2.520  0.8270 -0.5978  0.7866
   55MOL   C21215440   6.154   5.370   2.602  0.3810 -0.2253  0.2539
   55MOL   C21315441   6.171   5.334   2.740  0.1498  0.3296  0.0423
   55MOL   C21415442   6.277   5.246   2.772  0.0972 -0.0549  0.4596
   55MOL   C21515443   6.371   5.191   2.672 -0.3660  0.0339 -0.6627
   55MOL   C21615444   6.483   5.105   2.713 -0.7044 -0.0160  0.4345
   55MOL   C21715445   6.532   5.083   2.838 -0.5599 -0.0389  0.5496
   55MOL   C21815446   6.349   5.230   2.540 -0.2283  0.1001  0.1625
   55MOL   C21915447   6.240   5.308   2.504  0.4082  0.1821  0.1296
   55MOL   H22015448   6.106   5.373   2.817  0.1674  1.0822 -0.3154
   55MOL   H22115449   6.291   5.227   2.878  1.7048  0.3399  0.3376
   55MOL   H22215450   6.533   5.057   2.630 -1.8254  0.7611 -0.7043
   55MOL   H22315451   6.476   5.121   2.922 -0.0592 -0.2895  0.9954
   55MOL   H22415452   6.415   5.191   2.464 -1.7023 -0.9785 -0.5852
   55MOL   H22515453   6.243   5.338   2.401  3.3187  1.7208  0.6085
   55MOL   C22615454   6.653   5.005   2.865 -0.1953 -0.2322  0.3345
   55MOL   C22715455   6.681   4.970   2.999 -0.4152  0.5083  0.6920
   55MOL   C22815456   6.791   4.889   3.035  0.1022  0.2741  0.2441
   55MOL   C22915457   6.883   4.845   2.937 -0.0632 -1.1544  0.3559
   55MOL   C23015458   7.014   4.784   2.978 -0.5842  0.1031  0.2642
   55MOL   C23115459   7.121   4.776   2.896  0.3106 -0.4017 -0.2159
   55MOL   C23215460   6.853   4.873   2.797  0.0359 -0.0778 -0.2079
   55MOL   C23315461   6.742   4.954   2.767 -0.3497  0.2103  0.6539
   55MOL   H23415462   6.619   5.019   3.072 -1.4262 -0.5309  0.5466
   55MOL   H23515463   6.807   4.884   3.141 -0.7653  0.5223  0.3925
   55MOL   H23615464   7.021   4.751   3.081  0.7866  0.0438  0.1590
   55MOL   H23715465   7.112   4.812   2.795 -0.9198  2.5053  0.8946
   55MOL   H23815466   6.921   4.845   2.719  0.8419  0.6306  0.2239
   55MOL   H23915467   6.732   4.980   2.663  1.6257  0.6570  0.5515
   55MOL   C24015468   7.246   4.710   2.937 -0.8459  0.1892  0.3824
   55MOL   C24115469   7.269   4.663   3.071 -0.7032  0.0917  0.4000
   55MOL   C24215470   7.390   4.597   3.104 -0.0431 -0.4992 -0.1529
   55MOL   C24315471   7.485   4.567   3.009  0.0110 -0.5263  0.2700
   55MOL   C24415472   7.613   4.505   3.054  0.4904  0.2608 -0.3814
   55MOL   C24515473   7.714   4.471   2.976 -0.3072  0.9346  0.9895
   55MOL   C24615474   7.453   4.602   2.875 -0.4385  0.0178  0.4035
   55MOL   C24715475   7.339   4.670   2.835 -0.2068  0.0033  0.6020
   55MOL   H24815476   7.205   4.681   3.156 -1.0706  1.0018 -0.0652
   55MOL   H24915477   7.400   4.563   3.206 -0.6322 -0.3612 -0.0446
   55MOL   H25015478   7.618   4.486   3.160 -4.0528 -0.0075 -0.1143
   55MOL   H25115479   7.695   4.488   2.871  0.4018  1.0107  0.8667
   55MOL   H25215480   7.526   4.581   2.799 -0.3200  0.3269  0.4318
   55MOL   H25315481   7.323   4.690   2.730  0.3502 -0.2491  0.4671
   55MOL   C25415482   7.841   4.405   3.012  0.1264 -0.0561  0.2205
   55MOL   C25515483   7.872   4.373   3.147 -0.6189  0.2136  0.8372
   55MOL   C25615484   7.991   4.305   3.172  0.4093  0.2623 -0.4532
   55MOL   C25715485   8.074   4.259   3.071 -0.3427  0.4872 -0.0394
   55MOL   C25815486   0.058   4.188   3.081 -0.0981  0.3794 -0.4687
   55MOL   C25915487   0.093   4.094   3.170 -0.8398 -0.4843  0.4022
   55MOL   C26015488   8.045   4.288   2.935 -0.1748 -0.5036  0.1205
   55MOL   C26115489   7.930   4.370   2.914  0.8271  0.7104  0.4143
   55MOL   H26215490   7.800   4.393   3.226 -1.5512 -0.5851  0.2085
   55MOL   H26315491   8.018   4.275   3.272  1.1560 -0.5087 -0.8826
   55MOL   H26415492   0.127   4.213   3.002  0.9391 -1.0872 -0.0595
   55MOL   H26515493   0.193   4.057   3.155 -0.9324  0.2681 -2.3277
   55MOL   H26615494   8.114   4.260   2.857 -0.5016 -1.9780  0.3332
   55MOL   H26715495   7.906   4.403   2.814 -3.5955  0.5760  1.3238
   55MOL   C26815496   0.023   4.026   3.286  0.6961  0.3629  0.2236
   55MOL   C26915497   8.032   3.985   3.290 -0.4953  0.1888 -0.5598
   55MOL   C27015498   7.981   3.917   3.404 -0.2726 -0.0392 -0.2356
   55MOL   C27115499   8.065   3.877   3.509  0.7666 -0.2338 -0.0116
   55MOL   C27215500   8.019   3.791   3.618 -0.4039 -0.2139  0.2351
   55MOL   C27315501   7.912   3.711   3.619 -0.4282  0.1696 -0.7508
   55MOL   C27415502   0.048   3.917   3.504  0.5836  0.4969  0.6790
   55MOL   C27515503   0.096   3.990   3.398 -0.8340  0.3861 -0.0951
   55MOL   H27615504   7.959   4.000   3.212 -2.4587  2.1304  1.5535
   55MOL   H27715505   7.877   3.890   3.408 -0.1606 -0.2768  4.2598
   55MOL   H27815506   8.080   3.806   3.706  0.3137  1.6271 -0.5356
   55MOL   H27915507   7.849   3.697   3.533 -0.0919  3.2092 -1.5428
   55MOL   H28015508   0.113   3.890   3.586 -0.9238 -0.4646  1.5750
   55MOL   H28115509   0.201   4.017   3.405 -0.8056  0.5190 -0.9966
   55MOL   H28215510   7.884   3.659   3.710  0.0392  0.7043 -0.2984
   56MOL     C115511   7.531   1.429   8.016 -0.7162 -0.2715 -0.1656
   56MOL     C215512   7.527   1.567   8.048 -1.0515  0.0910 -0.6941
   56MOL     C315513   7.645   1.637   8.084  0.2031  0.3670 -0.0874
   56MOL     C415514   7.769   1.578   8.094  0.2370 -0.7098  0.2271
   56MOL     C515515   7.886   1.646   0.008  0.1523 -0.2651 -0.0351
   56MOL     C615516   8.001   1.586   0.037 -0.6181 -0.1318  0.2349
   56MOL     C715517   7.774   1.440   8.052  0.0190 -0.0597 -0.0945
   56MOL     C815518   7.654   1.370   8.015 -0.2017 -0.2333  0.0286
   56MOL     H915519   7.433   1.620   8.053  0.4393  2.8944 -1.1947
   56MOL    H1015520   7.619   1.736   8.120  1.5741  0.1940  1.4420
   56MOL    H1115521   7.867   1.750   0.030 -0.3667 -0.8824  2.6322
   56MOL    H1215522   8.016   1.482   0.009  1.2716 -0.0240  0.7794
   56MOL    H1315523   7.868   1.387   8.050 -0.6308 -1.1967 -0.9236
   56MOL    H1415524   7.660   1.267   7.984  0.3636 -0.2356  0.1311
   56MOL    H1515525   7.446   1.373   7.981 -0.2088  0.0329 -1.9500
   56MOL    C1615526   8.119   1.642   0.088 -0.1326  0.0914 -0.4680
   56MOL    C1715527   0.094   1.575   0.101  0.2827 -0.9682 -0.0290
   56MOL    C1815528   0.210   1.625   0.155  0.4367  0.5502  0.4822
   56MOL    C1915529   0.202   1.751   0.219  0.4724 -0.2689  0.6398
   56MOL    C2015530   0.319   1.804   0.294  0.2355  0.5494  1.1806
   56MOL    C2115531   0.442   1.757   0.305 -0.1327  0.6308  0.2298
   56MOL    C2215532   0.080   1.823   0.219 -0.1649 -0.6856  0.1984
   56MOL    C2315533   8.121   1.773   0.139 -0.5313 -0.2004  0.0273
   56MOL    H2415534   0.107   1.475   0.064 -0.3644 -0.1611 -2.5348
   56MOL    H2515535   0.297   1.561   0.158 -0.4019 -0.6456 -0.4115
   56MOL    H2615536   0.278   1.893   0.340 -1.0693 -0.1877  1.4725
   56MOL    H2715537   0.463   1.669   0.245 -2.6215  0.4693 -0.4560
   56MOL    H2815538   0.083   1.924   0.257 -0.3920  0.2005 -2.0726
   56MOL    H2915539   8.035   1.838   0.139  1.8760  3.2062  2.8545
   56MOL    C3015540   0.551   1.811   0.388  0.1849  0.1489  0.5971
   56MOL    C3115541   0.675   1.742   0.389  0.2015  0.5299  0.1543
   56MOL    C3215542   0.796   1.796   0.435  0.1316  0.7793 -0.4279
   56MOL    C3315543   0.787   1.921   0.500  0.3520 -0.9678  0.0401
   56MOL    C3415544   0.900   1.983   0.570  0.5329 -0.7397 -0.1986
   56MOL    C3515545   1.028   1.960   0.548  0.2128 -0.6197 -0.0632
   56MOL    C3615546   0.662   1.993   0.505  0.9063 -0.3744  0.2783
   56MOL    C3715547   0.549   1.939   0.438 -0.2788  0.5398  0.5801
   56MOL    H3815548   0.666   1.642   0.348 -3.1394  1.4003 -1.3726
   56MOL    H3915549   0.890   1.744   0.423  1.0918  2.2938  0.3131
   56MOL    H4015550   0.863   2.059   0.636  1.4684  1.5974 -2.2998
   56MOL    H4115551   1.056   1.890   0.471 -0.2868 -2.1188  1.0942
   56MOL    H4215552   0.648   2.089   0.553  1.0764 -0.5328  0.6430
   56MOL    H4315553   0.459   1.998   0.425 -2.5029 -3.3215 -2.8221
   56MOL    C4415554   1.145   2.020   0.627  0.3157  0.2936 -0.5609
   56MOL    C4515555   1.130   2.111   0.736  0.3506  0.0500  0.2750
   56MOL    C4615556   1.241   2.171   0.796  0.4175 -0.7865 -0.4699
   56MOL    C4715557   1.367   2.126   0.761  0.2098 -0.3505  0.3238
   56MOL    C4815558   1.475   2.181   0.843  0.4857  0.6845  0.2419
   56MOL    C4915559   1.609   2.146   0.840  0.4476 -0.3565  0.0184
   56MOL    C5015560   1.390   2.037   0.651  0.7162  0.0743 -0.1425
   56MOL    C5115561   1.276   1.976   0.586 -0.1232 -0.7473  0.0134
   56MOL    H5215562   1.032   2.144   0.766 -0.1258 -0.7323 -0.3839
   56MOL    H5315563   1.221   2.219   0.891  0.8195 -1.6679  0.0681
   56MOL    H5415564   1.447   2.255   0.917 -0.2091  1.7132 -1.0216
   56MOL    H5515565   1.637   2.063   0.778 -1.2551  1.9316 -3.9673
   56MOL    H5615566   1.487   2.006   0.615  1.0128  1.4258 -0.5516
   56MOL    H5715567   1.292   1.896   0.515  0.7326 -0.5171 -0.0601
   56MOL    C5815568   1.720   2.201   0.916 -0.0246 -0.2804  0.4393
   56MOL    C5915569   1.825   2.117   0.951  0.1307  0.1729  0.1399
   56MOL    C6015570   1.938   2.164   1.023 -0.0243  0.0978 -0.3417
   56MOL    C6115571   1.937   2.288   1.082 -0.0436 -0.5430  0.6302
   56MOL    C6215572   2.058   2.328   1.162 -0.3076 -0.2192  0.2595
   56MOL    C6315573   2.078   2.457   1.194  0.2627  0.4026 -0.0021
   56MOL    C6415574   1.824   2.369   1.055  0.6497 -0.1179  0.3220
   56MOL    C6515575   1.720   2.329   0.967 -0.3591  0.8145  0.1103
   56MOL    H6615576   1.824   2.020   0.903  1.0346 -1.0317  2.4536
   56MOL    H6715577   2.022   2.101   1.047 -1.5866 -1.7919  0.3707
   56MOL    H6815578   2.128   2.251   1.191 -0.5559 -1.7222 -3.0072
   56MOL    H6915579   2.015   2.539   1.163 -1.0229 -0.5838 -0.0040
   56MOL    H7015580   1.826   2.473   1.085 -0.8287  0.3134 -1.0052
   56MOL    H7115581   1.635   2.393   0.947  0.3863  1.9450  0.5021
   56MOL    C7215582   2.189   2.504   1.279 -0.0087  0.5981  0.9184
   56MOL    C7315583   2.298   2.423   1.331 -0.3063 -0.1342 -0.1121
   56MOL    C7415584   2.401   2.481   1.410  0.0679 -0.5855 -1.3031
   56MOL    C7515585   2.395   2.617   1.442  0.0591  0.5381  0.4690
   56MOL    C7615586   2.489   2.693   1.528 -0.1649 -0.8087 -0.4038
   56MOL    C7715587   2.573   2.642   1.621 -0.0666 -0.0815  1.2003
   56MOL    C7815588   2.293   2.701   1.391  0.3260 -0.4780  0.6288
   56MOL    C7915589   2.193   2.645   1.304 -0.5267 -0.4570 -0.0082
   56MOL    H8015590   2.290   2.319   1.304 -1.8935  0.1401 -0.7539
   56MOL    H8115591   2.485   2.423   1.445 -0.1740 -0.3713 -0.3506
   56MOL    H8215592   2.475   2.799   1.508  3.0601 -0.5121 -1.3682
   56MOL    H8315593   2.574   2.534   1.630 -0.0111 -0.1890  0.0255
   56MOL    H8415594   2.279   2.803   1.424 -0.4723 -0.1157 -0.8151
   56MOL    H8515595   2.121   2.713   1.261 -0.4337 -0.2763  0.1250
   56MOL    C8615596   2.669   2.707   1.712  0.5837 -0.2968 -0.3346
   56MOL    C8715597   2.682   2.848   1.716 -0.0770  0.2608 -0.3561
   56MOL    C8815598   2.769   2.922   1.802  0.4230  0.6050 -0.7861
   56MOL    C8915599   2.851   2.843   1.888  0.7816 -0.0218  0.5423
   56MOL    C9015600   2.952   2.906   1.976 -0.2204 -0.1471  0.3418
   56MOL    C9115601   2.986   3.033   1.980  0.3142  0.1518  0.5176
   56MOL    C9215602   2.845   2.703   1.889  0.0593 -0.1168 -0.2601
   56MOL    C9315603   2.748   2.632   1.807  0.1172 -0.4998 -0.4120
   56MOL    H9415604   2.622   2.909   1.649 -2.0108 -2.4803 -1.1940
   56MOL    H9515605   2.764   3.029   1.813  2.8424  0.6074  0.5467
   56MOL    H9615606   2.999   2.842   2.049  0.2632 -0.4772 -0.2504
   56MOL    H9715607   2.932   3.100   1.916 -0.3549 -0.5555  0.3278
   56MOL    H9815608   2.908   2.647   1.957  0.3222  0.0917 -0.3314
   56MOL    H9915609   2.743   2.525   1.820 -1.8174 -0.2195  1.4570
   56MOL   C10015610   3.093   3.095   2.053 -0.2056 -0.4347  0.6894
   56MOL   C10115611   3.134   3.221   2.013  0.7068  0.0094 -0.2981
   56MOL   C10215612   3.234   3.286   2.080  1.1244 -0.8396  0.6119
   56MOL   C10315613   3.306   3.220   2.183 -0.7194  0.0892 -0.5134
   56MOL   C10415614   3.398   3.299   2.260 -0.4267 -0.2469 -0.3757
   56MOL   C10515615   3.492   3.261   2.347 -0.1189 -0.1068  0.1301
   56MOL   C10615616   3.276   3.087   2.219  0.7573  0.2271 -0.8749
   56MOL   C10715617   3.167   3.022   2.151 -0.2097  0.0202  0.8450
   56MOL   H10815618   3.078   3.273   1.937 -2.7034 -1.0866  1.3734
   56MOL   H10915619   3.254   3.390   2.055  0.6181 -0.8847 -0.0152
   56MOL   H11015620   3.388   3.405   2.241 -1.1229 -0.4056 -0.8773
   56MOL   H11115621   3.493   3.155   2.369  1.4229 -0.3397 -1.0060
   56MOL   H11215622   3.338   3.034   2.290 -0.1270  0.8832  0.3886
   56MOL   H11315623   3.141   2.923   2.188 -2.9267  0.2091 -0.3706
   56MOL   C11415624   3.584   3.348   2.420  0.0788 -0.5365  0.5932
   56MOL   C11515625   3.541   3.474   2.472  0.0136  0.4948 -0.0863
   56MOL   C11615626   3.628   3.550   2.550 -0.3916  0.0325 -0.1379
   56MOL   C11715627   3.758   3.516   2.573 -0.0750  0.0298  0.7303
   56MOL   C11815628   3.840   3.613   2.647 -0.3112  0.2177  0.1581
   56MOL   C11915629   3.815   3.742   2.674 -0.6511 -0.4148 -0.0095
   56MOL   C12015630   3.808   3.394   2.521  0.4289 -0.0487  0.0394
   56MOL   C12115631   3.717   3.309   2.445  0.3296  0.4082 -0.1215
   56MOL   H12215632   3.443   3.512   2.445  0.6835  0.2702 -3.0054
   56MOL   H12315633   3.586   3.645   2.579  2.7773  1.1676  0.9532
   56MOL   H12415634   3.924   3.563   2.694  0.6080  2.0300  0.4964
   56MOL   H12515635   3.732   3.785   2.620 -0.1713 -0.0504 -0.4512
   56MOL   H12615636   3.909   3.360   2.539 -0.3298 -1.8627  0.9586
   56MOL   H12715637   3.757   3.217   2.406  0.1650  0.5786 -0.6988
   56MOL   C12815638   3.890   3.834   2.770  0.7650  0.1111 -0.0961
   56MOL   C12915639   3.920   3.797   2.903  0.0799 -0.2361 -0.3238
   56MOL   C13015640   3.970   3.886   3.001  0.6301  0.4645  0.7615
   56MOL   C13115641   4.003   4.020   2.965 -0.6907  0.2050  0.2383
   56MOL   C13215642   4.031   4.124   3.064  0.6421 -0.2244  0.7542
   56MOL   C13315643   4.039   4.104   3.194 -0.4641 -0.2487 -0.0387
   56MOL   C13415644   3.981   4.052   2.833 -0.5832 -0.1460 -0.8557
   56MOL   C13515645   3.916   3.967   2.732 -0.2512 -0.5855  0.0314
   56MOL   H13615646   3.907   3.691   2.924 -1.2012  0.0143  0.2240
   56MOL   H13715647   3.983   3.848   3.101 -1.2289  0.4610  1.0054
   56MOL   H13815648   4.036   4.220   3.015 -0.5376 -0.2007  0.6629
   56MOL   H13915649   4.019   4.008   3.238 -0.7123  0.2771  1.0197
   56MOL   H14015650   4.008   4.153   2.806  3.0139 -0.8486 -0.1123
   56MOL   H14115651   3.896   3.997   2.631 -0.1715 -1.4991 -0.2614
   56MOL   C14215652   4.058   4.211   3.287 -0.6185  0.2631  0.2183
   56MOL   C14315653   4.099   4.342   3.249 -0.5188  0.3929 -0.5675
   56MOL   C14415654   4.087   4.447   3.339  0.5769 -0.6997  0.0285
   56MOL   C14515655   4.046   4.421   3.467 -0.2678 -1.1124 -0.0801
   56MOL   C14615656   4.013   4.540   3.553 -0.7255  0.5168  0.1080
   56MOL   C14715657   3.997   4.540   3.686  0.4103  0.2721  0.2847
   56MOL   C14815658   4.037   4.289   3.514  0.5014 -0.0354 -0.0516
   56MOL   C14915659   4.035   4.184   3.426  0.0988 -0.0331  0.0756
   56MOL   H15015660   4.118   4.364   3.144  1.5683 -2.0666 -0.7478
   56MOL   H15115661   4.087   4.550   3.306  0.2105 -1.0272 -1.0171
   56MOL   H15215662   3.989   4.629   3.498 -1.0750 -0.0974 -0.7354
   56MOL   H15315663   4.023   4.448   3.736 -1.7057  0.6015  2.0492
   56MOL   H15415664   3.997   4.276   3.614  1.8553  0.6971  0.6039
   56MOL   H15515665   4.005   4.088   3.465 -0.4571  0.1974  0.2238
   56MOL   C15615666   3.940   4.661   3.750 -0.2067 -0.2141  0.3485
   56MOL   C15715667   3.964   4.682   3.889  0.1077  0.2184  0.0370
   56MOL   C15815668   3.892   4.785   3.951 -0.1267 -0.0567  0.2302
   56MOL   C15915669   3.803   4.862   3.883  0.5433 -0.2032 -0.3005
   56MOL   C16015670   3.705   4.952   3.953 -0.3833 -0.8627 -0.3340
   56MOL   C16115671   3.721   5.007   4.075  0.2484 -0.3720  0.5080
   56MOL   C16215672   3.794   4.853   3.745  0.3954  0.4689 -0.2573
   56MOL   C16315673   3.862   4.753   3.674 -0.3238 -0.6770 -0.3626
   56MOL   H16415674   4.027   4.621   3.952 -0.4095  0.5019  0.8319
   56MOL   H16515675   3.894   4.803   4.058 -0.1942  2.2725 -0.1439
   56MOL   H16615676   3.615   4.972   3.895  0.4095 -1.8875 -1.9495
   56MOL   H16715677   3.807   4.995   4.139  0.1538  0.9314  0.8976
   56MOL   H16815678   3.729   4.924   3.695 -1.5979 -1.3804 -0.3314
   56MOL   H16915679   3.851   4.746   3.567  0.2904  2.6238 -0.7066
   56MOL   C17015680   3.614   5.091   4.134 -0.9195 -0.0538  0.6566
   56MOL   C17115681   3.604   5.112   4.273  0.1149  0.0246 -0.0045
   56MOL   C17215682   3.493   5.176   4.331  0.4318  0.3486  0.3787
   56MOL   C17315683   3.398   5.244   4.249  0.1530 -0.3056  0.2291
   56MOL   C17415684   3.283   5.310   4.315 -0.7945 -0.1354 -0.6413
   56MOL   C17515685   3.199   5.387   4.244  1.1360 -0.5753 -0.5151
   56MOL   C17615686   3.412   5.232   4.112  0.2068  0.3553  0.2958
   56MOL   C17715687   3.513   5.154   4.054 -0.3159  0.3398  1.3686
   56MOL   H17815688   3.677   5.066   4.338  0.5881  1.5467  0.5819
   56MOL   H17915689   3.472   5.192   4.435 -2.1231 -0.6934  0.0589
   56MOL   H18015690   3.267   5.296   4.420 -0.0520  0.2855 -0.4646
   56MOL   H18115691   3.215   5.410   4.140  3.1080  1.5885  0.2254
   56MOL   H18215692   3.333   5.269   4.048 -1.2520 -3.3281 -0.1423
   56MOL   H18315693   3.507   5.142   3.947  1.2279  1.8214  1.0904
   56MOL   C18415694   3.073   5.444   4.293  0.4940 -0.7504 -0.1002
   56MOL   C18515695   3.000   5.402   4.406  0.2508 -0.5863 -0.1373
   56MOL   C18615696   2.884   5.470   4.445  0.1789 -0.5161 -0.1915
   56MOL   C18715697   2.828   5.571   4.369 -0.1461  0.5972 -0.3186
   56MOL   C18815698   2.696   5.615   4.414  0.1067 -0.2875 -0.1471
   56MOL   C18915699   2.621   5.714   4.357 -0.0214 -0.3897  0.2012
   56MOL   C19015700   2.900   5.619   4.263  0.2022 -0.0072  0.0448
   56MOL   C19115701   3.019   5.557   4.222 -0.3159  0.3985  0.1343
   56MOL   H19215702   3.030   5.312   4.458 -0.2494 -1.1159 -0.7508
   56MOL   H19315703   2.836   5.429   4.532  1.1480  1.3278  1.2450
   56MOL   H19415704   2.653   5.556   4.493 -1.6043  1.7775  0.5288
   56MOL   H19515705   2.665   5.765   4.273  0.8301 -2.0308 -0.3887
   56MOL   H19615706   2.861   5.705   4.212 -1.8318 -1.5858 -1.1328
   56MOL   H19715707   3.072   5.605   4.141  2.3951  0.4181  1.8533
   56MOL   C19815708   2.483   5.755   4.404 -0.4336 -0.4756 -0.1760
   56MOL   C19915709   2.414   5.683   4.504  1.2621 -0.1216 -0.0269
   56MOL   C20015710   2.284   5.734   4.537 -0.0711 -0.3934 -0.5529
   56MOL   C20115711   2.227   5.847   4.473  0.4604 -0.2580  0.0113
   56MOL   C20215712   2.087   5.887   4.499  0.1407 -0.2249  0.8691
   56MOL   C20315713   2.043   6.016   4.487 -0.5595 -0.1330  0.2267
   56MOL   C20415714   2.305   5.921   4.383 -0.1978  0.5109 -0.2021
   56MOL   C20515715   2.433   5.869   4.347 -0.3280  0.3898 -0.5849
   56MOL   H20615716   2.429   5.591   4.558 -1.1402 -0.9541 -0.6966
   56MOL   H20715717   2.234   5.681   4.616 -0.1043  0.4676  0.0111
   56MOL   H20815718   2.017   5.810   4.527 -0.4877 -0.2686 -0.7904
   56MOL   H20915719   2.110   6.097   4.463  0.2891 -0.7712  0.3854
   56MOL   H21015720   2.272   6.016   4.344  1.7279  1.6945  0.9907
   56MOL   H21115721   2.491   5.928   4.277  0.5434  0.3504  0.1101
   56MOL   C21215722   1.901   6.055   4.492 -0.6008  0.2800  0.5205
   56MOL   C21315723   1.798   5.972   4.541 -0.0630 -0.0354  0.0593
   56MOL   C21415724   1.668   6.019   4.559  0.1652  0.0130  0.2666
   56MOL   C21515725   1.631   6.144   4.512 -0.0226  0.5680  0.2046
   56MOL   C21615726   1.500   6.195   4.548 -0.3658 -0.4881  0.0869
   56MOL   C21715727   1.462   6.321   4.547  0.1322 -0.2690  0.6747
   56MOL   C21815728   1.728   6.225   4.445 -0.1281  0.7485  0.7478
   56MOL   C21915729   1.859   6.176   4.435  0.2284 -1.0305 -0.5176
   56MOL   H22015730   1.822   5.875   4.583  0.2286 -0.5024 -1.1300
   56MOL   H22115731   1.586   5.959   4.595  0.8922 -1.3125 -0.2377
   56MOL   H22215732   1.428   6.116   4.564  2.1879 -2.8766  0.2395
   56MOL   H22315733   1.538   6.397   4.538  0.2373 -0.4939 -0.3460
   56MOL   H22415734   1.721   6.325   4.404  2.0386  0.6976  0.2023
   56MOL   H22515735   1.925   6.227   4.367  2.4090 -3.4680 -0.3014
   56MOL   C22615736   1.325   6.363   4.566 -0.3794 -1.1754 -0.3291
   56MOL   C22715737   1.240   6.297   4.658 -0.3585 -0.0896  0.5670
   56MOL   C22815738   1.111   6.342   4.665 -0.1911 -0.0952 -0.0541
   56MOL   C22915739   1.063   6.458   4.597 -0.7418  0.5127 -0.2332
   56MOL   C23015740   0.929   6.516   4.605  0.8054 -0.5928 -0.1611
   56MOL   C23115741   0.835   6.490   4.700  0.1876 -0.1689  0.2815
   56MOL   C23215742   1.146   6.524   4.512 -0.1656  0.5249 -0.3515
   56MOL   C23315743   1.273   6.470   4.491 -0.2932 -1.4158  1.1726
   56MOL   H23415744   1.268   6.215   4.723 -2.5421  0.2426  1.9545
   56MOL   H23515745   1.040   6.288   4.726  0.0205  1.5531  1.6890
   56MOL   H23615746   0.910   6.591   4.530 -0.2420  0.9376  1.5800
   56MOL   H23715747   0.844   6.418   4.780  0.7235  0.3106  0.6590
   56MOL   H23815748   1.113   6.616   4.467  0.4668  0.5330 -0.8096
   56MOL   H23915749   1.333   6.512   4.411  0.0848 -0.8642  1.7400
   56MOL   C24015750   0.702   6.556   4.712 -0.7608 -0.0039  0.0886
   56MOL   C24115751   0.671   6.677   4.646  0.0530 -0.1332 -0.1778
   56MOL   C24215752   0.545   6.737   4.666  0.2624 -0.5130 -0.1900
   56MOL   C24315753   0.454   6.683   4.756 -0.0879  0.4896 -0.0571
   56MOL   C24415754   0.321   6.721   4.784 -0.1291 -0.5231  0.6668
   56MOL   C24515755   0.253   6.813   4.709  0.2968  0.2725 -0.5389
   56MOL   C24615756   0.485   6.571   4.831 -0.9254  0.5827  0.0292
   56MOL   C24715757   0.610   6.503   4.804 -1.0325  0.4640 -0.1611
   56MOL   H24815758   0.731   6.719   4.566 -0.7645  1.7904  0.1738
   56MOL   H24915759   0.520   6.822   4.605  0.6825  0.1626  0.5740
   56MOL   H25015760   0.275   6.663   4.863  2.8199 -0.9692  2.1536
   56MOL   H25115761   0.304   6.869   4.633  0.2697  2.3225  0.9157
   56MOL   H25215762   0.412   6.531   4.899 -1.0873  1.0986  0.1576
   56MOL   H25315763   0.635   6.408   4.848  0.4065  0.6349 -0.5664
   56MOL   C25415764   0.112   6.850   4.744  0.2770  0.2387  0.0574
   56MOL   C25515765   0.037   6.900   4.643  0.3212 -0.1772 -0.5652
   56MOL   C25615766   8.047   6.930   4.663 -0.5900  0.3377  0.0144
   56MOL   C25715767   8.000   6.936   4.795  0.6343  0.5457  0.0625
   56MOL   C25815768   7.859   6.971   4.823  0.4502 -0.0342 -0.1425
   56MOL   C25915769   7.777   7.053   4.758  0.5359  0.0491  0.5243
   56MOL   C26015770   8.077   6.909   4.907 -0.9054 -0.0242 -0.2543
   56MOL   C26115771   0.056   6.849   4.874 -0.9007 -0.6659  0.2212
   56MOL   H26215772   0.078   6.892   4.543  0.9749  1.2417 -0.4233
   56MOL   H26315773   7.976   6.945   4.583 -2.7115 -2.2711  1.3445
   56MOL   H26415774   7.816   6.919   4.908  1.2858  2.1688  1.6821
   56MOL   H26515775   7.677   7.071   4.793  0.6347 -0.3746  1.0265
   56MOL   H26615776   8.049   6.907   5.011 -1.0265 -0.9494 -0.2988
   56MOL   H26715777   0.124   6.816   4.951 -0.8536  1.0695  0.9603
   56MOL   C26815778   7.810   7.127   4.633  0.4500  0.8925 -0.3251
   56MOL   C26915779   7.923   7.216   4.628  0.5670  0.3806 -0.3755
   56MOL   C27015780   7.959   7.278   4.514 -0.6206  0.2751  0.1682
   56MOL   C27115781   7.880   7.261   4.393  0.2727  0.6559  0.4358
   56MOL   C27215782   7.926   7.305   4.260  0.1913 -0.1687  0.5551
   56MOL   C27315783   8.052   7.344   4.234  0.0430  0.5856 -0.3252
   56MOL   C27415784   7.762   7.177   4.401 -0.0813  0.0955  0.0350
   56MOL   C27515785   7.725   7.119   4.523  0.3736 -0.1048 -0.7013
   56MOL   H27615786   7.981   7.226   4.718  1.2404 -0.8011 -0.6626
   56MOL   H27715787   8.044   7.346   4.518 -0.2988 -0.0675 -0.8478
   56MOL   H27815788   7.859   7.325   4.178  1.2263 -1.6034 -0.6612
   56MOL   H27915789   8.133   7.344   4.306 -0.2359 -1.3978  0.0182
   56MOL   H28015790   7.695   7.177   4.316 -0.2433 -3.5419  0.0926
   56MOL   H28115791   7.635   7.059   4.528  1.3646 -1.6337 -0.9568
   56MOL   H28215792   8.073   7.366   4.131 -1.7786  0.2925 -0.7782
   57MOL     C115793   1.414   3.342   7.986 -0.4043 -0.0278  0.5818
   57MOL     C215794   1.377   3.271   8.099  0.9604  0.6956 -0.3100
   57MOL     C315795   1.287   3.167   8.082 -0.7247 -0.1071 -0.1614
   57MOL     C415796   1.213   3.152   7.961 -0.3075 -0.8681  0.2596
   57MOL     C515797   1.106   3.053   7.952  0.5526 -1.2684  0.8374
   57MOL     C615798   1.042   2.987   8.053  0.4895 -0.3591  0.3468
   57MOL     C715799   1.252   3.226   7.851 -0.5884 -0.1035 -0.1392
   57MOL     C815800   1.354   3.326   7.862  0.3624 -0.5490 -0.2051
   57MOL     H915801   1.413   3.299   0.053 -1.6888  1.9840  0.3413
   57MOL    H1015802   1.245   3.117   0.024  0.3126 -0.0757  0.3564
   57MOL    H1115803   1.071   3.031   7.852 -1.9473  0.6929  1.2418
   57MOL    H1215804   1.075   3.017   0.007  2.3090  1.2592 -0.7034
   57MOL    H1315805   1.211   3.200   7.755 -1.5910 -0.4071  0.3680
   57MOL    H1415806   1.393   3.372   7.772  3.7414 -0.4692  1.2265
   57MOL    H1515807   1.491   3.417   7.998  1.4209 -1.9168  1.0319
   57MOL    C1615808   0.937   2.879   8.035 -0.0893  0.2407 -0.0745
   57MOL    C1715809   0.887   2.848   7.905  0.2522  0.6325 -0.1608
   57MOL    C1815810   0.774   2.760   7.894 -0.5109 -0.3141  0.3438
   57MOL    C1915811   0.716   2.701   8.002  0.1638 -0.1458 -0.2549
   57MOL    C2015812   0.590   2.626   7.983  0.0714 -0.2086  0.9454
   57MOL    C2115813   0.509   2.578   8.076 -0.0248  0.5763 -0.6664
   57MOL    C2215814   0.766   2.733   8.126  0.0519  0.2877 -0.7322
   57MOL    C2315815   0.878   2.816   0.005 -0.1250 -0.0735  0.4163
   57MOL    H2415816   0.927   2.900   7.819 -0.6810 -0.7544 -1.4635
   57MOL    H2515817   0.730   2.746   7.796 -0.8718  3.2132 -0.0672
   57MOL    H2615818   0.574   2.615   7.876  2.2503 -0.8224  0.6652
   57MOL    H2715819   0.536   2.589   0.036 -1.2633  2.7641 -0.5382
   57MOL    H2815820   0.710   2.707   0.071  2.1058  0.5623  0.6687
   57MOL    H2915821   0.921   2.830   0.103  0.1474  1.3607  0.1010
   57MOL    C3015822   0.390   2.497   8.045 -0.4786  0.3569  0.1251
   57MOL    C3115823   0.352   2.402   8.137 -0.2466 -0.4949  0.2434
   57MOL    C3215824   0.236   2.329   8.118 -0.4169 -0.3453 -0.0315
   57MOL    C3315825   0.166   2.338   8.004  0.5548  0.4363  0.0787
   57MOL    C3415826   0.040   2.255   8.004  0.0954 -0.1296 -0.4237
   57MOL    C3515827   8.076   2.285   7.936 -0.5897 -1.2669  0.2797
   57MOL    C3615828   0.208   2.421   7.898 -0.6204 -0.3072 -0.4349
   57MOL    C3715829   0.321   2.503   7.922 -0.0336 -0.0894  0.7538
   57MOL    H3815830   0.411   2.392   0.083  0.7331 -2.5183 -0.5823
   57MOL    H3915831   0.207   2.275   0.063 -0.2583  0.1515  0.3269
   57MOL    H4015832   0.053   2.161   8.054  0.8746  0.8667  1.3042
   57MOL    H4115833   8.060   2.381   7.889 -3.3460 -0.8900  1.8656
   57MOL    H4215834   0.164   2.415   7.800 -1.6035 -0.9871  0.0383
   57MOL    H4315835   0.343   2.575   7.845 -0.2269 -1.5220 -0.6687
   57MOL    C4415836   7.952   2.200   7.922  0.6046  0.1502  0.1643
   57MOL    C4515837   7.866   2.209   7.810  0.4413 -0.0846  0.4099
   57MOL    C4615838   7.749   2.131   7.802  0.0902 -0.2688  0.3833
   57MOL    C4715839   7.727   2.025   7.891 -0.1992  0.0350 -0.1857
   57MOL    C4815840   7.617   1.931   7.868  0.4295  0.2343  0.4036
   57MOL    C4915841   7.507   1.975   7.799 -0.0964  0.3927  0.2155
   57MOL    C5015842   7.803   2.026   8.009 -0.0474 -0.0788  0.6163
   57MOL    C5115843   7.915   2.116   8.025 -1.0665  0.6253 -0.3751
   57MOL    H5215844   7.903   2.272   7.730 -1.1897  0.9134  0.4345
   57MOL    H5315845   7.692   2.139   7.710 -1.3833  2.0534  1.4443
   57MOL    H5415846   7.622   1.831   7.910 -0.0049 -0.0119 -0.1174
   57MOL    H5515847   7.507   2.080   7.777 -1.3210  0.5085  0.7690
   57MOL    H5615848   7.798   1.950   8.086 -1.0824  1.1437  1.7718
   57MOL    H5715849   7.983   2.115   8.109  0.0297 -1.0010 -1.2568
   57MOL    C5815850   7.385   1.892   7.763  0.4420 -0.1562  0.0535
   57MOL    C5915851   7.279   1.957   7.698 -0.1716  0.6673  0.2872
   57MOL    C6015852   7.163   1.888   7.654  0.4196  0.6286 -0.4723
   57MOL    C6115853   7.163   1.751   7.656  0.7825 -0.7522  0.2036
   57MOL    C6215854   7.053   1.682   7.590  0.4696 -0.1449  0.3267
   57MOL    C6315855   7.060   1.562   7.526 -0.1685 -0.7084 -0.2564
   57MOL    C6415856   7.272   1.687   7.721  0.5063  0.4660 -0.3647
   57MOL    C6515857   7.376   1.756   7.784 -0.5170 -0.6105 -0.7010
   57MOL    H6615858   7.279   2.065   7.692  2.9172  0.7660  1.3955
   57MOL    H6715859   7.078   1.939   7.611  1.3627  2.6669  0.0292
   57MOL    H6815860   6.959   1.734   7.599  1.1941  1.1196  0.7098
   57MOL    H6915861   7.159   1.520   7.525  0.4072  0.6810 -1.2266
   57MOL    H7015862   7.259   1.579   7.726  1.9326  0.3411  1.2399
   57MOL    H7115863   7.457   1.712   7.840  2.5882  4.5266 -0.8776
   57MOL    C7215864   6.952   1.490   7.463 -0.0671  0.1698 -0.6643
   57MOL    C7315865   6.960   1.354   7.417  0.5738  0.1812 -0.0332
   57MOL    C7415866   6.860   1.287   7.338 -0.1844 -0.5667  0.2197
   57MOL    C7515867   6.742   1.358   7.316 -0.1787 -0.3075  0.1832
   57MOL    C7615868   6.620   1.288   7.259  0.6475  0.3491  1.0413
   57MOL    C7715869   6.494   1.329   7.284  0.2984  0.0366 -0.9897
   57MOL    C7815870   6.734   1.491   7.348  0.5791 -0.6059 -0.5980
   57MOL    C7915871   6.831   1.551   7.434 -0.9729 -0.2009  0.1186
   57MOL    H8015872   7.049   1.296   7.439  0.8984  0.6617 -0.0618
   57MOL    H8115873   6.864   1.184   7.306 -1.7420 -1.1883  1.9367
   57MOL    H8215874   6.634   1.204   7.194  2.1216 -0.9066  2.9356
   57MOL    H8315875   6.484   1.416   7.347 -0.5527 -1.4260  0.9736
   57MOL    H8415876   6.649   1.547   7.312  1.2788  1.5514  0.9529
   57MOL    H8515877   6.825   1.658   7.449 -0.1767 -0.2303  0.7059
   57MOL    C8615878   6.367   1.274   7.236  0.3486  0.1558 -1.1056
   57MOL    C8715879   6.363   1.158   7.156 -0.0059  0.1940 -0.2929
   57MOL    C8815880   6.240   1.104   7.113  0.1584  0.4518  0.2794
   57MOL    C8915881   6.118   1.157   7.152  0.3661 -0.4958  0.0225
   57MOL    C9015882   6.001   1.082   7.112 -0.2804 -0.1352 -0.3901
   57MOL    C9115883   5.877   1.106   7.157 -0.8859 -1.0848 -0.1861
   57MOL    C9215884   6.125   1.274   7.236  0.2848 -0.2785 -0.1545
   57MOL    C9315885   6.244   1.329   7.270 -0.8445 -0.7486 -0.6474
   57MOL    H9415886   6.460   1.115   7.140  1.0495  1.3602  2.6088
   57MOL    H9515887   6.236   1.011   7.059  0.0889  1.7280 -1.9874
   57MOL    H9615888   6.008   0.998   7.044 -1.3163 -0.2245 -0.3948
   57MOL    H9715889   5.857   1.184   7.228 -0.1995 -1.3144  0.2634
   57MOL    H9815890   6.031   1.314   7.270  0.0084  0.3585 -1.6350
   57MOL    H9915891   6.247   1.408   7.344 -0.2903 -0.6786 -0.7388
   57MOL   C10015892   5.754   1.033   7.115 -0.1082  0.5840 -0.4119
   57MOL   C10115893   5.637   1.071   7.180 -0.2251 -0.2998  0.2901
   57MOL   C10215894   5.522   1.004   7.156  0.8304  0.2416  0.2831
   57MOL   C10315895   5.513   0.890   7.073  0.0412 -0.3555 -0.1067
   57MOL   C10415896   5.396   0.805   7.055  0.0538 -0.3500  0.0823
   57MOL   C10515897   5.270   0.828   7.105  0.4427 -0.3286  0.0653
   57MOL   C10615898   5.631   0.852   7.008  0.1430  0.2936  0.4080
   57MOL   C10715899   5.751   0.916   7.034 -0.0097  0.5127  1.0631
   57MOL   H10815900   5.634   1.150   7.254  1.7413 -1.5645  1.7795
   57MOL   H10915901   5.434   1.027   7.215  1.2539 -1.8055  1.7942
   57MOL   H11015902   5.412   0.711   7.005 -1.1689 -1.0924  1.0420
   57MOL   H11115903   5.258   0.913   7.170  2.3894 -0.6396  0.8557
   57MOL   H11215904   5.628   0.752   6.968  1.1343 -0.3994  2.0146
   57MOL   H11315905   5.844   0.872   7.003 -0.4227 -0.1363  0.7443
   57MOL   C11415906   5.147   0.752   7.076 -0.3415  0.0127 -0.4792
   57MOL   C11515907   5.144   0.642   6.979  0.2252 -1.0261  0.1488
   57MOL   C11615908   5.030   0.567   6.956 -0.3414 -0.4222 -0.0207
   57MOL   C11715909   4.911   0.600   7.024 -0.0318 -0.8197 -0.1143
   57MOL   C11815910   4.790   0.514   7.020  0.4762  0.2436 -0.0725
   57MOL   C11915911   4.784   0.398   6.959 -0.1187 -0.0131 -0.0972
   57MOL   C12015912   4.913   0.706   7.117  0.4220 -0.2897 -0.1529
   57MOL   C12115913   5.030   0.776   7.143 -1.0464  0.1785  0.7694
   57MOL   H12215914   5.236   0.600   6.941 -0.5522 -0.7038 -2.1818
   57MOL   H12315915   5.041   0.477   6.897 -1.0957 -1.6798  1.7201
   57MOL   H12415916   4.698   0.544   7.068  0.5915 -0.1503  0.4064
   57MOL   H12515917   4.871   0.354   6.912  1.6316  1.2293  1.9476
   57MOL   H12615918   4.828   0.726   7.181  0.8622 -0.7439  0.5694
   57MOL   H12715919   5.029   0.859   7.212  1.1781  2.1786 -1.5076
   57MOL   C12815920   4.665   0.317   6.945 -0.0096  0.5978 -0.2633
   57MOL   C12915921   4.537   0.373   6.959 -0.1600  0.7845 -0.2902
   57MOL   C13015922   4.424   0.284   6.968 -0.5130  0.3307  0.4650
   57MOL   C13115923   4.435   0.145   6.955  0.1719  0.2999  0.6953
   57MOL   C13215924   4.322   0.052   6.972 -0.1944 -0.0185 -0.3791
   57MOL   C13315925   4.194   0.087   6.992  0.1773 -0.3486  0.5287
   57MOL   C13415926   4.563   0.091   6.927 -0.0082  0.2118 -0.2261
   57MOL   C13515927   4.677   0.179   6.926  0.2603 -0.2488  0.3434
   57MOL   H13615928   4.528   0.480   6.966  1.8625  0.9860 -0.5024
   57MOL   H13715929   4.333   0.342   6.960 -1.0518  0.1529  4.6380
   57MOL   H13815930   4.353   8.092   6.970 -2.5674 -0.7678  0.1277
   57MOL   H13915931   4.162   0.190   6.996 -3.1468 -1.1670 -2.1412
   57MOL   H14015932   4.577   8.129   6.920  0.7239  0.3035 -0.1614
   57MOL   H14115933   4.774   0.140   6.901 -0.0904  0.8373 -2.8080
   57MOL   C14215934   4.082   8.133   7.009 -0.4860  0.6015 -0.0069
   57MOL   C14315935   4.096   7.993   7.006 -0.1111  0.0103  0.2188
   57MOL   C14415936   3.989   7.906   7.030  0.3997  0.2084 -0.5524
   57MOL   C14515937   3.857   7.964   7.051 -0.1504 -0.1402  0.2828
   57MOL   C14615938   3.747   7.872   7.070 -0.0112 -0.0405  0.2035
   57MOL   C14715939   3.613   7.884   7.072 -0.1331 -0.0004 -0.7871
   57MOL   C14815940   3.838   8.101   7.064  0.2107  0.4719 -0.0055
   57MOL   C14915941   3.953   0.035   7.049 -0.2679  0.2148  0.2249
   57MOL   H15015942   4.193   7.944   6.999  0.7845  1.4625  1.9941
   57MOL   H15115943   4.015   7.804   7.054 -2.7427  0.0192  2.3316
   57MOL   H15215944   3.776   7.769   7.089 -2.4247 -0.5174  1.4962
   57MOL   H15315945   3.567   7.978   7.049 -1.5873 -0.2600  0.9738
   57MOL   H15415946   3.748   8.142   7.107  0.6793  0.6298  0.8406
   57MOL   H15515947   3.937   0.142   7.054  2.1829  0.7047 -1.1934
   57MOL   C15615948   3.522   7.773   7.094  0.2267 -0.2952 -0.1307
   57MOL   C15715949   3.379   7.796   7.105 -0.1435 -0.0374 -0.1381
   57MOL   C15815950   3.284   7.691   7.124  0.3782  0.0360  0.1219
   57MOL   C15915951   3.319   7.556   7.123  0.0088  0.3353  1.0180
   57MOL   C16015952   3.216   7.451   7.137 -0.0065  0.1887  0.3660
   57MOL   C16115953   3.240   7.320   7.141 -0.0576  0.3627 -0.1663
   57MOL   C16215954   3.460   7.530   7.109 -0.0613  0.3427 -0.5237
   57MOL   C16315955   3.554   7.629   7.105  0.1085 -0.6593  0.6221
   57MOL   H16415956   3.344   7.897   7.094 -0.3904 -0.0924  0.1592
   57MOL   H16515957   3.180   7.720   7.125  0.1441 -0.7500  2.7449
   57MOL   H16615958   3.115   7.487   7.153  0.6216  1.4508  1.7094
   57MOL   H16715959   3.338   7.273   7.146  0.5856  1.7502  0.3833
   57MOL   H16815960   3.488   7.426   7.111  0.1485  0.3740 -1.6806
   57MOL   H16915961   3.655   7.596   7.083  0.1208  0.2567 -0.7788
   57MOL   C17015962   3.135   7.216   7.158 -0.7961 -0.4367  0.1925
   57MOL   C17115963   2.998   7.246   7.166  0.1105 -0.2703  0.0657
   57MOL   C17215964   2.905   7.145   7.157 -0.4505  0.1336  0.7460
   57MOL   C17315965   2.949   7.011   7.163  0.5111 -1.0265 -0.5493
   57MOL   C17415966   2.844   6.907   7.157  0.3967  0.4748 -0.5383
   57MOL   C17515967   2.864   6.780   7.197  0.3095  0.0277  0.0411
   57MOL   C17615968   3.082   6.973   7.165 -0.5786 -0.0039  0.2770
   57MOL   C17715969   3.172   7.084   7.160 -0.2845  0.8503  0.4318
   57MOL   H17815970   2.967   7.349   7.176  0.5972 -0.2797  1.8155
   57MOL   H17915971   2.800   7.166   7.160 -0.5520 -0.1146 -0.8214
   57MOL   H18015972   2.753   6.939   7.109 -0.8032 -1.7070  0.2057
   57MOL   H18115973   2.959   6.744   7.235 -0.1977  0.1649  1.4385
   57MOL   H18215974   3.119   6.872   7.161 -0.2600  0.1898 -2.3308
   57MOL   H18315975   3.278   7.060   7.161 -0.5881 -0.5202  2.2214
   57MOL   C18415976   2.766   6.670   7.177 -0.4683 -0.0461  0.5621
   57MOL   C18515977   2.762   6.567   7.272 -0.2721 -0.2075  0.1300
   57MOL   C18615978   2.676   6.458   7.254 -0.5704  0.7047 -0.3867
   57MOL   C18715979   2.588   6.449   7.147  0.1759  0.1188  0.4309
   57MOL   C18815980   2.510   6.326   7.122 -0.0448  0.0698 -0.8134
   57MOL   C18915981   2.410   6.315   7.034  0.0217  0.3735  0.1049
   57MOL   C19015982   2.574   6.561   7.064 -0.3329 -0.1058 -0.3181
   57MOL   C19115983   2.666   6.670   7.076 -0.3454  0.4662  0.6918
   57MOL   H19215984   2.839   6.552   7.347  0.2439  1.4176 -0.0562
   57MOL   H19315985   2.679   6.375   7.322  0.4086 -0.2473 -1.5571
   57MOL   H19415986   2.534   6.238   7.180  2.4755  0.5978 -1.0289
   57MOL   H19515987   2.368   6.392   6.971  1.7098  0.2503 -1.1917
   57MOL   H19615988   2.508   6.547   6.979  1.1085 -1.2761 -1.2564
   57MOL   H19715989   2.656   6.745   6.999 -2.0835 -1.4257 -1.0069
   57MOL   C19815990   2.347   6.180   7.013  0.2242 -0.3419 -0.6341
   57MOL   C19915991   2.326   6.144   6.882 -0.4086  0.3312  0.3969
   57MOL   C20015992   2.293   6.010   6.854  0.3494 -0.3691 -0.8957
   57MOL   C20115993   2.258   5.916   6.952 -0.0957 -0.8820  0.3267
   57MOL   C20215994   2.195   5.792   6.903 -0.3700 -0.1849 -0.0952
   57MOL   C20315995   2.163   5.688   6.982  0.5521 -0.9552 -0.5992
   57MOL   C20415996   2.290   5.950   7.085  0.5246 -0.3387  0.0399
   57MOL   C20515997   2.334   6.083   7.113 -0.1567  0.0767  0.7940
   57MOL   H20615998   2.347   6.208   6.798 -2.7884  0.1991 -0.3238
   57MOL   H20715999   2.286   5.985   6.749  1.9231  1.6541 -1.5123
   57MOL   H20816000   2.155   5.785   6.803  0.7541 -2.2908 -0.4048
   57MOL   H20916001   2.184   5.687   7.088  0.5936  1.4036 -0.5634
   57MOL   H21016002   2.267   5.879   7.163 -0.3136  0.6578  0.7262
   57MOL   H21116003   2.346   6.107   7.218 -0.4187  1.8661  0.4355
   57MOL   C21216004   2.089   5.567   6.939 -0.0933 -0.1064  0.1463
   57MOL   C21316005   2.066   5.538   6.802 -0.0613 -0.2220  0.3276
   57MOL   C21416006   1.987   5.430   6.768 -0.0980 -0.4746 -0.3263
   57MOL   C21516007   1.948   5.332   6.867 -0.0996  0.3620 -0.8823
   57MOL   C21616008   1.879   5.207   6.819  0.0748 -0.9116 -0.3113
   57MOL   C21716009   1.827   5.107   6.900  0.1991  0.0646  0.5279
   57MOL   C21816010   1.980   5.356   7.002  0.2692  0.1150  0.4552
   57MOL   C21916011   2.048   5.473   7.038  0.1610 -0.0328  0.1404
   57MOL   H22016012   2.107   5.606   6.730  3.0485 -0.6934  1.5931
   57MOL   H22116013   1.957   5.422   6.665 -2.2772 -1.7835  0.3664
   57MOL   H22216014   1.879   5.205   6.711  5.5235  3.5767 -0.6063
   57MOL   H22316015   1.843   5.117   7.006  2.4932 -2.6857  0.4929
   57MOL   H22416016   1.953   5.287   7.080 -0.8423  1.7374  1.5376
   57MOL   H22516017   2.067   5.490   7.143  0.7197  0.4456 -0.0378
   57MOL   C22616018   1.758   4.994   6.836  0.3623  0.0160 -0.1357
   57MOL   C22716019   1.729   4.979   6.700  0.4074  0.0276  0.2644
   57MOL   C22816020   1.684   4.856   6.651  0.1489  0.2022 -0.4435
   57MOL   C22916021   1.666   4.747   6.728 -0.5312  0.3629  0.3447
   57MOL   C23016022   1.614   4.625   6.670 -0.3148  0.2380  0.7914
   57MOL   C23116023   1.556   4.522   6.731  0.3938 -0.1090 -0.7791
   57MOL   C23216024   1.692   4.760   6.864 -0.0097  0.3652  0.7332
   57MOL   C23316025   1.736   4.884   6.920 -0.1263  0.7186 -0.3278
   57MOL   H23416026   1.740   5.060   6.630 -0.5467  0.3432  0.4641
   57MOL   H23516027   1.672   4.838   6.545  1.0835 -0.8111 -0.3872
   57MOL   H23616028   1.624   4.621   6.562 -4.5307 -0.0819  0.3059
   57MOL   H23716029   1.542   4.530   6.838 -0.1816 -0.8928 -0.7934
   57MOL   H23816030   1.685   4.671   6.926  1.9973  0.0430  0.5465
   57MOL   H23916031   1.759   4.888   7.025  3.2458 -1.0592 -0.9306
   57MOL   C24016032   1.513   4.402   6.669  0.1833 -0.1951  0.2268
   57MOL   C24116033   1.538   4.284   6.744 -0.4825  0.2087  0.1949
   57MOL   C24216034   1.537   4.161   6.679 -0.1026 -0.7377 -0.0843
   57MOL   C24316035   1.520   4.156   6.536 -0.2072 -0.0638 -0.4984
   57MOL   C24416036   1.544   4.020   6.485  0.7386  0.2517 -0.4420
   57MOL   C24516037   1.530   3.986   6.352  0.1316 -0.6280  0.3265
   57MOL   C24616038   1.496   4.270   6.465  0.5956 -0.1570 -0.2108
   57MOL   C24716039   1.485   4.396   6.526 -0.0103  0.7324 -0.3661
   57MOL   H24816040   1.563   4.287   6.849  1.7097  1.3753 -0.3231
   57MOL   H24916041   1.551   4.074   6.742  1.2032  0.1186  0.8271
   57MOL   H25016042   1.573   3.948   6.559  2.3537  0.4856 -0.8324
   57MOL   H25116043   1.497   4.061   6.282 -1.0155 -0.6214  0.8682
   57MOL   H25216044   1.482   4.267   6.358  0.7521  0.0611 -0.2387
   57MOL   H25316045   1.452   4.480   6.467 -0.9586 -0.7624 -1.9937
   57MOL   C25416046   1.561   3.854   6.299  0.4913 -0.1820  0.5357
   57MOL   C25516047   1.595   3.739   6.375  0.4470  0.2412  0.2148
   57MOL   C25616048   1.633   3.618   6.318  0.3335 -0.0686  0.1650
   57MOL   C25716049   1.648   3.609   6.178 -0.2101  0.3554 -0.7537
   57MOL   C25816050   1.695   3.487   6.122  0.1437  0.1534 -0.6681
   57MOL   C25916051   1.803   3.486   6.042 -1.1898 -0.1198 -0.0044
   57MOL   C26016052   1.626   3.725   6.098 -0.2103 -0.1035  0.4085
   57MOL   C26116053   1.579   3.846   6.154 -0.5112  0.3117 -0.8237
   57MOL   H26216054   1.603   3.744   6.482 -0.4201 -0.5118  0.3313
   57MOL   H26316055   1.659   3.533   6.380 -0.9435 -0.6795 -0.1251
   57MOL   H26416056   1.644   3.394   6.138  0.7786  0.2109  1.8640
   57MOL   H26516057   1.818   3.386   6.003 -3.2481  0.7510 -3.2356
   57MOL   H26616058   1.632   3.718   5.990 -2.9525  0.8390  0.1547
   57MOL   H26716059   1.556   3.942   6.109  0.2186  1.7145  1.7033
   57MOL   C26816060   1.904   3.580   5.993  0.2779  0.2959 -0.7661
   57MOL   C26916061   1.941   3.700   6.055 -0.0847  0.4996  0.4675
   57MOL   C27016062   2.036   3.782   6.001  0.1075  0.5944 -0.3006
   57MOL   C27116063   2.090   3.763   5.873 -0.9704 -0.3224 -0.0878
   57MOL   C27216064   2.192   3.848   5.802 -0.2334  0.4583 -0.3207
   57MOL   C27316065   2.227   3.973   5.842 -0.6558  0.6177 -0.2135
   57MOL   C27416066   2.054   3.649   5.804  0.2490 -0.0067  0.1846
   57MOL   C27516067   1.961   3.555   5.865 -0.3539 -0.3338  0.0560
   57MOL   H27616068   1.897   3.720   6.152 -1.2360 -0.6420  0.1962
   57MOL   H27716069   2.067   3.869   6.058  0.4425 -0.3864  1.0336
   57MOL   H27816070   2.236   3.809   5.712  1.5414  0.6247  0.4544
   57MOL   H27916071   2.197   4.028   5.930 -0.9181 -0.9112  0.6771
   57MOL   H28016072   2.080   3.625   5.702 -0.8667 -0.6639  0.0493
   57MOL   H28116073   1.945   3.467   5.804  0.9182 -0.2027 -0.4954
   57MOL   H28216074   2.298   4.022   5.776  1.9136 -1.2761  1.0500
   58MOL     C116075   1.322   5.495   0.504 -0.2114 -0.0113 -0.5069
   58MOL     C216076   1.311   5.355   0.484 -0.1414 -0.2611  0.3845
   58MOL     C316077   1.406   5.267   0.533 -0.3439 -0.4825 -0.0904
   58MOL     C416078   1.519   5.317   0.599 -0.0773 -0.3396  0.7820
   58MOL     C516079   1.625   5.222   0.624 -0.1824  0.6108 -0.5414
   58MOL     C616080   1.736   5.258   0.695 -0.2491  0.1177 -0.2486
   58MOL     C716081   1.522   5.453   0.634  0.1769  0.0941  0.1576
   58MOL     C816082   1.430   5.541   0.577  0.1579 -0.2143  0.4239
   58MOL     H916083   1.234   5.301   0.430  0.4228 -0.6098 -0.0713
   58MOL    H1016084   1.393   5.162   0.511 -2.3348 -0.7076  1.9268
   58MOL    H1116085   1.624   5.124   0.578  3.5491 -0.1517  0.8082
   58MOL    H1216086   1.736   5.346   0.757 -0.7911 -0.7977  1.0703
   58MOL    H1316087   1.597   5.504   0.691 -1.1384  0.7917  1.2897
   58MOL    H1416088   1.437   5.649   0.584  0.0312 -0.3356  2.5602
   58MOL    H1516089   1.248   5.565   0.466 -1.8274 -1.1715  0.4281
   58MOL    C1616090   1.860   5.184   0.690 -0.1214 -0.4232  0.6027
   58MOL    C1716091   1.981   5.251   0.722 -0.6462  0.4957  0.3173
   58MOL    C1816092   2.103   5.187   0.714 -0.4847  0.2707  0.3939
   58MOL    C1916093   2.114   5.056   0.665  0.0939 -0.1352  0.8383
   58MOL    C2016094   2.250   4.995   0.645  0.0469 -0.1850  0.2279
   58MOL    C2116095   2.286   4.866   0.646  1.0746 -0.5362  0.2695
   58MOL    C2216096   1.996   4.985   0.632  0.8784 -0.2176 -0.4407
   58MOL    C2316097   1.869   5.047   0.645 -0.8632 -0.4335 -0.7688
   58MOL    H2416098   1.981   5.353   0.758 -0.8748  0.4641  0.4043
   58MOL    H2516099   2.193   5.241   0.742 -0.0468  0.1693 -0.7572
   58MOL    H2616100   2.324   5.069   0.617  0.7697 -0.1340  2.2146
   58MOL    H2716101   2.202   4.799   0.657  0.5944 -0.1611 -1.0087
   58MOL    H2816102   2.000   4.883   0.595 -0.0740  1.0913 -4.3685
   58MOL    H2916103   1.780   4.988   0.629 -3.1002  2.2502  1.0749
   58MOL    C3016104   2.418   4.815   0.615  0.2600 -0.2840  0.1550
   58MOL    C3116105   2.473   4.703   0.679  0.2231 -0.9564 -0.2360
   58MOL    C3216106   2.603   4.654   0.650  0.5453  0.2014  0.2668
   58MOL    C3316107   2.683   4.723   0.553 -0.1761 -0.5242 -0.2449
   58MOL    C3416108   2.812   4.660   0.516 -0.6058 -0.3630 -0.4034
   58MOL    C3516109   2.888   4.697   0.414 -0.6415  0.4470 -0.9905
   58MOL    C3616110   2.630   4.835   0.490  0.1278 -0.4176 -0.2902
   58MOL    C3716111   2.495   4.877   0.513 -0.1025  0.5453 -0.3011
   58MOL    H3816112   2.408   4.655   0.752 -1.0657  1.9741  0.6406
   58MOL    H3916113   2.632   4.557   0.687 -3.5619 -1.0733  0.3731
   58MOL    H4016114   2.839   4.573   0.574 -0.1205  0.3302  0.4174
   58MOL    H4116115   2.862   4.788   0.362  1.2458  2.6357  1.7618
   58MOL    H4216116   2.695   4.888   0.422  0.7485 -0.4758  0.2410
   58MOL    H4316117   2.456   4.956   0.451  0.1170  0.9070  0.0159
   58MOL    C4416118   3.012   4.636   0.358  0.1722  0.1070  0.2526
   58MOL    C4516119   3.084   4.534   0.429  0.3478  0.4064  0.1559
   58MOL    C4616120   3.200   4.475   0.383  0.3976  0.3990 -0.6034
   58MOL    C4716121   3.252   4.518   0.257  0.4387 -0.4303 -0.0756
   58MOL    C4816122   3.373   4.468   0.203 -0.0661 -0.3286  0.9012
   58MOL    C4916123   3.457   4.387   0.268 -0.2197  0.6273 -0.5823
   58MOL    C5016124   3.179   4.616   0.182  0.3241  0.0502 -0.3414
   58MOL    C5116125   3.057   4.673   0.226 -0.6498 -0.0659 -0.1075
   58MOL    H5216126   3.045   4.501   0.524 -1.3168 -2.4645 -1.4439
   58MOL    H5316127   3.239   4.393   0.442  0.2653  1.3480  0.8470
   58MOL    H5416128   3.395   4.488   0.099 -0.9575 -2.4421  0.2826
   58MOL    H5516129   3.447   4.369   0.374  0.6097 -0.5173 -0.6829
   58MOL    H5616130   3.206   4.652   0.084 -0.1364  0.1724 -0.4272
   58MOL    H5716131   3.008   4.741   0.158  2.9111  1.7346 -0.9932
   58MOL    C5816132   3.574   4.314   0.214 -0.3462 -0.3227  0.2119
   58MOL    C5916133   3.595   4.309   0.069 -0.0575  0.1886 -0.5187
   58MOL    C6016134   3.714   4.248   0.015  0.7874 -0.4275 -0.2665
   58MOL    C6116135   3.813   4.189   0.101 -0.5085  0.1557 -0.0091
   58MOL    C6216136   3.917   4.118   0.029  0.1881  0.1990 -0.1138
   58MOL    C6316137   4.029   4.068   0.086 -0.3429 -0.0103  0.6329
   58MOL    C6416138   3.789   4.194   0.236  1.3057 -0.0324  0.1003
   58MOL    C6516139   3.671   4.251   0.294 -0.5476  0.5707 -0.0258
   58MOL    H6616140   3.533   4.363   8.143  1.9591  3.5755  0.1969
   58MOL    H6716141   3.734   4.252   8.053  1.3601  0.3248 -0.1399
   58MOL    H6816142   3.914   4.115   8.065 -0.9087 -0.7973 -0.0544
   58MOL    H6916143   4.054   4.074   0.191  3.6611 -0.3491 -0.1881
   58MOL    H7016144   3.844   4.131   0.304  0.2765 -1.0174  0.0419
   58MOL    H7116145   3.651   4.254   0.400 -0.1314  0.7332  0.0460
   58MOL    C7216146   4.141   4.009   0.020 -0.1214 -0.7240 -0.7534
   58MOL    C7316147   4.274   4.014   0.068 -0.0817  0.2562 -0.1597
   58MOL    C7416148   4.385   3.964   8.137 -0.1237  0.0240 -0.3622
   58MOL    C7516149   4.368   3.929   7.997 -0.8512  0.0213  0.1015
   58MOL    C7616150   4.489   3.924   7.914  0.1590  0.5197 -0.5520
   58MOL    C7716151   4.496   3.905   7.779  0.5626 -0.5155 -0.5543
   58MOL    C7816152   4.237   3.924   7.949  0.9409 -0.1823 -0.1447
   58MOL    C7916153   4.128   3.961   8.031 -0.6483  0.0582  0.4399
   58MOL    H8016154   4.303   4.041   0.169 -0.2470 -1.8138  0.4640
   58MOL    H8116155   4.484   3.974   0.036 -0.1955 -0.9931  0.0574
   58MOL    H8216156   4.580   3.947   7.966 -0.6839 -1.0406  1.6943
   58MOL    H8316157   4.404   3.867   7.736 -0.7614  1.9892 -0.0519
   58MOL    H8416158   4.220   3.893   7.847 -0.1839  0.4703 -0.1550
   58MOL    H8516159   4.031   3.935   7.991 -1.2675  2.4839  0.2806
   58MOL    C8616160   4.609   3.916   7.681 -0.5308  0.2161 -0.2652
   58MOL    C8716161   4.579   3.888   7.547 -1.2764  0.4844 -0.3439
   58MOL    C8816162   4.672   3.909   7.447  0.2190  0.5101 -0.5206
   58MOL    C8916163   4.786   3.978   7.474  0.3497  0.0252  0.8609
   58MOL    C9016164   4.863   4.028   7.363  0.3767  0.2691 -0.5817
   58MOL    C9116165   4.945   4.135   7.373 -0.1736  0.1039  0.3640
   58MOL    C9216166   4.827   3.999   7.604 -0.1759  0.1027  0.3990
   58MOL    C9316167   4.736   3.966   7.710 -0.1732 -1.0258  0.2349
   58MOL    H9416168   4.488   3.840   7.517 -2.1697  0.4548  2.2475
   58MOL    H9516169   4.646   3.877   7.347  0.3893  0.3728 -0.5207
   58MOL    H9616170   4.859   3.971   7.272  1.8266 -2.6291  1.0923
   58MOL    H9716171   4.956   4.178   7.472  0.5696 -0.0053  0.3358
   58MOL    H9816172   4.924   4.041   7.625  0.2366 -1.8754  2.7007
   58MOL    H9916173   4.770   3.993   7.809  0.4120  0.2780 -0.3211
   58MOL   C10016174   5.027   4.204   7.271 -0.1098  0.2383 -0.3376
   58MOL   C10116175   5.066   4.340   7.294 -0.4238  0.7238 -0.2836
   58MOL   C10216176   5.116   4.412   7.187  0.2511 -0.0008  0.0410
   58MOL   C10316177   5.146   4.353   7.055  0.5323 -0.6901  0.3372
   58MOL   C10416178   5.193   4.439   6.947  0.2261  0.5068  0.5441
   58MOL   C10516179   5.152   4.569   6.944  0.0889 -0.3412 -0.3950
   58MOL   C10616180   5.121   4.213   7.045 -0.2155  0.0147  0.1867
   58MOL   C10716181   5.061   4.145   7.149 -0.2281 -0.9179  0.4447
   58MOL   H10816182   5.033   4.393   7.382 -3.2240 -1.7000  0.1981
   58MOL   H10916183   5.134   4.516   7.213  0.8115 -0.0756 -0.0444
   58MOL   H11016184   5.255   4.397   6.868  1.3560  1.4060  0.9325
   58MOL   H11116185   5.090   4.612   7.022  0.0973 -0.3235 -0.3980
   58MOL   H11216186   5.142   4.166   6.950  2.7955  0.9853  0.3235
   58MOL   H11316187   5.032   4.042   7.143 -3.2137 -0.3965  4.0428
   58MOL   C11416188   5.182   4.671   6.846 -0.3412  0.9906 -0.3076
   58MOL   C11516189   5.286   4.658   6.755 -0.4545  0.1094  0.4139
   58MOL   C11616190   5.289   4.738   6.638 -0.1227 -0.3240  0.0811
   58MOL   C11716191   5.188   4.837   6.625  0.4679 -0.0445  0.5560
   58MOL   C11816192   5.182   4.932   6.512  0.9769  1.0361 -0.0498
   58MOL   C11916193   5.264   4.943   6.405 -0.8641  0.3143 -0.7273
   58MOL   C12016194   5.095   4.855   6.722  0.6935  0.5526 -0.1465
   58MOL   C12116195   5.095   4.775   6.836  0.1314 -0.4930 -0.1196
   58MOL   H12216196   5.358   4.578   6.761 -1.1241 -0.4403  1.3226
   58MOL   H12316197   5.368   4.731   6.564 -0.3186  0.7406 -0.2301
   58MOL   H12416198   5.098   4.999   6.523  1.5311  1.6667  0.3843
   58MOL   H12516199   5.351   4.879   6.396 -3.1826 -2.8454 -1.8053
   58MOL   H12616200   5.021   4.933   6.713  1.6996  1.4218 -1.0066
   58MOL   H12716201   5.005   4.779   6.895  0.1791 -0.5897 -0.0412
   58MOL   C12816202   5.251   5.042   6.306  0.2140  0.6062 -0.8577
   58MOL   C12916203   5.178   5.157   6.327  0.3352 -0.2588 -0.0236
   58MOL   C13016204   5.150   5.247   6.226  0.0547  0.1539 -0.0180
   58MOL   C13116205   5.214   5.242   6.101 -0.8715  0.6938 -0.9002
   58MOL   C13216206   5.189   5.336   5.991 -0.3760  0.5623  0.0310
   58MOL   C13316207   5.144   5.458   6.005 -0.3056  0.1642  0.1277
   58MOL   C13416208   5.300   5.129   6.075 -0.5378  0.1257  0.3489
   58MOL   C13516209   5.313   5.032   6.179 -0.4228  0.1282  0.0246
   58MOL   H13616210   5.131   5.177   6.423  1.5532 -2.2595  1.0194
   58MOL   H13716211   5.081   5.327   6.251  1.4568  2.3262 -2.7466
   58MOL   H13816212   5.203   5.297   5.891 -1.4954 -0.0165  0.0949
   58MOL   H13916213   5.112   5.487   6.104 -0.5512 -0.1105  0.1314
   58MOL   H14016214   5.349   5.113   5.980 -0.3217 -0.9924  0.6370
   58MOL   H14116215   5.371   4.945   6.151  0.1677  1.1213 -1.9034
   58MOL   C14216216   5.123   5.563   5.901 -0.2908  0.0794 -0.0015
   58MOL   C14316217   5.062   5.684   5.937  0.4279  0.0747  0.0146
   58MOL   C14416218   5.012   5.781   5.846 -0.0847 -0.6024 -0.5582
   58MOL   C14516219   5.032   5.755   5.707 -0.4508 -0.3857  0.0796
   58MOL   C14616220   4.983   5.847   5.604 -0.3366  0.0446  0.0764
   58MOL   C14716221   4.964   5.975   5.610 -0.0616 -0.0333 -0.7419
   58MOL   C14816222   5.109   5.640   5.671  0.0592  0.3705 -0.7304
   58MOL   C14916223   5.143   5.542   5.770  0.5175 -0.0043 -0.3483
   58MOL   H15016224   5.059   5.710   6.042 -2.1887 -0.6486  0.1622
   58MOL   H15116225   4.964   5.868   5.889  1.1788 -0.2422  0.1658
   58MOL   H15216226   4.945   5.795   5.517 -1.0351 -0.1879  0.5178
   58MOL   H15316227   4.990   6.038   5.694  1.8919 -0.0272 -1.3233
   58MOL   H15416228   5.142   5.623   5.570  2.6490  0.6110  0.0415
   58MOL   H15516229   5.192   5.452   5.734 -1.6402 -1.4472  0.2046
   58MOL   C15616230   4.888   6.049   5.505 -0.2549  0.2226  0.3222
   58MOL   C15716231   4.908   6.181   5.472  0.9201  0.2775  0.2574
   58MOL   C15816232   4.823   6.244   5.381  0.3890 -1.0653 -0.1967
   58MOL   C15916233   4.720   6.175   5.314  0.2739 -0.2757  0.0097
   58MOL   C16016234   4.631   6.251   5.223 -0.6499 -0.2355 -0.3631
   58MOL   C16116235   4.628   6.388   5.206 -0.1540 -0.4441  0.1634
   58MOL   C16216236   4.697   6.041   5.344 -0.1148  0.0552 -0.4857
   58MOL   C16316237   4.782   5.976   5.438 -0.5679  0.0419  0.2842
   58MOL   H16416238   4.984   6.242   5.518  1.9821 -1.3196  0.6749
   58MOL   H16516239   4.849   6.343   5.347  0.5031 -1.0573 -0.0839
   58MOL   H16616240   4.556   6.192   5.172  1.7656 -1.1895 -2.9200
   58MOL   H16716241   4.705   6.446   5.255 -0.8983 -0.1317  0.9804
   58MOL   H16816242   4.608   5.998   5.299 -0.9095 -1.2318  2.1956
   58MOL   H16916243   4.765   5.873   5.466 -1.1876  0.8309  2.8850
   58MOL   C17016244   4.529   6.455   5.123 -0.3051 -0.0597  0.7651
   58MOL   C17116245   4.414   6.396   5.073  0.4632  0.2022  0.5807
   58MOL   C17216246   4.308   6.468   5.012 -0.2558 -1.0637  0.1367
   58MOL   C17316247   4.329   6.605   4.996 -0.2233 -0.3605 -0.4522
   58MOL   C17416248   4.225   6.691   4.935  0.3700  0.0461 -0.0107
   58MOL   C17516249   4.096   6.660   4.918 -0.2646  0.2668 -0.2449
   58MOL   C17616250   4.446   6.664   5.044 -0.2745  0.4404 -0.1710
   58MOL   C17716251   4.546   6.596   5.107  0.4523  0.1197  0.0117
   58MOL   H17816252   4.398   6.290   5.082  0.7851 -0.0454 -1.4069
   58MOL   H17916253   4.221   6.417   4.974 -0.1447 -0.9574 -0.2587
   58MOL   H18016254   4.252   6.791   4.902 -0.6858  0.5183  0.5271
   58MOL   H18116255   4.068   6.562   4.956  0.6423  0.0141 -0.1994
   58MOL   H18216256   4.454   6.771   5.039 -2.0510  0.6265  0.6526
   58MOL   H18316257   4.635   6.654   5.124 -1.1799  2.1755  1.8069
   58MOL   C18416258   3.996   6.743   4.864  0.1563  0.0292  1.0213
   58MOL   C18516259   3.867   6.691   4.864  0.3136  0.1395  0.1144
   58MOL   C18616260   3.757   6.766   4.815 -0.2939 -0.1089 -0.0535
   58MOL   C18716261   3.783   6.905   4.786  0.2678  0.1825  0.6597
   58MOL   C18816262   3.670   6.994   4.748 -0.2686  0.1302  0.1180
   58MOL   C18916263   3.541   6.963   4.734 -0.1119 -0.0111  0.5252
   58MOL   C19016264   3.918   6.949   4.773  0.1890 -0.8386 -0.5772
   58MOL   C19116265   4.028   6.869   4.815 -0.5186 -0.8413 -0.1082
   58MOL   H19216266   3.851   6.595   4.910  0.4940  0.4351  0.8011
   58MOL   H19316267   3.656   6.730   4.804 -0.0392 -0.6542 -0.6403
   58MOL   H19416268   3.694   7.099   4.738 -0.0883  0.1019  0.2440
   58MOL   H19516269   3.510   6.862   4.757  0.8691 -0.0604  1.6506
   58MOL   H19616270   3.929   7.051   4.742  0.1900 -1.1410 -1.5842
   58MOL   H19716271   4.122   6.919   4.803 -2.3664  2.5456 -1.0902
   58MOL   C19816272   3.434   7.056   4.704  0.2887 -0.9279 -0.1260
   58MOL   C19916273   3.455   7.192   4.668 -0.1217 -0.5244  0.1593
   58MOL   C20016274   3.343   7.284   4.668  0.0863  0.9473  0.2916
   58MOL   C20116275   3.210   7.235   4.681  0.2146 -0.4963 -0.3341
   58MOL   C20216276   3.100   7.327   4.676  0.2872  0.8927 -0.7094
   58MOL   C20316277   2.973   7.299   4.700  0.5960 -0.4074  0.5642
   58MOL   C20416278   3.190   7.097   4.692 -0.0729  0.1222 -0.1744
   58MOL   C20516279   3.301   7.010   4.713  0.0008  0.0244  0.2088
   58MOL   H20616280   3.555   7.230   4.653  0.3194 -2.5468 -2.5017
   58MOL   H20716281   3.351   7.391   4.652  1.0808  0.7538 -0.5579
   58MOL   H20816282   3.134   7.425   4.647 -0.5469  0.8450 -1.8977
   58MOL   H20916283   2.948   7.196   4.722  0.9430 -0.7939 -0.8315
   58MOL   H21016284   3.093   7.050   4.677  0.0703 -0.7635  1.5660
   58MOL   H21116285   3.294   6.904   4.733  1.3916  0.0828  1.0644
   58MOL   C21216286   2.862   7.388   4.683 -0.0492 -0.0373 -0.0892
   58MOL   C21316287   2.865   7.508   4.606 -1.0776 -0.7791  0.0359
   58MOL   C21416288   2.751   7.585   4.591  0.1160  0.2620  0.6191
   58MOL   C21516289   2.628   7.549   4.639  0.1676  0.3316 -0.1659
   58MOL   C21616290   2.506   7.630   4.610 -0.0017  0.5639  0.3543
   58MOL   C21716291   2.377   7.596   4.632  0.0834 -0.0059 -0.3395
   58MOL   C21816292   2.619   7.427   4.704 -0.3512 -0.0073 -0.6046
   58MOL   C21916293   2.734   7.350   4.731  0.7340 -0.5332  0.3587
   58MOL   H22016294   2.965   7.536   4.580 -0.4198 -1.0545  2.1431
   58MOL   H22116295   2.765   7.675   4.534  0.2328 -0.7586 -0.9897
   58MOL   H22216296   2.529   7.721   4.557  1.5801 -0.8780 -1.5305
   58MOL   H22316297   2.358   7.501   4.680 -1.1337  0.6669  0.5330
   58MOL   H22416298   2.525   7.399   4.749  1.2619 -2.0117  1.6732
   58MOL   H22516299   2.727   7.256   4.782  1.8878 -0.0363  1.4501
   58MOL   C22616300   2.265   7.677   4.598 -0.7353 -0.1344 -0.7532
   58MOL   C22716301   2.133   7.627   4.613 -0.0337 -0.3294  0.0498
   58MOL   C22816302   2.023   7.697   4.568 -0.2106 -0.1421 -0.3862
   58MOL   C22916303   2.034   7.827   4.516  0.1830 -0.1681 -0.8064
   58MOL   C23016304   1.929   7.907   4.468  0.4519  0.8482 -0.0423
   58MOL   C23116305   1.809   7.858   4.444  0.0466 -0.4862  0.0178
   58MOL   C23216306   2.165   7.878   4.502 -0.1414  0.0241  1.0216
   58MOL   C23316307   2.279   7.804   4.537  0.6637 -0.1168  0.3159
   58MOL   H23416308   2.108   7.531   4.657 -1.4510  0.1915  0.4279
   58MOL   H23516309   1.926   7.649   4.571  0.1894 -0.9227  0.1350
   58MOL   H23616310   1.942   8.014   4.460 -0.2640  0.8867 -0.7964
   58MOL   H23716311   1.788   7.753   4.454 -2.7970 -0.0864 -1.4089
   58MOL   H23816312   2.180   7.969   4.446  2.2861 -1.3456 -0.6257
   58MOL   H23916313   2.375   7.847   4.513  0.0817  0.1933 -1.5801
   58MOL   C24016314   1.690   7.934   4.397 -0.7494  0.1784 -0.1439
   58MOL   C24116315   1.707   8.069   4.352 -0.3076 -0.5143  0.2331
   58MOL   C24216316   1.594   8.144   4.307 -0.1706 -0.0645 -0.4656
   58MOL   C24316317   1.473   8.080   4.292  0.9341 -0.2611 -0.0503
   58MOL   C24416318   1.370   0.013   4.230 -0.1885 -0.8435 -0.0991
   58MOL   C24516319   1.260   8.110   4.160 -0.4411  0.8725  0.0101
   58MOL   C24616320   1.457   7.942   4.323  0.4387 -0.0661  0.8770
   58MOL   C24716321   1.566   7.871   4.382 -0.1650  0.4750  0.5010
   58MOL   H24816322   1.803   8.119   4.350 -1.3688  1.6620  2.5574
   58MOL   H24916323   1.606   0.106   4.291  2.0389  0.1009  2.0639
   58MOL   H25016324   1.377   0.118   4.250 -3.9353 -0.1353 -2.0253
   58MOL   H25116325   1.251   8.004   4.141  2.4017  0.8375 -1.4527
   58MOL   H25216326   1.369   7.884   4.299  0.9607 -0.3514 -0.3867
   58MOL   H25316327   1.563   7.764   4.397  0.8765  0.1462 -1.5276
   58MOL   C25416328   1.164   0.047   4.087  0.5274  0.1384 -0.2255
   58MOL   C25516329   1.047   8.132   4.035 -0.3344 -0.4110  0.2867
   58MOL   C25616330   0.964   0.060   3.947  0.0422 -0.1813 -0.9446
   58MOL   C25716331   0.990   0.191   3.913  0.2657 -0.1527  0.7097
   58MOL   C25816332   0.895   0.263   3.824 -0.0669  0.3461  0.5079
   58MOL   C25916333   0.912   0.368   3.740 -0.2185 -0.1567  0.2963
   58MOL   C26016334   1.106   0.251   3.966  0.0736  0.2927  0.0213
   58MOL   C26116335   1.187   0.182   4.059  0.7346 -0.3617 -0.2006
   58MOL   H26216336   1.031   8.026   4.048 -0.4171 -0.5808 -1.1485
   58MOL   H26316337   0.873   0.008   3.922 -0.2740  0.4643 -1.1477
   58MOL   H26416338   0.793   0.232   3.837  0.0018  0.4378  1.2380
   58MOL   H26516339   0.821   0.415   3.707 -0.5015 -1.4054 -0.7378
   58MOL   H26616340   1.129   0.354   3.942  1.5966 -0.6076 -2.6217
   58MOL   H26716341   1.270   0.237   4.101  0.4841 -1.3209  1.6057
   58MOL   C26816342   1.045   0.426   3.696 -0.1041 -0.2126  0.4998
   58MOL   C26916343   1.156   0.345   3.663 -0.2731  0.0643 -0.0242
   58MOL   C27016344   1.282   0.404   3.628  0.4544 -0.4063  0.1999
   58MOL   C27116345   1.294   0.540   3.624  0.1895  0.0338  0.4509
   58MOL   C27216346   1.429   0.588   3.576  0.0721  0.4775 -0.1467
   58MOL   C27316347   1.475   0.715   3.567 -0.1301  0.2769 -0.1499
   58MOL   C27416348   1.186   0.621   3.648 -0.1891 -0.1653  0.0209
   58MOL   C27516349   1.062   0.566   3.693  0.0668 -0.6433  0.8266
   58MOL   H27616350   1.149   0.239   3.682 -2.8474  0.3405  0.7559
   58MOL   H27716351   1.362   0.335   3.603 -0.9217 -1.1153 -2.4202
   58MOL   H27816352   1.491   0.508   3.537  0.2176 -0.0532  1.1419
   58MOL   H27916353   1.417   0.798   3.605 -0.5852  1.6792 -3.7642
   58MOL   H28016354   1.197   0.729   3.643 -0.9709 -0.0055  1.4899
   58MOL   H28116355   0.989   0.641   3.721  0.3345  0.4344 -1.2418
   58MOL   H28216356   1.571   0.729   3.518  0.5699  1.1054  1.3859
   59MOL     C116357   6.590   3.749   4.567 -0.2597 -0.4256 -0.7522
   59MOL     C216358   6.506   3.696   4.468  0.5245 -0.4852  0.1720
   59MOL     C316359   6.375   3.749   4.454  0.5250  0.0509 -1.0524
   59MOL     C416360   6.321   3.836   4.556 -0.8044  0.2597  0.3976
   59MOL     C516361   6.182   3.884   4.564 -0.3931  0.0877 -0.0209
   59MOL     C616362   6.085   3.832   4.486 -0.5073  0.5925  0.7566
   59MOL     C716363   6.403   3.885   4.659  0.2599  0.1360  0.4683
   59MOL     C816364   6.543   3.844   4.660 -0.8851  0.3816  0.0085
   59MOL     H916365   6.547   3.638   4.387  0.1139  1.4330 -1.4765
   59MOL    H1016366   6.327   3.700   4.370 -0.7498 -1.0638  0.3064
   59MOL    H1116367   6.151   3.961   4.633  0.3027  1.4488 -1.1896
   59MOL    H1216368   6.112   3.745   4.428 -1.2091 -1.1887  3.0280
   59MOL    H1316369   6.361   3.949   4.735 -3.2851 -0.4933 -0.8778
   59MOL    H1416370   6.614   3.891   4.727  1.2427 -0.1900 -1.8114
   59MOL    H1516371   6.693   3.717   4.564 -0.0309  0.3407 -1.3107
   59MOL    C1616372   5.944   3.874   4.477  0.2376 -0.0621 -0.4105
   59MOL    C1716373   5.863   3.799   4.388  0.4894 -0.4629  0.3230
   59MOL    C1816374   5.726   3.820   4.384  0.8406  0.4669  0.2455
   59MOL    C1916375   5.662   3.916   4.457  0.0949 -0.3947 -0.3025
   59MOL    C2016376   5.513   3.931   4.435 -0.9027 -0.0350  0.3054
   59MOL    C2116377   5.431   4.024   4.490  0.3772 -0.0732 -0.3311
   59MOL    C2216378   5.743   3.992   4.541  0.3285 -0.2324 -0.4155
   59MOL    C2316379   5.881   3.974   4.557  0.4870  0.6081 -0.5345
   59MOL    H2416380   5.911   3.714   4.343 -1.6082 -1.4535 -0.1292
   59MOL    H2516381   5.663   3.749   4.333  0.7617 -0.4448  1.5920
   59MOL    H2616382   5.478   3.850   4.372 -1.6478 -0.7987  1.6663
   59MOL    H2716383   5.487   4.101   4.541  2.1042  0.0793 -2.3543
   59MOL    H2816384   5.698   4.076   4.590  0.1994  1.8031 -3.8211
   59MOL    H2916385   5.940   4.037   4.621  0.4395 -0.1997  0.3190
   59MOL    C3016386   5.289   4.040   4.468  0.4875  0.8125  0.5586
   59MOL    C3116387   5.220   4.141   4.535  0.5254  0.1231 -0.3163
   59MOL    C3216388   5.084   4.164   4.507 -0.6373 -0.7543  0.4064
   59MOL    C3316389   5.022   4.083   4.409  0.5449 -0.2796  0.3552
   59MOL    C3416390   4.876   4.085   4.384  0.2001 -0.7518  0.1750
   59MOL    C3516391   4.775   4.119   4.475 -0.5917 -0.5631 -0.6730
   59MOL    C3616392   5.090   3.983   4.345 -0.2190 -0.1213 -0.0693
   59MOL    C3716393   5.224   3.956   4.380 -0.0084  0.0117 -0.5743
   59MOL    H3816394   5.263   4.203   4.613  0.3926 -1.1814  0.8037
   59MOL    H3916395   5.032   4.249   4.549 -0.1990 -0.3885  0.2203
   59MOL    H4016396   4.850   4.064   4.282 -0.9148  0.3944  0.2129
   59MOL    H4116397   4.807   4.161   4.569  2.2664  1.8564 -2.6477
   59MOL    H4216398   5.040   3.922   4.272  1.1801 -1.2074 -0.1582
   59MOL    H4316399   5.275   3.879   4.325  1.1319  0.6216 -0.3872
   59MOL    C4416400   4.635   4.109   4.446  0.4416  0.3104  0.5044
   59MOL    C4516401   4.584   4.059   4.324 -0.0217 -0.1016 -0.5717
   59MOL    C4616402   4.447   4.060   4.298  0.6841  0.3040  0.4301
   59MOL    C4716403   4.347   4.100   4.393 -0.0755  0.2925 -0.5196
   59MOL    C4816404   4.201   4.105   4.360 -0.0941  0.1838  0.5247
   59MOL    C4916405   4.090   4.122   4.444 -0.6208  0.2947  0.6853
   59MOL    C5016406   4.392   4.144   4.515  0.3180 -0.1109 -0.5059
   59MOL    C5116407   4.535   4.150   4.534 -0.2164 -0.4202 -0.3509
   59MOL    H5216408   4.656   4.021   4.252  0.0459 -0.4363 -0.3262
   59MOL    H5316409   4.417   4.039   4.196 -1.0993  1.2671  0.7390
   59MOL    H5416410   4.179   4.084   4.256  1.0220 -0.3910  0.3972
   59MOL    H5516411   4.113   4.132   4.549  0.3421 -3.6012  0.9413
   59MOL    H5616412   4.328   4.170   4.597  0.1470  0.0642 -0.6938
   59MOL    H5716413   4.566   4.173   4.634 -3.2250  0.2427  0.4950
   59MOL    C5816414   3.954   4.124   4.411  0.0002 -0.2705 -0.2239
   59MOL    C5916415   3.907   4.146   4.280 -0.1190  0.4084  0.4946
   59MOL    C6016416   3.768   4.153   4.254  0.2324  0.2630 -0.4680
   59MOL    C6116417   3.673   4.139   4.357  0.1380  0.6736 -0.3174
   59MOL    C6216418   3.531   4.167   4.327 -0.1599  0.1485 -0.5697
   59MOL    C6316419   3.430   4.183   4.413 -0.5564 -0.3243  0.1952
   59MOL    C6416420   3.719   4.106   4.487 -0.3428 -0.6440 -0.2873
   59MOL    C6516421   3.858   4.093   4.514  0.8120 -0.7999 -0.3204
   59MOL    H6616422   3.978   4.155   4.199 -0.1213 -0.4027  0.4015
   59MOL    H6716423   3.734   4.166   4.153  0.2197  0.0133 -0.4951
   59MOL    H6816424   3.519   4.166   4.220  0.1384 -0.0991 -0.6009
   59MOL    H6916425   3.448   4.177   4.520  3.6651  2.7582 -0.2276
   59MOL    H7016426   3.647   4.096   4.567  0.0901  0.2215  0.2208
   59MOL    H7116427   3.888   4.075   4.616  1.8600 -0.5726 -0.5843
   59MOL    C7216428   3.291   4.204   4.372 -0.6237  0.5533 -0.0152
   59MOL    C7316429   3.187   4.226   4.469  0.3630  0.4470 -0.3443
   59MOL    C7416430   3.057   4.255   4.425 -1.0538  0.1517  0.0414
   59MOL    C7516431   3.030   4.279   4.290  0.3610 -0.3887 -0.2517
   59MOL    C7616432   2.891   4.306   4.238 -0.9629  0.0248 -0.5840
   59MOL    C7716433   2.780   4.322   4.313  0.8330 -0.1419  0.4736
   59MOL    C7816434   3.128   4.259   4.191  0.0823 -0.5393  0.3767
   59MOL    C7916435   3.260   4.228   4.234  0.1942 -0.3360  0.3207
   59MOL    H8016436   3.208   4.211   4.574  1.9383  0.0090 -0.7055
   59MOL    H8116437   2.977   4.277   4.494 -1.4666 -1.6044  0.1383
   59MOL    H8216438   2.891   4.310   4.130 -1.3114  0.2103 -0.5783
   59MOL    H8316439   2.783   4.328   4.421  1.2905  1.5110  0.3836
   59MOL    H8416440   3.121   4.283   4.086  1.8667  0.5124  0.4751
   59MOL    H8516441   3.331   4.224   4.153 -0.4652 -1.0571 -0.2254
   59MOL    C8616442   2.647   4.339   4.251 -0.3667 -0.1134 -0.6401
   59MOL    C8716443   2.535   4.337   4.336 -0.2058 -0.5431  0.4630
   59MOL    C8816444   2.405   4.346   4.287 -0.1124  0.9277  0.6121
   59MOL    C8916445   2.385   4.352   4.149 -0.2319 -0.6829 -0.3308
   59MOL    C9016446   2.249   4.359   4.108 -0.4835  0.0448  0.0468
   59MOL    C9116447   2.206   4.392   3.987  0.0721 -0.5348 -0.8751
   59MOL    C9216448   2.488   4.349   4.055 -0.1055 -0.6665 -0.1968
   59MOL    C9316449   2.620   4.350   4.110  0.6896 -0.4889  0.1932
   59MOL    H9416450   2.549   4.319   4.442 -0.3109 -0.3956  0.5008
   59MOL    H9516451   2.318   4.355   4.351 -3.0802 -1.3444 -2.8582
   59MOL    H9616452   2.173   4.343   4.182  0.6254 -2.1965  0.7268
   59MOL    H9716453   2.282   4.409   3.913  0.6582 -2.2312 -0.6881
   59MOL    H9816454   2.474   4.358   3.948 -2.0452 -2.3948 -0.1173
   59MOL    H9916455   2.701   4.336   4.040  0.6708  1.0200 -0.1376
   59MOL   C10016456   2.070   4.411   3.944 -0.3410  0.2093  0.9691
   59MOL   C10116457   2.058   4.431   3.806  0.0001 -0.1702 -0.1137
   59MOL   C10216458   1.932   4.446   3.754 -0.0944  0.5531  0.2441
   59MOL   C10316459   1.819   4.453   3.835 -0.2098  0.0078 -0.5420
   59MOL   C10416460   1.679   4.469   3.787  0.0563 -0.2244 -0.3138
   59MOL   C10516461   1.645   4.461   3.659  0.1719  0.3050  0.2514
   59MOL   C10616462   1.833   4.428   3.973  0.8912  0.2894 -0.4308
   59MOL   C10716463   1.958   4.403   4.029 -0.1111  0.3689  0.3782
   59MOL   H10816464   2.141   4.446   3.739 -1.2331  0.4344 -1.5489
   59MOL   H10916465   1.921   4.471   3.649 -1.3823  0.8128  0.4323
   59MOL   H11016466   1.600   4.487   3.858 -1.3222 -3.1492 -1.0240
   59MOL   H11116467   1.716   4.439   3.581 -0.4506  2.8822 -1.1120
   59MOL   H11216468   1.748   4.431   4.039  0.5773 -3.2790 -0.5908
   59MOL   H11316469   1.971   4.388   4.135 -1.6475  0.6800  0.6198
   59MOL   C11416470   1.509   4.481   3.602 -0.8205  0.3576  0.0753
   59MOL   C11516471   1.487   4.459   3.468  0.2051 -0.2451 -0.7554
   59MOL   C11616472   1.358   4.474   3.415  0.0696 -0.2588  0.5029
   59MOL   C11716473   1.252   4.536   3.490 -0.7422  0.1372  0.8066
   59MOL   C11816474   1.119   4.559   3.434 -0.5726 -0.0014 -0.0257
   59MOL   C11916475   1.072   4.545   3.311  0.2906  0.4318  0.4334
   59MOL   C12016476   1.280   4.580   3.619  0.3189  0.0982  0.1684
   59MOL   C12116477   1.406   4.545   3.675  0.3083  0.4830 -0.3213
   59MOL   H12216478   1.560   4.410   3.405  1.7950  1.1349 -0.0232
   59MOL   H12316479   1.343   4.436   3.315  0.6900 -1.9987  1.0535
   59MOL   H12416480   1.051   4.591   3.512 -1.3720  1.1899 -1.1866
   59MOL   H12516481   1.142   4.515   3.234 -0.4924  2.7876 -1.2656
   59MOL   H12616482   1.207   4.633   3.678  0.1693 -1.1814  1.1389
   59MOL   H12716483   1.429   4.578   3.775  0.0093 -0.4037  0.0438
   59MOL   C12816484   0.932   4.560   3.268 -0.2673 -0.4192  0.4822
   59MOL   C12916485   0.848   4.649   3.336 -0.0800  0.6036 -0.0761
   59MOL   C13016486   0.718   4.667   3.292 -0.8190 -0.1526 -0.4668
   59MOL   C13116487   0.671   4.600   3.178  0.4129  0.4258  0.2206
   59MOL   C13216488   0.531   4.618   3.132  0.2875  0.4040 -0.2248
   59MOL   C13316489   0.475   4.557   3.027 -0.4733 -0.2322  0.4147
   59MOL   C13416490   0.760   4.517   3.108  0.8311 -0.0125 -0.1885
   59MOL   C13516491   0.885   4.486   3.158  0.7666 -0.2568  0.1037
   59MOL   H13616492   0.882   4.698   3.426  0.9924  0.9128 -0.6355
   59MOL   H13716493   0.641   4.726   3.340 -0.9033 -1.9085  1.5949
   59MOL   H13816494   0.476   4.680   3.201  0.4666 -2.1687  2.3357
   59MOL   H13916495   0.533   4.495   2.960  1.3538  0.4965  1.2978
   59MOL   H14016496   0.731   4.477   3.012 -1.3216  1.2941 -0.1342
   59MOL   H14116497   0.945   4.424   3.093  0.5640 -0.4163  0.0675
   59MOL   C14216498   0.335   4.577   2.991  0.4639 -0.2763 -0.2555
   59MOL   C14316499   0.285   4.515   2.879 -0.2153  1.0116  0.0219
   59MOL   C14416500   0.156   4.549   2.829  0.1916  0.0787  0.0882
   59MOL   C14516501   0.073   4.639   2.893 -0.2801  0.2826 -0.4498
   59MOL   C14616502   8.087   4.677   2.831  0.4780 -0.6011  0.2394
   59MOL   C14716503   7.989   4.753   2.887  0.8787 -0.3374 -0.2882
   59MOL   C14816504   0.120   4.705   3.009 -0.1267  0.3704 -0.4430
   59MOL   C14916505   0.249   4.670   3.059 -0.3043 -0.3212 -0.7364
   59MOL   H15016506   0.351   4.454   2.819 -0.9790  1.2527 -1.0802
   59MOL   H15116507   0.124   4.497   2.740 -0.2379 -1.2549  0.9923
   59MOL   H15216508   8.074   4.643   2.730 -0.0127 -0.3316  0.2081
   59MOL   H15316509   8.009   4.805   2.980 -0.5951  0.6866 -0.5232
   59MOL   H15416510   0.071   4.782   3.067 -0.3742  1.2637 -1.8399
   59MOL   H15516511   0.285   4.729   3.141 -1.7177 -0.0721 -0.2703
   59MOL   C15616512   7.868   4.792   2.819 -0.2533 -0.0576 -0.4484
   59MOL   C15716513   7.775   4.876   2.887 -0.1414  0.6575  0.0599
   59MOL   C15816514   7.646   4.912   2.831  0.0566  0.0388  0.4459
   59MOL   C15916515   7.609   4.864   2.706  0.2748 -0.0201 -0.8021
   59MOL   C16016516   7.477   4.910   2.645 -0.0712  0.2018  0.2578
   59MOL   C16116517   7.455   4.916   2.513  0.1082  0.1888 -0.1879
   59MOL   C16216518   7.699   4.780   2.642  0.1616 -0.3414  0.6039
   59MOL   C16316519   7.824   4.741   2.695 -0.0792  0.1020 -0.4838
   59MOL   H16416520   7.787   4.909   2.989  3.7946  2.2310 -0.8531
   59MOL   H16516521   7.571   4.966   2.888  0.4253 -1.0394  1.9987
   59MOL   H16616522   7.404   4.938   2.719  0.6249  0.4475  0.8596
   59MOL   H16716523   7.537   4.887   2.448  1.0443  0.7476  0.7244
   59MOL   H16816524   7.683   4.737   2.544 -0.2849 -0.6779  0.8188
   59MOL   H16916525   7.877   4.674   2.630 -0.9117 -0.1700 -0.8937
   59MOL   C17016526   7.330   4.962   2.447  0.4667 -0.0487  0.0448
   59MOL   C17116527   7.207   4.986   2.515  0.0057  0.1217  0.3527
   59MOL   C17216528   7.099   5.030   2.441 -0.1034  0.3691  0.4433
   59MOL   C17316529   7.104   5.034   2.299 -0.5394  0.5133 -0.2457
   59MOL   C17416530   6.987   5.079   2.222  0.3963  0.0526  0.0804
   59MOL   C17516531   6.867   5.105   2.276 -0.3408 -0.0394 -0.2164
   59MOL   C17616532   7.221   4.998   2.231  0.0194  0.6672 -0.3400
   59MOL   C17716533   7.330   4.956   2.305 -0.0589  0.8615 -0.3144
   59MOL   H17816534   7.196   4.972   2.621 -0.1946  0.7937  0.4201
   59MOL   H17916535   7.013   5.057   2.501 -0.0386 -1.9088  1.6352
   59MOL   H18016536   6.993   5.089   2.115  0.5192  0.1666  0.0974
   59MOL   H18116537   6.858   5.084   2.381  4.3364  3.7440  1.1025
   59MOL   H18216538   7.231   5.014   2.125 -0.0838  2.7209 -0.0592
   59MOL   H18316539   7.415   4.919   2.251 -0.2803 -0.6728  0.3418
   59MOL   C18416540   6.750   5.147   2.202  0.0914 -0.7842 -0.1814
   59MOL   C18516541   6.763   5.246   2.102  0.0576  0.4628  0.5505
   59MOL   C18616542   6.651   5.301   2.038 -0.2030 -0.2799 -0.1944
   59MOL   C18716543   6.521   5.246   2.069  0.3376 -0.0741  0.0826
   59MOL   C18816544   6.400   5.308   2.009 -0.7770  0.0363  0.3349
   59MOL   C18916545   6.276   5.296   2.060 -0.2331  0.1903  0.3245
   59MOL   C19016546   6.512   5.136   2.159 -0.2254  0.6687 -0.4072
   59MOL   C19116547   6.622   5.100   2.234 -0.4642  0.8867 -0.1554
   59MOL   H19216548   6.860   5.290   2.084  0.3787 -0.9500 -1.3703
   59MOL   H19316549   6.663   5.376   1.961  0.6632 -0.5282 -0.2943
   59MOL   H19416550   6.423   5.366   1.920 -1.8659  1.3018  0.8582
   59MOL   H19516551   6.268   5.248   2.157  0.9275 -0.1679  0.2417
   59MOL   H19616552   6.420   5.091   2.192 -0.3044  1.0162 -0.1659
   59MOL   H19716553   6.605   5.033   2.317 -2.4514  3.6736  1.7841
   59MOL   C19816554   6.153   5.341   1.998  0.2870 -0.6107 -0.1110
   59MOL   C19916555   6.144   5.410   1.869 -0.2880  0.3801  0.8813
   59MOL   C20016556   6.029   5.477   1.836 -0.2150  0.1327  0.0370
   59MOL   C20116557   5.910   5.472   1.911  0.0077  0.5780 -0.1837
   59MOL   C20216558   5.781   5.521   1.864 -0.0537  0.2700 -0.0235
   59MOL   C20316559   5.662   5.509   1.927 -0.3601 -0.4718  0.3061
   59MOL   C20416560   5.915   5.406   2.039 -0.3026  0.0470  0.4272
   59MOL   C20516561   6.032   5.336   2.079 -0.0239  0.5803 -0.4783
   59MOL   H20616562   6.236   5.417   1.814 -0.7106  2.1991  0.3822
   59MOL   H20716563   6.027   5.516   1.736  0.9224  0.3134  0.0871
   59MOL   H20816564   5.789   5.564   1.766 -0.0941  0.3697  0.0174
   59MOL   H20916565   5.655   5.448   2.016 -2.0267 -2.3274 -1.0463
   59MOL   H21016566   5.825   5.400   2.098 -1.7161  1.2044 -1.5417
   59MOL   H21116567   6.026   5.279   2.171  3.1594 -0.4784 -0.8621
   59MOL   C21216568   5.542   5.576   1.883 -0.9005  0.1348 -0.0403
   59MOL   C21316569   5.525   5.638   1.760  0.1646 -0.3690  0.1358
   59MOL   C21416570   5.398   5.699   1.725  0.2873  0.3299  0.1246
   59MOL   C21516571   5.285   5.692   1.809  0.1489  0.3685 -0.0706
   59MOL   C21616572   5.147   5.749   1.775  0.1510  0.1701 -1.1525
   59MOL   C21716573   5.039   5.739   1.849  0.0358 -0.1268 -0.5437
   59MOL   C21816574   5.303   5.626   1.929  0.2381  0.0263  0.0736
   59MOL   C21916575   5.435   5.579   1.976 -0.0429 -0.4461 -0.6530
   59MOL   H22016576   5.614   5.647   1.700  0.8305 -1.5854  0.9258
   59MOL   H22116577   5.393   5.739   1.625  2.7241 -1.1074 -0.6126
   59MOL   H22216578   5.144   5.802   1.681  2.3495  0.4208 -1.1258
   59MOL   H22316579   5.052   5.688   1.944 -0.2215  1.1290  0.1787
   59MOL   H22416580   5.224   5.619   2.003  1.1508 -1.1001  0.9616
   59MOL   H22516581   5.443   5.536   2.075  3.4336  0.6490 -0.3947
   59MOL   C22616582   4.906   5.801   1.819  0.5397 -0.4065 -0.0292
   59MOL   C22716583   4.902   5.914   1.732  0.5318 -0.3086 -0.2420
   59MOL   C22816584   4.782   5.982   1.720  0.2719  0.6819 -0.0612
   59MOL   C22916585   4.665   5.923   1.776  0.1182  0.1637 -0.3202
   59MOL   C23016586   4.546   6.007   1.778 -0.0136 -0.5190  0.2885
   59MOL   C23116587   4.424   5.983   1.826  0.0701 -1.2037 -0.0438
   59MOL   C23216588   4.669   5.807   1.853 -0.0574 -0.0183 -0.3284
   59MOL   C23316589   4.794   5.741   1.877  0.0362 -0.0792 -0.2151
   59MOL   H23416590   4.990   5.958   1.688 -0.1792 -0.9137 -2.3065
   59MOL   H23516591   4.783   6.080   1.675 -0.3817  1.4824  1.6289
   59MOL   H23616592   4.565   6.099   1.725 -0.6976 -0.8495 -0.5469
   59MOL   H23716593   4.402   5.886   1.869 -1.4409 -0.4507  0.9094
   59MOL   H23816594   4.579   5.771   1.901 -0.0512 -1.7637 -1.5407
   59MOL   H23916595   4.804   5.661   1.949 -2.8700  0.1425  0.4827
   59MOL   C24016596   4.317   6.076   1.807  0.0421  0.1342  0.8284
   59MOL   C24116597   4.202   6.052   1.888  0.2179 -0.5046  0.7858
   59MOL   C24216598   4.096   6.149   1.892 -0.0959  0.6454 -0.3848
   59MOL   C24316599   4.095   6.255   1.801 -0.4824 -0.2740  1.0694
   59MOL   C24416600   3.994   6.355   1.793  0.2635 -0.9836  0.3858
   59MOL   C24516601   3.866   6.352   1.829 -0.8749  0.0704  0.0222
   59MOL   C24616602   4.204   6.268   1.712  0.2122 -0.2278 -0.2089
   59MOL   C24716603   4.321   6.181   1.719  0.1311  0.3772 -0.1997
   59MOL   H24816604   4.204   5.982   1.970 -1.3580  0.7249  1.9183
   59MOL   H24916605   4.019   6.133   1.966  0.4151 -5.9609 -0.9706
   59MOL   H25016606   4.025   6.450   1.751  0.9845 -1.4294 -0.1009
   59MOL   H25116607   3.812   6.267   1.868  1.1758 -0.1195  2.5896
   59MOL   H25216608   4.208   6.355   1.649  0.4649  0.3933  0.6520
   59MOL   H25316609   4.402   6.200   1.650  2.0679  1.6375  2.3169
   59MOL   C25416610   3.779   6.472   1.819 -1.2266 -0.2350 -0.3772
   59MOL   C25516611   3.644   6.445   1.809 -0.5891  0.4762 -0.5849
   59MOL   C25616612   3.559   6.549   1.772 -0.2446  0.1127 -0.5260
   59MOL   C25716613   3.603   6.675   1.737 -0.2047 -0.6206  0.0532
   59MOL   C25816614   3.507   6.770   1.675 -0.6161 -0.2843 -0.6994
   59MOL   C25916615   3.506   6.837   1.562  0.7767  0.4744  0.0102
   59MOL   C26016616   3.736   6.707   1.760  0.1526  0.0188  0.0240
   59MOL   C26116617   3.824   6.605   1.800  0.5070  0.6550  0.2213
   59MOL   H26216618   3.608   6.346   1.832  0.4924  0.0451 -0.7525
   59MOL   H26316619   3.453   6.530   1.771 -0.5431  1.4856  1.0089
   59MOL   H26416620   3.423   6.793   1.739 -0.0640  0.4450 -0.2238
   59MOL   H26516621   3.419   6.899   1.552  2.0332  1.9682 -1.9885
   59MOL   H26616622   3.766   6.806   1.729 -0.0804 -0.7266 -2.6983
   59MOL   H26716623   3.927   6.635   1.816  0.7338 -0.6932  1.3623
   59MOL   C26816624   3.598   6.850   1.452 -0.6947  0.5312 -0.0399
   59MOL   C26916625   3.587   6.970   1.375  0.0952  0.4165 -0.5506
   59MOL   C27016626   3.683   6.998   1.278  0.8099  0.1013 -0.0168
   59MOL   C27116627   3.784   6.908   1.251  0.4527 -0.1878 -0.4730
   59MOL   C27216628   3.883   6.957   1.135 -0.2217 -0.0589 -0.2763
   59MOL   C27316629   3.996   6.889   1.104 -0.4388 -0.5146 -0.1803
   59MOL   C27416630   3.798   6.794   1.327 -0.1448 -0.7453 -0.2077
   59MOL   C27516631   3.707   6.767   1.431  0.7783  0.2377 -0.1788
   59MOL   H27616632   3.503   7.034   1.400  0.3623 -0.0641  1.7356
   59MOL   H27716633   3.662   7.091   1.228 -0.6645  0.3002  0.9465
   59MOL   H27816634   3.853   7.043   1.077 -3.0278 -0.2066  0.8818
   59MOL   H27916635   4.037   6.803   1.155  0.4229  0.9579  1.6887
   59MOL   H28016636   3.881   6.726   1.312  1.9493  1.2161  1.9596
   59MOL   H28116637   3.735   6.684   1.494  3.7075  0.1577 -1.4944
   59MOL   H28216638   4.058   6.919   1.022 -0.0383  1.5931  0.8395
   60MOL     C116639   5.791   4.744   5.970 -0.0657 -0.1993 -0.2242
   60MOL     C216640   5.857   4.795   5.860  0.3832  0.2361  0.4633
   60MOL     C316641   5.799   4.894   5.774  0.4057  0.1308  0.2400
   60MOL     C416642   5.663   4.928   5.792 -0.2176 -0.0409  0.7676
   60MOL     C516643   5.603   5.010   5.691 -0.9994  0.3199 -0.4485
   60MOL     C616644   5.474   5.042   5.676 -0.5292  0.1619  0.0117
   60MOL     C716645   5.594   4.873   5.906 -0.0204  0.0345  0.1307
   60MOL     C816646   5.658   4.784   5.996  0.2798  0.5220  0.1490
   60MOL     H916647   5.954   4.754   5.832 -1.1561 -1.4857 -2.6543
   60MOL    H1016648   5.861   4.936   5.696  2.1531  0.0203  1.5382
   60MOL    H1116649   5.670   5.047   5.615 -0.3914  1.1541  0.4856
   60MOL    H1216650   5.401   4.996   5.740 -0.3726 -1.9254 -1.2667
   60MOL    H1316651   5.493   4.905   5.924  0.1776  0.5795  0.2652
   60MOL    H1416652   5.620   4.758   6.094  1.4847 -0.5853  0.3252
   60MOL    H1516653   5.843   4.680   6.039  0.5507 -0.6165 -1.0613
   60MOL    C1616654   5.416   5.126   5.573 -0.4251 -0.8290  0.2957
   60MOL    C1716655   5.277   5.123   5.557 -0.3242 -0.5743 -0.1676
   60MOL    C1816656   5.212   5.196   5.457  0.2026 -0.3244 -0.5833
   60MOL    C1916657   5.286   5.277   5.371 -0.8034 -0.6072  0.0107
   60MOL    C2016658   5.218   5.357   5.269  0.7803  0.9434  0.4030
   60MOL    C2116659   5.260   5.455   5.190  0.2915 -0.0212 -0.2759
   60MOL    C2216660   5.428   5.288   5.389  0.0570  0.8018 -0.1205
   60MOL    C2316661   5.493   5.203   5.483  0.1348 -0.1851  0.2460
   60MOL    H2416662   5.217   5.053   5.612 -0.8102  0.2986  0.4211
   60MOL    H2516663   5.105   5.182   5.450  0.4543 -1.0959 -3.7008
   60MOL    H2616664   5.111   5.339   5.262  0.6994  1.2724  0.7480
   60MOL    H2716665   5.364   5.479   5.210 -0.4569  2.9218  0.3756
   60MOL    H2816666   5.487   5.357   5.331 -1.4340  2.3300  0.1182
   60MOL    H2916667   5.601   5.204   5.475  0.2131 -0.2591  1.2060
   60MOL    C3016668   5.194   5.542   5.096  0.2209  0.1521  0.0448
   60MOL    C3116669   5.253   5.663   5.062 -0.5121  0.2965  0.0207
   60MOL    C3216670   5.187   5.765   4.979  0.1099  0.4600 -0.1126
   60MOL    C3316671   5.063   5.732   4.920  0.1885 -0.3829  0.8498
   60MOL    C3416672   4.987   5.835   4.833  0.0818  0.9892 -0.1501
   60MOL    C3516673   5.018   5.962   4.806  0.2562  0.0835 -0.4371
   60MOL    C3616674   5.007   5.609   4.955 -0.1265 -0.1082 -0.4490
   60MOL    C3716675   5.069   5.514   5.040  0.1316 -0.0206  0.2524
   60MOL    H3816676   5.347   5.688   5.108 -0.3948  0.1026 -0.1123
   60MOL    H3916677   5.243   5.857   4.966 -0.4150  0.4259 -2.9844
   60MOL    H4016678   4.891   5.800   4.800  0.0042 -1.8586  2.8776
   60MOL    H4116679   5.109   5.996   4.852  1.3945 -1.2190 -1.6810
   60MOL    H4216680   4.913   5.588   4.906 -0.9203  0.2156  0.9029
   60MOL    H4316681   5.008   5.430   5.068 -0.3347  0.3239  0.2659
   60MOL    C4416682   4.946   6.053   4.714  0.1999 -0.3385 -0.1372
   60MOL    C4516683   4.993   6.185   4.696  0.0571  0.0305  0.5270
   60MOL    C4616684   4.917   6.281   4.623 -0.2292 -0.0240 -0.6167
   60MOL    C4716685   4.797   6.239   4.566  0.6331  0.3077 -0.0388
   60MOL    C4816686   4.728   6.346   4.492  0.6802 -0.1372  0.8438
   60MOL    C4916687   4.627   6.326   4.410 -0.6114  0.2285 -0.3850
   60MOL    C5016688   4.750   6.103   4.572 -0.4429  0.5610  0.4067
   60MOL    C5116689   4.828   6.011   4.644  0.1884  0.7291 -0.7873
   60MOL    H5216690   5.075   6.225   4.754  0.8175  0.3039 -0.7296
   60MOL    H5316691   4.953   6.383   4.615 -0.5348  0.0483 -1.1529
   60MOL    H5416692   4.745   6.452   4.507 -0.8064  0.5240 -1.7757
   60MOL    H5516693   4.607   6.222   4.392  1.2441 -0.4283  1.1232
   60MOL    H5616694   4.664   6.064   4.519  0.9035 -2.4231  0.3090
   60MOL    H5716695   4.801   5.908   4.626  0.0168  0.9370 -1.7626
   60MOL    C5816696   4.542   6.430   4.343  0.0504 -0.4431 -0.4121
   60MOL    C5916697   4.564   6.569   4.347  0.7925  0.6974 -0.1470
   60MOL    C6016698   4.470   6.659   4.295  0.6558  0.6690 -0.2904
   60MOL    C6116699   4.352   6.614   4.228 -1.1522 -0.2575  0.3487
   60MOL    C6216700   4.253   6.719   4.189  0.0857 -0.0980  0.0946
   60MOL    C6316701   4.125   6.705   4.167  0.2615 -0.1883  0.3079
   60MOL    C6416702   4.332   6.476   4.226  0.3473  0.1859 -0.0670
   60MOL    C6516703   4.419   6.386   4.287  0.3722  0.6046 -0.6630
   60MOL    H6616704   4.652   6.610   4.393  1.6545  0.1456 -1.2809
   60MOL    H6716705   4.492   6.760   4.326  4.1257 -0.9231  2.7660
   60MOL    H6816706   4.300   6.815   4.178 -0.9188  0.1438 -2.1846
   60MOL    H6916707   4.083   6.606   4.182 -3.1641  0.7887 -2.1103
   60MOL    H7016708   4.239   6.433   4.191  0.3392  0.1638 -0.0201
   60MOL    H7116709   4.403   6.279   4.284  0.1103  0.6246 -0.0646
   60MOL    C7216710   4.022   6.803   4.118  0.5731  0.0135  0.4820
   60MOL    C7316711   3.890   6.752   4.097 -0.3113  0.5208  0.6419
   60MOL    C7416712   3.789   6.844   4.044 -0.5121 -0.1636  0.3785
   60MOL    C7516713   3.817   6.986   4.028 -0.7154  0.8316  0.1078
   60MOL    C7616714   3.708   7.084   3.990 -0.2267  0.4436 -0.0802
   60MOL    C7716715   3.581   7.049   3.961 -0.1963  0.0520  0.0300
   60MOL    C7816716   3.948   7.027   4.047  0.3480  0.4194  0.2811
   60MOL    C7916717   4.053   6.939   4.092  0.2973  0.1524  0.0873
   60MOL    H8016718   3.858   6.650   4.115  0.3671  0.2144  0.1416
   60MOL    H8116719   3.685   6.820   4.036 -1.2422  2.6432  0.7964
   60MOL    H8216720   3.727   7.189   3.976 -1.1261  0.2230 -3.4132
   60MOL    H8316721   3.553   6.945   3.958 -0.7835  0.2487 -2.5067
   60MOL    H8416722   3.966   7.133   4.055 -1.1547  0.7893 -1.0162
   60MOL    H8516723   4.154   6.975   4.098  0.6390 -0.9081  0.8557
   60MOL    C8616724   3.474   7.142   3.934 -0.1908 -1.0611  0.0196
   60MOL    C8716725   3.347   7.081   3.928  0.6158  0.2004  0.8050
   60MOL    C8816726   3.234   7.162   3.925 -0.2535  0.1145  0.2469
   60MOL    C8916727   3.233   7.302   3.923  0.0617 -0.3447  0.2865
   60MOL    C9016728   3.104   7.378   3.917  0.5055 -0.2800 -1.2493
   60MOL    C9116729   3.104   7.512   3.907 -0.1017  0.6802  0.1130
   60MOL    C9216730   3.361   7.358   3.922 -1.0635  0.9312  0.1237
   60MOL    C9316731   3.484   7.287   3.932  0.2720  0.4540 -0.1897
   60MOL    H9416732   3.339   6.973   3.929  2.1367  0.0750  3.3696
   60MOL    H9516733   3.137   7.115   3.926  1.0178 -2.6388 -1.6295
   60MOL    H9616734   3.013   7.321   3.929 -1.9417  3.3792 -1.6191
   60MOL    H9716735   3.198   7.564   3.896 -0.6406  1.8559  0.9424
   60MOL    H9816736   3.373   7.465   3.924  2.7460  0.5302  1.2137
   60MOL    H9916737   3.574   7.343   3.950  0.9615 -0.4825 -0.6991
   60MOL   C10016738   2.981   7.599   3.908  0.2019  0.4633 -0.2554
   60MOL   C10116739   3.002   7.735   3.891 -0.7337  0.0879 -0.5282
   60MOL   C10216740   2.888   7.817   3.885  0.1447 -0.3919  0.3833
   60MOL   C10316741   2.763   7.777   3.919  0.2302  0.4182 -0.1404
   60MOL   C10416742   2.666   7.884   3.931 -0.1985 -0.1178  0.0019
   60MOL   C10516743   2.542   7.869   3.985  0.3156  0.7905 -0.0447
   60MOL   C10616744   2.742   7.639   3.941 -0.5750 -0.2076  0.0196
   60MOL   C10716745   2.853   7.549   3.943  0.7741 -0.1897  0.2802
   60MOL   H10816746   3.099   7.768   3.859 -0.8477  1.7154  0.7001
   60MOL   H10916747   2.915   7.920   3.864  0.1940 -0.0853  1.8830
   60MOL   H11016748   2.696   7.978   3.889  1.4160 -0.7190 -0.2330
   60MOL   H11116749   2.494   7.784   4.031 -2.2573  2.4732  0.5404
   60MOL   H11216750   2.641   7.611   3.966 -0.2823 -0.1380  1.3360
   60MOL   H11316751   2.837   7.443   3.960 -3.2887  0.5452  1.4302
   60MOL   C11416752   2.447   7.979   3.985  0.0513  0.7786 -0.9952
   60MOL   C11516753   2.475   8.116   3.959  0.2966 -0.0286  0.8227
   60MOL   C11616754   2.393   0.077   4.005  0.0092  0.4146  0.4899
   60MOL   C11716755   2.266   0.048   4.057 -0.0106 -0.4743  0.0438
   60MOL   C11816756   2.190   0.149   4.122  0.3136  1.1961  0.2973
   60MOL   C11916757   2.087   0.126   4.212 -0.3967 -0.2235  0.3678
   60MOL   C12016758   2.224   8.054   4.065 -0.1552  0.4091 -0.0668
   60MOL   C12116759   2.316   7.955   4.033  1.1586 -0.9958  0.3071
   60MOL   H12216760   2.574   8.140   3.923  0.7494 -1.9411  0.7269
   60MOL   H12316761   2.422   0.179   3.983 -1.0816  0.3500 -1.3081
   60MOL   H12416762   2.219   0.251   4.104 -2.0143  1.3864 -2.6763
   60MOL   H12516763   2.051   0.026   4.231 -0.3294 -0.1056  1.1539
   60MOL   H12616764   2.136   8.019   4.116 -0.5541  0.6392 -0.6032
   60MOL   H12716765   2.281   7.855   4.051 -0.5191 -0.4614  0.1078
   60MOL   C12816766   2.021   0.233   4.293  0.2086 -0.3543  0.3559
   60MOL   C12916767   1.970   0.189   4.416 -0.4705 -0.1285 -0.5030
   60MOL   C13016768   1.964   0.281   4.524  0.0581  0.6239  0.2208
   60MOL   C13116769   2.002   0.420   4.506  0.0035  0.6330  0.1087
   60MOL   C13216770   2.015   0.504   4.623  0.8466  0.2517  0.1595
   60MOL   C13316771   2.123   0.583   4.645 -0.2051  0.0460 -0.8446
   60MOL   C13416772   2.049   0.458   4.379  0.4800  0.2310  0.1563
   60MOL   C13516773   2.050   0.368   4.274  0.4573  0.4014  0.0255
   60MOL   H13616774   1.949   0.087   4.443 -2.4750  0.1164 -1.0066
   60MOL   H13716775   1.924   0.250   4.619  0.1082 -2.4320 -0.6778
   60MOL   H13816776   1.937   0.503   4.698  0.6724  1.9218  0.0290
   60MOL   H13916777   2.204   0.591   4.574  1.6776  1.2076  1.3622
   60MOL   H14016778   2.073   0.563   4.368 -3.5975  1.1739 -0.1986
   60MOL   H14116779   2.092   0.390   4.177  1.0844  0.9079  0.4064
   60MOL   C14216780   2.156   0.676   4.760 -0.0812  0.2988 -0.6954
   60MOL   C14316781   2.053   0.754   4.826  0.1197  0.6029  1.0439
   60MOL   C14416782   2.090   0.846   4.930 -0.2544  0.2753 -0.0077
   60MOL   C14516783   2.227   0.858   4.969 -0.1732 -0.3843 -0.5626
   60MOL   C14616784   2.255   0.956   5.072  0.0041 -0.9294  0.0081
   60MOL   C14716785   2.380   1.017   5.081  0.1543 -0.8573 -0.2761
   60MOL   C14816786   2.329   0.787   4.903 -0.3337  0.3690 -1.0494
   60MOL   C14916787   2.296   0.702   4.797 -0.2122  1.0082 -0.7924
   60MOL   H15016788   1.952   0.733   4.795  0.5123  0.6726 -0.3488
   60MOL   H15116789   2.005   0.901   4.966 -0.1845 -0.7147  1.7220
   60MOL   H15216790   2.173   0.979   5.139  0.7150  1.5053  0.1234
   60MOL   H15316791   2.451   0.997   5.002  1.7641  2.6702  0.2126
   60MOL   H15416792   2.431   0.806   4.931 -0.3749  1.1986 -1.4613
   60MOL   H15516793   2.374   0.657   4.739 -0.8668  0.0777 -0.9623
   60MOL   C15616794   2.435   1.122   5.169 -0.4353  0.7261 -0.1067
   60MOL   C15716795   2.353   1.192   5.255  0.4196 -1.0000  0.1900
   60MOL   C15816796   2.408   1.300   5.334  0.7216 -0.5955  0.2234
   60MOL   C15916797   2.549   1.321   5.334  0.8603  0.2483 -0.0349
   60MOL   C16016798   2.627   1.416   5.423  0.5948  0.7062  0.1133
   60MOL   C16116799   2.574   1.502   5.511  0.0474  0.7937  0.3340
   60MOL   C16216800   2.628   1.239   5.253  0.6882 -0.2756  0.5726
   60MOL   C16316801   2.575   1.144   5.164  0.7787 -0.0773  0.3777
   60MOL   H16416802   2.249   1.166   5.261 -0.0712  0.4373 -1.5670
   60MOL   H16516803   2.346   1.358   5.401  2.6073  3.5520 -1.4911
   60MOL   H16616804   2.734   1.415   5.418  0.6021 -1.8634  0.0026
   60MOL   H16716805   2.467   1.499   5.520 -0.2684 -1.4207 -3.3236
   60MOL   H16816806   2.735   1.258   5.254  0.7645 -0.7752  3.3316
   60MOL   H16916807   2.641   1.072   5.118  1.0438 -0.0323  0.6805
   60MOL   C17016808   2.631   1.614   5.595 -0.1019 -0.4113 -0.8093
   60MOL   C17116809   2.548   1.677   5.686  0.0687  0.6419 -0.6317
   60MOL   C17216810   2.591   1.779   5.772 -0.3121 -0.2274 -0.2203
   60MOL   C17316811   2.724   1.825   5.771  0.2146 -0.3539  0.0857
   60MOL   C17416812   2.772   1.920   5.867 -0.3263  0.2653 -0.4364
   60MOL   C17516813   2.895   1.974   5.863 -0.2898  0.2417  0.1757
   60MOL   C17616814   2.806   1.758   5.672  0.0403 -0.0204  0.2224
   60MOL   C17716815   2.763   1.655   5.590 -1.2101  0.6289  1.1714
   60MOL   H17816816   2.443   1.654   5.693  0.2845 -0.3634 -0.5142
   60MOL   H17916817   2.520   1.839   5.827  0.2739  1.5749 -1.3746
   60MOL   H18016818   2.704   1.950   5.945  0.1282  1.7144 -0.5682
   60MOL   H18116819   2.954   1.944   5.778 -0.3749  0.6014 -0.0133
   60MOL   H18216820   2.911   1.772   5.651  1.0557 -2.4712  3.2707
   60MOL   H18316821   2.824   1.603   5.519 -1.8959  2.8518 -1.1356
   60MOL   C18416822   2.959   2.065   5.960 -0.3395 -0.3901  0.3250
   60MOL   C18516823   3.088   2.099   5.922 -0.5291 -0.2537 -0.2462
   60MOL   C18616824   3.152   2.197   6.003 -0.3759  0.0796 -0.5937
   60MOL   C18716825   3.096   2.256   6.119 -0.1512 -0.4280  0.0972
   60MOL   C18816826   3.191   2.348   6.190  1.2026  0.8558 -0.2677
   60MOL   C18916827   3.172   2.391   6.316  0.3357  0.0502 -0.0173
   60MOL   C19016828   2.965   2.216   6.150  0.4511 -0.1627 -0.9804
   60MOL   C19116829   2.897   2.120   6.072  0.2118 -0.3939  0.1014
   60MOL   H19216830   3.135   2.058   5.834 -0.3580 -0.5508 -0.0192
   60MOL   H19316831   3.252   2.231   5.977  0.1084 -0.5747  0.3888
   60MOL   H19416832   3.276   2.378   6.131  0.6671 -0.5174 -1.7939
   60MOL   H19516833   3.084   2.359   6.370 -0.1257  0.0410 -0.7727
   60MOL   H19616834   2.922   2.253   6.242  0.6781  0.9675 -1.3176
   60MOL   H19716835   2.802   2.077   6.100 -0.4173 -0.8289 -2.5417
   60MOL   C19816836   3.258   2.490   6.391 -0.1866  1.3500 -0.3370
   60MOL   C19916837   3.212   2.544   6.514  0.0127 -0.1694  0.4280
   60MOL   C20016838   3.296   2.632   6.584  0.0338 -0.2936 -0.9264
   60MOL   C20116839   3.426   2.659   6.541  0.0364 -0.2861 -0.6295
   60MOL   C20216840   3.522   2.732   6.621 -0.1922 -0.5813  0.1444
   60MOL   C20316841   3.503   2.772   6.751 -0.4790  0.4945 -0.2541
   60MOL   C20416842   3.468   2.604   6.416  0.8013 -0.4442 -0.6292
   60MOL   C20516843   3.380   2.525   6.339  0.0312  0.2974  0.4983
   60MOL   H20616844   3.115   2.529   6.559 -0.0164  0.0353  0.4346
   60MOL   H20716845   3.256   2.674   6.675 -0.1462 -1.4079 -0.4749
   60MOL   H20816846   3.613   2.754   6.568 -0.2273  1.5765  0.9201
   60MOL   H20916847   3.410   2.760   6.804  1.2244 -2.7075  2.2228
   60MOL   H21016848   3.571   2.621   6.389  1.3603  0.1994  1.7925
   60MOL   H21116849   3.413   2.494   6.241  1.2996  1.0887  0.6564
   60MOL   C21216850   3.604   2.838   6.836 -0.4596  0.3778 -0.1435
   60MOL   C21316851   3.566   2.909   6.952 -0.2438 -0.5733 -0.7482
   60MOL   C21416852   3.667   2.947   7.049 -0.5761 -0.8272 -0.2719
   60MOL   C21516853   3.807   2.929   7.024  0.2538  0.1272 -0.1266
   60MOL   C21616854   3.914   2.959   7.123 -0.1793 -0.1057  0.3434
   60MOL   C21716855   4.047   2.976   7.097  1.0651 -0.2047  0.3474
   60MOL   C21816856   3.842   2.879   6.899 -0.1611 -0.2805 -0.7084
   60MOL   C21916857   3.745   2.829   6.811  0.3436  0.1485  0.0184
   60MOL   H22016858   3.462   2.921   6.980 -0.0372 -1.0717  0.2492
   60MOL   H22116859   3.646   2.989   7.146 -2.3602  1.4726 -1.6150
   60MOL   H22216860   3.872   2.968   7.222 -2.9960  2.0774 -0.9518
   60MOL   H22316861   4.085   2.966   6.997  1.0066  0.3107  0.2747
   60MOL   H22416862   3.945   2.856   6.878 -0.5609 -0.6926 -2.2872
   60MOL   H22516863   3.771   2.781   6.718 -0.8010 -0.6214  0.0781
   60MOL   C22616864   4.158   3.004   7.198 -0.4331 -0.9001 -0.3077
   60MOL   C22716865   4.140   3.048   7.325 -0.0512 -0.5938  0.0933
   60MOL   C22816866   4.259   3.076   7.399 -0.1327 -0.2504  0.3913
   60MOL   C22916867   4.389   3.053   7.354  0.5408  0.0318 -0.3135
   60MOL   C23016868   4.512   3.087   7.425  0.7107  0.3340  0.3790
   60MOL   C23116869   4.515   3.130   7.556 -0.4989  0.5860 -0.4631
   60MOL   C23216870   4.401   3.003   7.222 -0.1579 -0.2339  0.4381
   60MOL   C23316871   4.285   2.977   7.146 -0.5527  0.3861 -0.0678
   60MOL   H23416872   4.049   3.063   7.380 -0.4256 -2.2943 -0.0285
   60MOL   H23516873   4.242   3.120   7.496  0.5280  2.1920 -0.5642
   60MOL   H23616874   4.608   3.084   7.375 -0.1653 -0.3557 -1.3208
   60MOL   H23716875   4.416   3.126   7.600 -0.5774 -1.9081 -0.7852
   60MOL   H23816876   4.495   2.973   7.178  0.2540 -0.0001  1.1584
   60MOL   H23916877   4.290   2.936   7.047  1.5166 -0.6202  0.4103
   60MOL   C24016878   4.624   3.167   7.641  0.1186  0.9698  0.4115
   60MOL   C24116879   4.756   3.179   7.592 -0.2683 -0.0335  0.2190
   60MOL   C24216880   4.868   3.198   7.678 -0.5634  0.2634 -0.1598
   60MOL   C24316881   4.861   3.204   7.815  0.3489 -0.1203  0.1280
   60MOL   C24416882   4.982   3.212   7.899  0.1632  0.5697  0.1568
   60MOL   C24516883   4.990   3.256   8.027  0.1703  0.1375 -0.1940
   60MOL   C24616884   4.726   3.206   7.868  0.5460 -0.1817  0.4785
   60MOL   C24716885   4.611   3.200   7.781 -0.2405 -0.2280  0.4634
   60MOL   H24816886   4.779   3.170   7.487 -0.8706 -0.2659  0.1056
   60MOL   H24916887   4.967   3.187   7.636 -0.2878  0.0423  0.5378
   60MOL   H25016888   5.070   3.173   7.851  2.2282  1.5407  3.0574
   60MOL   H25116889   4.901   3.307   8.061  0.7958 -0.7864  2.9427
   60MOL   H25216890   4.715   3.212   7.975 -1.7156 -0.7252  0.3026
   60MOL   H25316891   4.511   3.197   7.819 -1.7591  1.4305 -3.1505
   60MOL   C25416892   5.107   3.264   8.110 -0.1289 -0.2129 -0.0266
   60MOL   C25516893   5.237   3.291   8.052 -0.2121  0.7155 -0.7345
   60MOL   C25616894   5.346   3.325   8.138 -0.1083  0.4298 -0.1856
   60MOL   C25716895   5.331   3.322   0.136  0.3629  0.4923  0.5640
   60MOL   C25816896   5.444   3.362   0.224 -0.2722 -0.5635 -0.0621
   60MOL   C25916897   5.439   3.434   0.334 -0.4798  0.7601  1.2606
   60MOL   C26016898   5.208   3.290   0.192  0.4728  0.6229  0.3667
   60MOL   C26116899   5.096   3.265   0.107 -0.1893 -0.3176  0.6016
   60MOL   H26216900   5.246   3.294   7.945 -3.8504  1.6489 -1.0776
   60MOL   H26316901   5.439   3.368   8.104 -0.0718  0.6679  0.2136
   60MOL   H26416902   5.540   3.324   0.193  0.0430 -0.6419  1.0004
   60MOL   H26516903   5.528   3.440   0.395 -0.6976  0.0700  1.6471
   60MOL   H26616904   5.211   3.276   0.299  1.3170  0.0983  0.2794
   60MOL   H26716905   5.002   3.243   0.155  0.6118 -0.9724  1.9057
   60MOL   C26816906   5.329   3.509   0.396 -0.1077 -0.3206  0.2750
   60MOL   C26916907   5.320   3.490   0.535 -0.0682 -0.2258 -0.5585
   60MOL   C27016908   5.217   3.566   0.602  0.3860  0.3404  0.4907
   60MOL   C27116909   5.127   3.644   0.532 -0.1413 -0.1271 -0.6571
   60MOL   C27216910   5.023   3.706   0.611  0.6648 -0.1044 -0.2783
   60MOL   C27316911   4.913   3.777   0.566  0.1471  0.4452 -0.2260
   60MOL   C27416912   5.139   3.662   0.391 -0.1900 -0.0097  0.2691
   60MOL   C27516913   5.237   3.588   0.318  0.1179  0.0951 -0.1630
   60MOL   H27616914   5.395   3.441   0.595 -0.3603 -1.6512 -1.3471
   60MOL   H27716915   5.216   3.557   0.709  1.8706  0.7382  0.5463
   60MOL   H27816916   5.034   3.688   0.717 -1.7041  0.5925  0.1128
   60MOL   H27916917   4.903   3.797   0.460  0.8741 -0.2128 -0.4296
   60MOL   H28016918   5.076   3.730   0.335  0.8736  3.4627  3.0791
   60MOL   H28116919   5.238   3.603   0.211 -1.4499  4.2179  0.3192
   60MOL   H28216920   4.835   3.813   0.631 -2.2068 -2.8387 -1.0797
   61MOL     C116921   2.774   6.746   2.164  0.8611  0.0881 -0.0853
   61MOL     C216922   2.687   6.667   2.081 -0.7735  0.1468  0.6038
   61MOL     C316923   2.565   6.714   2.036 -0.1018  0.3102 -0.0417
   61MOL     C416924   2.528   6.845   2.063  0.7832  0.6305  0.3859
   61MOL     C516925   2.395   6.895   2.030  0.4649  0.4373  0.0980
   61MOL     C616926   2.340   7.014   2.057  0.3579  0.4275 -0.9621
   61MOL     C716927   2.615   6.928   2.132 -0.3932  0.6500 -0.0905
   61MOL     C816928   2.740   6.881   2.181 -0.2520  0.3795  0.2622
   61MOL     H916929   2.696   6.561   2.063  0.8248  0.2402  0.8266
   61MOL    H1016930   2.494   6.656   1.977  0.8043 -0.8557  0.0046
   61MOL    H1116931   2.332   6.825   1.978  1.6536  0.2377 -1.1134
   61MOL    H1216932   2.388   7.096   2.108 -1.4323  1.5665 -1.0849
   61MOL    H1316933   2.590   7.029   2.159  1.5350  1.1911 -0.2935
   61MOL    H1416934   2.801   6.942   2.246  0.2861 -0.5428  0.6189
   61MOL    H1516935   2.859   6.707   2.218  1.4524  2.3173  0.6813
   61MOL    C1616936   2.203   7.065   2.022 -0.5749  0.1914  0.0750
   61MOL    C1716937   2.115   7.004   1.931  0.4150  0.1389 -0.7479
   61MOL    C1816938   1.988   7.052   1.903 -0.1946  0.5109 -0.2687
   61MOL    C1916939   1.944   7.167   1.967  0.2214 -0.0222  0.6787
   61MOL    C2016940   1.809   7.225   1.937 -0.2843  0.2283  0.9182
   61MOL    C2116941   1.716   7.170   1.857  0.0018  0.0324 -0.2337
   61MOL    C2216942   2.028   7.231   2.062  0.6935  0.2128 -0.0154
   61MOL    C2316943   2.161   7.177   2.091 -0.2522  0.6816  0.4627
   61MOL    H2416944   2.145   6.919   1.870 -0.0104 -0.9297  0.5279
   61MOL    H2516945   1.930   6.996   1.831  1.1115 -1.9135  0.5369
   61MOL    H2616946   1.779   7.315   1.989 -3.6669 -1.3671  1.9208
   61MOL    H2716947   1.747   7.081   1.804 -0.3149 -0.2374  0.0327
   61MOL    H2816948   2.004   7.317   2.123  0.2158  1.0663 -1.3773
   61MOL    H2916949   2.229   7.215   2.166  0.1631  0.4961  0.1767
   61MOL    C3016950   1.577   7.215   1.830  0.1016  0.2178  0.5302
   61MOL    C3116951   1.506   7.170   1.717 -0.0040 -0.7109  0.0887
   61MOL    C3216952   1.381   7.211   1.682 -0.1337  0.2300 -0.7482
   61MOL    C3316953   1.319   7.313   1.757  0.2727 -0.4515 -0.5102
   61MOL    C3416954   1.194   7.362   1.698 -0.0950  0.9925 -0.5201
   61MOL    C3516955   1.132   7.477   1.724  0.4707  0.4222 -0.5833
   61MOL    C3616956   1.392   7.364   1.869 -0.5991  0.3940 -0.5229
   61MOL    C3716957   1.517   7.316   1.909  0.5045 -0.2709 -0.0468
   61MOL    H3816958   1.542   7.099   1.644  0.2431  1.6181 -2.1001
   61MOL    H3916959   1.329   7.167   1.598 -1.5508  0.3070  0.0823
   61MOL    H4016960   1.148   7.293   1.629  1.9010 -0.3412 -0.5629
   61MOL    H4116961   1.171   7.540   1.803 -3.6183  1.7465  0.5225
   61MOL    H4216962   1.345   7.447   1.920 -0.1322 -0.8530  2.0024
   61MOL    H4316963   1.564   7.373   1.988  2.6830  0.3797 -1.7572
   61MOL    C4416964   1.008   7.517   1.660  0.3845 -0.2724 -0.0358
   61MOL    C4516965   0.953   7.452   1.544  1.1787  0.0305 -0.3628
   61MOL    C4616966   0.824   7.484   1.497  0.7492 -0.4141 -0.3623
   61MOL    C4716967   0.751   7.589   1.557 -0.1387  0.4798 -0.5618
   61MOL    C4816968   0.628   7.635   1.493 -0.1454  0.5870 -0.2238
   61MOL    C4916969   0.566   7.757   1.498 -0.0378  0.2496 -0.6782
   61MOL    C5016970   0.802   7.662   1.664 -1.4133  0.0567  0.0376
   61MOL    C5116971   0.929   7.619   1.718  0.8681  0.5048 -0.0396
   61MOL    H5216972   0.996   7.365   1.499  0.7262 -0.7674  0.7204
   61MOL    H5316973   0.791   7.424   1.413 -1.0247 -2.9310  2.0384
   61MOL    H5416974   0.570   7.564   1.436  0.9632 -0.1762 -0.4217
   61MOL    H5516975   0.612   7.841   1.548  1.1861 -1.7398  1.6574
   61MOL    H5616976   0.742   7.738   1.712 -1.1230  0.3461 -0.0553
   61MOL    H5716977   0.961   7.685   1.797 -1.9080 -0.4514  1.9640
   61MOL    C5816978   0.429   7.782   1.433 -0.9055  0.3538 -0.0285
   61MOL    C5916979   0.341   7.673   1.405 -0.0259 -0.2717 -0.5151
   61MOL    C6016980   0.212   7.704   1.349  0.2951 -0.4388 -0.7161
   61MOL    C6116981   0.176   7.834   1.311 -0.4017  0.0246 -0.6118
   61MOL    C6216982   0.060   7.862   1.224  0.7758 -0.4043 -0.4389
   61MOL    C6316983   8.144   7.979   1.210  0.2909 -0.5994  0.6732
   61MOL    C6416984   0.254   7.940   1.363 -0.2600  0.3159 -0.8300
   61MOL    C6516985   0.383   7.918   1.407  0.0650 -0.3036  0.0173
   61MOL    H6616986   0.364   7.572   1.437  2.5836  0.4569  0.0402
   61MOL    H6716987   0.148   7.624   1.315 -1.4086  0.1705  1.0028
   61MOL    H6816988   0.028   7.775   1.167 -0.7004 -1.5759  2.1048
   61MOL    H6916989   0.028   8.061   1.273  0.8904 -0.8086  0.6739
   61MOL    H7016990   0.220   8.034   1.322 -3.7337 -0.8331 -0.7830
   61MOL    H7116991   0.456   7.995   1.422  0.0034  0.7841 -4.4163
   61MOL    C7216992   8.024   8.010   1.123 -0.1482 -0.1053  0.3496
   61MOL    C7316993   7.991   8.144   1.106  0.8066 -0.4792 -0.0458
   61MOL    C7416994   7.883   0.047   1.030  0.8981  0.8225  0.4841
   61MOL    C7516995   7.796   8.089   0.968 -0.2462 -0.5403  0.0109
   61MOL    C7616996   7.684   8.123   0.874  0.8310 -0.2432 -0.0868
   61MOL    C7716997   7.660   0.104   0.836 -0.2734 -0.1290  0.4679
   61MOL    C7816998   7.824   7.949   0.996 -0.1383  0.1389 -0.4489
   61MOL    C7916999   7.939   7.911   1.072  0.1465  0.0715  0.5993
   61MOL    H8017000   8.049   0.078   1.155 -0.0257 -1.6955  3.0293
   61MOL    H8117001   7.877   0.151   1.003 -2.6052  0.0678 -1.9274
   61MOL    H8217002   7.626   8.043   0.829 -1.1078  0.5350  0.9609
   61MOL    H8317003   7.718   0.181   0.885 -0.9488  0.8783 -0.2840
   61MOL    H8417004   7.757   7.873   0.957  2.8390 -2.5221 -0.5286
   61MOL    H8517005   7.965   7.809   1.093 -2.6548 -0.8429 -0.1970
   61MOL    C8617006   7.553   0.141   0.738 -0.7643 -0.3947 -0.6257
   61MOL    C8717007   7.547   0.270   0.677  0.0309  0.5461  0.1039
   61MOL    C8817008   7.462   0.296   0.571  0.1194  0.6110 -0.0755
   61MOL    C8917009   7.372   0.193   0.524 -0.9934  0.4873  0.3889
   61MOL    C9017010   7.283   0.210   0.403 -0.3891  0.0191 -0.3634
   61MOL    C9117011   7.264   0.322   0.327 -0.4257 -0.3153  0.1918
   61MOL    C9217012   7.366   0.071   0.594  0.6133 -0.0787  0.1092
   61MOL    C9317013   7.453   0.047   0.701  0.1135 -0.3581 -0.7755
   61MOL    H9417014   7.621   0.339   0.715 -0.1313  0.0114  1.4321
   61MOL    H9517015   7.471   0.385   0.509 -1.3770  0.5229 -0.4539
   61MOL    H9617016   7.230   0.122   0.370  2.4656 -1.7267 -0.5231
   61MOL    H9717017   7.317   0.414   0.346 -0.3134 -0.4560  0.5805
   61MOL    H9817018   7.295   0.001   0.553 -1.3270  2.8990 -1.8118
   61MOL    H9917019   7.450   8.093   0.746  1.8381 -0.7427 -1.4498
   61MOL   C10017020   7.186   0.334   0.206  0.0966 -0.3444 -0.0239
   61MOL   C10117021   7.110   0.222   0.156  0.6373  0.5762 -0.3853
   61MOL   C10217022   7.052   0.231   0.028  0.7338 -0.0133  0.0124
   61MOL   C10317023   7.092   0.333   8.084 -0.4519  0.0777  0.2159
   61MOL   C10417024   7.073   0.327   7.939  0.6251  0.4105  0.6088
   61MOL   C10517025   7.034   0.228   7.860 -0.6104  0.2424  0.4540
   61MOL   C10617026   7.152   0.448   8.142 -0.7486 -0.0014 -0.6334
   61MOL   C10717027   7.194   0.452   0.129 -0.8711  0.3884 -0.6246
   61MOL   H10817028   7.095   0.129   0.208  0.6194 -0.4651 -2.2229
   61MOL   H10917029   6.997   0.146   8.137  0.1647  1.3222 -2.4568
   61MOL   H11017030   7.098   0.418   7.887  0.6220 -1.1554 -2.2299
   61MOL   H11117031   7.015   0.135   7.912  0.1901 -0.1227  0.1053
   61MOL   H11217032   7.180   0.531   8.080  3.2525 -0.9689 -0.2792
   61MOL   H11317033   7.237   0.544   0.167  2.5294 -0.7127 -1.6347
   61MOL   C11417034   7.032   0.239   7.717  0.8905 -1.1401  0.5647
   61MOL   C11517035   7.121   0.323   7.648  0.0517 -0.5918  0.5955
   61MOL   C11617036   7.125   0.321   7.507 -0.0661 -0.2800  1.1609
   61MOL   C11717037   7.038   0.237   7.435  0.8775 -0.9251  0.3405
   61MOL   C11817038   7.059   0.221   7.290  0.2407  0.0477 -0.0750
   61MOL   C11917039   7.174   0.240   7.225  0.1234  0.2069  0.1097
   61MOL   C12017040   6.934   0.167   7.501 -0.0100 -0.5269  0.4984
   61MOL   C12117041   6.935   0.161   7.645  0.5721  0.0482 -0.1139
   61MOL   H12217042   7.192   0.378   7.708  1.1304 -0.9142 -0.3506
   61MOL   H12317043   7.189   0.387   7.450 -0.4016 -1.2887 -0.4225
   61MOL   H12417044   6.969   0.189   7.239  0.0275  0.0059  0.3200
   61MOL   H12517045   7.260   0.267   7.285 -0.4950 -0.6899  1.4075
   61MOL   H12617046   6.858   0.126   7.436 -0.0590  0.9562 -0.4131
   61MOL   H12717047   6.849   0.115   7.690  0.2354 -2.0986 -2.8143
   61MOL   C12817048   7.180   0.240   7.078  0.1840  0.5387  0.3397
   61MOL   C12917049   7.072   0.217   6.991 -0.5653  0.2588 -0.1019
   61MOL   C13017050   7.080   0.256   6.856 -0.3215  0.1847 -0.0692
   61MOL   C13117051   7.208   0.299   6.808  0.6697  0.0753 -0.4045
   61MOL   C13217052   7.215   0.323   6.667  0.2057  0.1254  0.4882
   61MOL   C13317053   7.317   0.315   6.582  0.4764  0.3109 -0.2643
   61MOL   C13417054   7.317   0.318   6.897  0.4389  0.6204  0.6925
   61MOL   C13517055   7.296   0.290   7.033  0.2078  0.8346  0.4079
   61MOL   H13617056   6.974   0.182   7.019 -1.3028  1.5662 -0.9628
   61MOL   H13717057   6.996   0.249   6.789 -1.1794  0.1881  0.9880
   61MOL   H13817058   7.115   0.349   6.635 -0.4628  0.8909  3.0545
   61MOL   H13917059   7.413   0.283   6.618  0.6303  0.8315 -0.2097
   61MOL   H14017060   7.409   0.364   6.866 -0.0048  0.1470 -1.3923
   61MOL   H14117061   7.382   0.299   7.098  0.3941  0.4740  0.2105
   61MOL   C14217062   7.314   0.352   6.441 -0.1222  0.7911  0.1715
   61MOL   C14317063   7.423   0.320   6.351 -0.2688  0.2336  0.3904
   61MOL   C14417064   7.407   0.333   6.207 -0.2697  0.0308 -0.6362
   61MOL   C14517065   7.282   0.390   6.164 -0.3293  0.2667 -1.0212
   61MOL   C14617066   7.267   0.411   6.023 -0.4330 -0.8813  0.1460
   61MOL   C14717067   7.183   0.504   5.972  0.6046  0.2216  0.2676
   61MOL   C14817068   7.171   0.412   6.246  0.5427  0.0551 -0.6799
   61MOL   C14917069   7.188   0.395   6.387  0.1218 -0.4731 -0.2736
   61MOL   H15017070   7.518   0.280   6.383  0.0484  0.2430 -0.5446
   61MOL   H15117071   7.492   0.322   6.141 -0.1980  1.2051 -0.7520
   61MOL   H15217072   7.334   0.356   5.958 -0.3411  0.7157 -1.1296
   61MOL   H15317073   7.147   0.573   6.046 -1.6983  0.9629 -1.4793
   61MOL   H15417074   7.081   0.455   6.205  1.1523  1.2128 -0.8198
   61MOL   H15517075   7.099   0.414   6.445  1.0022  0.1743  0.9062
   61MOL   C15617076   7.140   0.532   5.832  0.0700  0.2070 -1.0273
   61MOL   C15717077   7.161   0.435   5.731 -0.1572  0.3060 -0.0301
   61MOL   C15817078   7.129   0.461   5.596 -0.0122 -0.1105 -0.4173
   61MOL   C15917079   7.089   0.589   5.560  1.0335 -0.0479  0.2617
   61MOL   C16017080   7.050   0.625   5.424  0.6629 -0.5517  0.4933
   61MOL   C16117081   7.062   0.553   5.308  0.1532 -0.0237  0.2082
   61MOL   C16217082   7.065   0.686   5.657 -0.1770  0.2085 -0.1994
   61MOL   C16317083   7.097   0.660   5.790  0.0471  0.3568  0.2180
   61MOL   H16417084   7.190   0.333   5.752 -3.0883 -1.0831 -2.2346
   61MOL   H16517085   7.154   0.387   5.522  0.2083 -0.6869  0.2356
   61MOL   H16617086   7.002   0.722   5.429 -2.2421 -1.8872 -0.0209
   61MOL   H16717087   7.110   0.456   5.312  2.3883  1.0581  0.6820
   61MOL   H16817088   7.025   0.783   5.630 -1.9974 -0.1887  1.0090
   61MOL   H16917089   7.077   0.740   5.860 -1.8866  0.6491 -0.6348
   61MOL   C17017090   7.015   0.605   5.178 -0.9189  0.9583  0.1819
   61MOL   C17117091   7.079   0.557   5.066  0.2406  0.1116  0.0706
   61MOL   C17217092   7.033   0.591   4.937  0.0204 -0.3748 -0.4650
   61MOL   C17317093   6.909   0.663   4.926 -0.1927  0.2611  0.4632
   61MOL   C17417094   6.843   0.687   4.793  0.6004 -0.1669 -0.2282
   61MOL   C17517095   6.711   0.685   4.776  0.2484 -0.5440 -0.5531
   61MOL   C17617096   6.845   0.709   5.046 -0.0181  0.6420  0.5606
   61MOL   C17717097   6.899   0.680   5.171 -0.5997 -0.0180 -1.1499
   61MOL   H17817098   7.166   0.495   5.076  0.7422  0.9744  1.1600
   61MOL   H17917099   7.070   0.547   4.846  3.0400  0.0871  0.4770
   61MOL   H18017100   6.907   0.717   4.711 -0.6774  0.6777 -0.9214
   61MOL   H18117101   6.642   0.673   4.859  0.9081  1.6204  0.3342
   61MOL   H18217102   6.759   0.774   5.047  0.2662  1.0400 -0.5408
   61MOL   H18317103   6.852   0.715   5.262 -0.4916 -0.3992 -0.9485
   61MOL   C18417104   6.626   0.704   4.658 -0.5845  0.5272 -0.5427
   61MOL   C18517105   6.676   0.765   4.541  0.4686 -0.2894  0.0280
   61MOL   C18617106   6.592   0.785   4.431 -0.6545  0.0291 -0.4307
   61MOL   C18717107   6.452   0.758   4.440 -0.4235  1.1738 -0.1466
   61MOL   C18817108   6.346   0.796   4.346  0.6892 -0.4311  0.1454
   61MOL   C18917109   6.352   0.864   4.232  0.5776  0.5897  0.0642
   61MOL   C19017110   6.404   0.693   4.559  1.2300  0.0853  0.1886
   61MOL   C19117111   6.492   0.676   4.667 -0.1327 -0.4501  1.0938
   61MOL   H19217112   6.782   0.784   4.537  0.6889 -1.7213 -1.5584
   61MOL   H19317113   6.642   0.835   4.350  2.0200  0.2508  1.3141
   61MOL   H19417114   6.249   0.760   4.376  0.3685  0.0701 -0.2881
   61MOL   H19517115   6.447   0.909   4.204  1.5850 -0.4076  1.7861
   61MOL   H19617116   6.302   0.658   4.568  0.4998  2.0316 -0.4016
   61MOL   H19717117   6.455   0.635   4.760 -0.1142  1.1059  1.7970
   61MOL   C19817118   6.245   0.881   4.132 -0.3081  0.0235 -1.1170
   61MOL   C19917119   6.226   0.998   4.062 -0.0218 -0.6684  0.2195
   61MOL   C20017120   6.100   1.024   4.003 -0.3035 -0.0693 -0.4460
   61MOL   C20117121   6.003   0.929   3.994 -0.1275  0.6203  0.1317
   61MOL   C20217122   5.868   0.946   3.929 -0.1861 -0.6382  0.3188
   61MOL   C20317123   5.831   1.062   3.875  0.6535 -0.7884  0.0020
   61MOL   C20417124   6.031   0.804   4.050  0.0538 -0.6798  0.1100
   61MOL   C20517125   6.148   0.779   4.120  0.2137 -0.2730 -0.2087
   61MOL   H20617126   6.292   1.080   4.083  0.4103 -1.5472  2.4211
   61MOL   H20717127   6.078   1.117   3.952  2.3214 -0.5973 -2.6926
   61MOL   H20817128   5.807   0.857   3.923  0.6685 -1.2813  0.9466
   61MOL   H20917129   5.888   1.154   3.883  1.3018 -0.9159 -2.6203
   61MOL   H21017130   5.966   0.717   4.042 -0.0318 -0.7286  1.1502
   61MOL   H21117131   6.154   0.686   4.175 -0.5793  0.1113  0.5350
   61MOL   C21217132   5.707   1.069   3.795  0.8498  0.9148  0.3172
   61MOL   C21317133   5.702   1.163   3.690 -0.4000  0.3028 -0.2699
   61MOL   C21417134   5.588   1.180   3.611  0.0852 -1.0033  1.3429
   61MOL   C21517135   5.473   1.093   3.635  0.5058 -0.7807 -0.1753
   61MOL   C21617136   5.359   1.112   3.546  0.4721  0.2987  0.0232
   61MOL   C21717137   5.233   1.076   3.572  0.3232 -0.8106  0.0013
   61MOL   C21817138   5.481   0.991   3.730 -0.0670 -0.2553  0.2127
   61MOL   C21917139   5.597   0.977   3.809  0.0531 -0.4812 -0.0425
   61MOL   H22017140   5.782   1.233   3.672 -1.1957  1.5647  0.9540
   61MOL   H22117141   5.596   1.255   3.533 -2.2904 -0.6002  1.4472
   61MOL   H22217142   5.384   1.162   3.454 -0.4548 -1.1493 -1.0514
   61MOL   H22317143   5.208   1.026   3.664 -2.0101 -0.0621 -0.2058
   61MOL   H22417144   5.403   0.917   3.741 -1.5428  1.1268 -0.8952
   61MOL   H22517145   5.609   0.910   3.893  1.2428 -0.6749 -0.3508
   61MOL   C22617146   5.116   1.088   3.482  0.2752 -0.7204  0.9312
   61MOL   C22717147   5.137   1.106   3.339  0.0713 -0.0103  0.0978
   61MOL   C22817148   5.031   1.112   3.253  0.5614  0.7515  0.6607
   61MOL   C22917149   4.898   1.099   3.302 -0.8822  0.3180  0.6639
   61MOL   C23017150   4.787   1.113   3.210  0.1611  0.8292 -0.4914
   61MOL   C23117151   4.780   1.177   3.093 -0.4210  0.2929 -0.0461
   61MOL   C23217152   4.880   1.086   3.438 -0.5139 -0.3060 -0.0466
   61MOL   C23317153   4.986   1.074   3.531 -0.2155  0.2591 -0.3053
   61MOL   H23417154   5.240   1.102   3.308 -1.2942 -2.1921 -4.6590
   61MOL   H23517155   5.046   1.117   3.146  0.7903  0.3150  0.6727
   61MOL   H23617156   4.691   1.074   3.243  0.3233  1.1692  0.3824
   61MOL   H23717157   4.871   1.223   3.058  0.8069 -0.3076  2.2347
   61MOL   H23817158   4.782   1.073   3.481 -1.8068  0.9029 -2.5774
   61MOL   H23917159   4.974   1.080   3.638 -0.1116  0.3863 -0.3015
   61MOL   C24017160   4.670   1.181   2.993 -0.2683 -0.1306  0.3207
   61MOL   C24117161   4.549   1.118   3.010 -0.7591  0.3386 -0.4473
   61MOL   C24217162   4.444   1.138   2.918  0.3864  0.5644  0.3967
   61MOL   C24317163   4.459   1.218   2.802  0.4973  0.6440 -0.9747
   61MOL   C24417164   4.355   1.249   2.707  0.5300  0.1296 -0.2234
   61MOL   C24517165   4.227   1.198   2.710 -0.0234  0.3780 -0.0920
   61MOL   C24617166   4.586   1.277   2.776 -0.1318 -0.6101 -0.0668
   61MOL   C24717167   4.689   1.265   2.878 -0.5476 -0.2891 -0.4011
   61MOL   H24817168   4.535   1.049   3.092 -0.2280 -1.4199 -1.7948
   61MOL   H24917169   4.347   1.096   2.940  0.0631  1.5820  0.9772
   61MOL   H25017170   4.380   1.322   2.631  0.6241 -0.9979 -1.2876
   61MOL   H25117171   4.197   1.120   2.777  3.0214 -1.5288 -0.8340
   61MOL   H25217172   4.588   1.346   2.693  1.6792 -1.3567 -0.6696
   61MOL   H25317173   4.782   1.319   2.866 -1.5659  1.4199 -0.8700
   61MOL   C25417174   4.124   1.249   2.618 -0.6031 -0.1546  0.2168
   61MOL   C25517175   4.166   1.283   2.489 -0.2962 -0.4528 -0.3067
   61MOL   C25617176   4.069   1.345   2.401 -0.0152 -0.8942 -0.7086
   61MOL   C25717177   3.947   1.379   2.451  0.2067 -0.4678  1.0323
   61MOL   C25817178   3.855   1.463   2.378 -0.0246  0.2301 -0.9015
   61MOL   C25917179   3.845   1.597   2.375 -0.2320  0.1646  0.2771
   61MOL   C26017180   3.907   1.335   2.578  0.3519 -0.6042 -0.6094
   61MOL   C26117181   3.990   1.265   2.665 -0.8023 -1.4701  0.4576
   61MOL   H26217182   4.268   1.282   2.453 -0.6856  1.3098 -1.5597
   61MOL   H26317183   4.101   1.392   2.310 -1.1256 -1.8884 -1.6267
   61MOL   H26417184   3.778   1.405   2.330 -2.2017 -0.1881  2.8585
   61MOL   H26517185   3.763   1.631   2.313 -0.0204  0.8254  0.3586
   61MOL   H26617186   3.813   1.374   2.615  1.7777  1.8071  0.6278
   61MOL   H26717187   3.947   1.229   2.758  0.4166  0.9069  2.0076
   61MOL   C26817188   3.927   1.696   2.444 -0.4243 -0.5758 -0.7837
   61MOL   C26917189   3.935   1.822   2.385 -0.4490 -0.6993 -0.1666
   61MOL   C27017190   4.031   1.911   2.438  0.0189 -0.6899  0.0815
   61MOL   C27117191   4.112   1.876   2.546 -0.0776 -0.7361 -0.3244
   61MOL   C27217192   4.212   1.985   2.597  0.1963 -0.3157  0.2035
   61MOL   C27317193   4.290   1.980   2.707 -0.5403 -0.0290  0.5585
   61MOL   C27417194   4.089   1.758   2.610 -0.2383 -0.5057 -0.4989
   61MOL   C27517195   4.001   1.665   2.561 -0.8878  0.1524 -0.2515
   61MOL   H27617196   3.874   1.844   2.299  0.6626 -0.4375 -0.8885
   61MOL   H27717197   4.044   2.012   2.400  1.8705 -0.4758  1.2131
   61MOL   H27817198   4.209   2.077   2.540 -1.8663 -0.6271 -0.2283
   61MOL   H27917199   4.294   1.890   2.767  0.6922 -0.3143  0.0556
   61MOL   H28017200   4.126   1.750   2.711 -1.6589 -1.2881 -0.0202
   61MOL   H28117201   3.995   1.572   2.616 -3.1316 -0.4121 -1.3858
   61MOL   H28217202   4.352   2.058   2.747  0.9308 -1.5033  1.2567
   62MOL     C117203   5.275   3.038   2.761  0.3174 -0.0604 -0.2987
   62MOL     C217204   5.157   3.106   2.801 -0.2336  0.3950  0.1027
   62MOL     C317205   5.033   3.061   2.756 -0.3348  0.3526 -0.5200
   62MOL     C417206   5.028   2.961   2.658 -0.0162 -0.2797 -0.7453
   62MOL     C517207   4.895   2.944   2.588 -0.0229 -0.4464  0.2838
   62MOL     C617208   4.876   2.879   2.471  0.3713  0.6260 -0.2076
   62MOL     C717209   5.144   2.894   2.621  0.0592  0.0510  0.4425
   62MOL     C817210   5.270   2.929   2.674  0.2890  0.4503 -0.4998
   62MOL     H917211   5.156   3.196   2.860  0.7882 -0.1457  0.9565
   62MOL    H1017212   4.937   3.103   2.782 -0.8517  0.1067 -1.9613
   62MOL    H1117213   4.811   2.981   2.645  0.7335 -0.9114  1.7414
   62MOL    H1217214   4.966   2.851   2.419  0.4130  0.6073 -0.1236
   62MOL    H1317215   5.136   2.822   2.541  2.2218  0.1217  0.1289
   62MOL    H1417216   5.354   2.867   2.645  0.6773  0.0953  1.3301
   62MOL    H1517217   5.373   3.065   2.798  0.6060 -0.5536 -0.6940
   62MOL    C1617218   4.745   2.836   2.413 -0.1783 -0.1536  0.3890
   62MOL    C1717219   4.740   2.756   2.296  0.0615 -0.5336 -0.6462
   62MOL    C1817220   4.617   2.738   2.231  0.8427 -0.2845 -0.2917
   62MOL    C1917221   4.495   2.782   2.288  0.8296  0.4016  0.4049
   62MOL    C2017222   4.362   2.741   2.238 -0.0810  0.6654  0.4888
   62MOL    C2117223   4.348   2.642   2.149 -0.5051  0.5483 -0.4334
   62MOL    C2217224   4.505   2.860   2.401  0.6657 -0.1404  1.0992
   62MOL    C2317225   4.628   2.894   2.458  0.2577  0.0329 -0.4063
   62MOL    H2417226   4.834   2.729   2.248 -0.7148 -0.3455 -2.3138
   62MOL    H2517227   4.615   2.683   2.138  2.2464 -0.4561 -0.2272
   62MOL    H2617228   4.272   2.796   2.259 -0.4968 -0.8145  2.7437
   62MOL    H2717229   4.438   2.601   2.105  0.1422  1.5113 -0.0325
   62MOL    H2817230   4.417   2.901   2.449  0.8000 -0.5696  1.7207
   62MOL    H2917231   4.632   2.972   2.532 -1.1731 -0.2899  0.0280
   62MOL    C3017232   4.222   2.590   2.095 -0.3603 -0.3756 -0.4281
   62MOL    C3117233   4.104   2.605   2.171  0.2090 -0.5002 -0.1995
   62MOL    C3217234   3.979   2.560   2.114  0.1630  0.1568  0.4423
   62MOL    C3317235   3.981   2.503   1.988  0.2001  0.7308  0.1252
   62MOL    C3417236   3.849   2.458   1.941 -0.3034  0.0651  0.3958
   62MOL    C3517237   3.831   2.404   1.821  0.0091  0.9242  1.1269
   62MOL    C3617238   4.098   2.509   1.904 -0.4263 -0.2298  0.2102
   62MOL    C3717239   4.218   2.548   1.962  0.0841 -0.2978 -0.0890
   62MOL    H3817240   4.098   2.647   2.271  3.3120  2.2689 -1.0927
   62MOL    H3917241   3.889   2.549   2.171 -1.0798 -1.8236 -1.7864
   62MOL    H4017242   3.761   2.478   2.001  0.0343 -0.9971  1.2528
   62MOL    H4117243   3.908   2.372   1.753 -1.7005  0.8859 -0.8233
   62MOL    H4217244   4.097   2.476   1.801  0.8353 -3.6302  1.2239
   62MOL    H4317245   4.312   2.554   1.909  0.2923  2.9634  0.5149
   62MOL    C4417246   3.708   2.380   1.748 -0.2805 -0.1081 -0.1830
   62MOL    C4517247   3.712   2.273   1.657  0.6677 -0.1268 -0.0384
   62MOL    C4617248   3.598   2.224   1.590  0.7924 -0.7522 -0.1435
   62MOL    C4717249   3.471   2.298   1.615  0.6813  0.2865  0.2789
   62MOL    C4817250   3.340   2.268   1.560 -0.3346  1.0942 -0.7538
   62MOL    C4917251   3.317   2.147   1.504  0.1279 -0.0460  0.1122
   62MOL    C5017252   3.471   2.407   1.706  0.0772 -0.3882 -0.0517
   62MOL    C5117253   3.591   2.445   1.776 -0.2136 -0.5398 -0.5013
   62MOL    H5217254   3.801   2.212   1.648 -0.1457 -2.1442  4.1523
   62MOL    H5317255   3.608   2.132   1.534 -0.3905  1.0520 -3.4389
   62MOL    H5417256   3.263   2.341   1.577  0.4640  1.5060  1.3110
   62MOL    H5517257   3.400   2.079   1.496  2.8803  2.8244  2.9465
   62MOL    H5617258   3.378   2.458   1.726  0.0675 -0.4162 -0.0264
   62MOL    H5717259   3.592   2.529   1.844  1.0878 -1.0413  0.1127
   62MOL    C5817260   3.189   2.111   1.441 -0.5682  0.6782  0.1919
   62MOL    C5917261   3.157   1.979   1.421  0.1754  0.1064  0.4771
   62MOL    C6017262   3.033   1.937   1.365  0.2972 -0.4123  0.5240
   62MOL    C6117263   2.940   2.036   1.332 -0.7096  0.2938  0.0601
   62MOL    C6217264   2.825   1.998   1.257  0.6092 -0.5535  0.5246
   62MOL    C6317265   2.777   1.871   1.246  0.9941 -0.1484 -0.4362
   62MOL    C6417266   2.970   2.170   1.354 -0.3785  0.2785  0.6936
   62MOL    C6517267   3.092   2.213   1.411  0.2349 -0.1877  0.6845
   62MOL    H6617268   3.235   1.909   1.446 -2.0802 -3.3719 -1.7668
   62MOL    H6717269   3.016   1.832   1.346  2.6149 -0.8470  0.6641
   62MOL    H6817270   2.778   2.079   1.204  1.9341 -0.1769 -0.0904
   62MOL    H6917271   2.828   1.799   1.308  0.7760 -1.1076 -1.3484
   62MOL    H7017272   2.909   2.246   1.308 -0.0713  0.5265  0.6933
   62MOL    H7117273   3.121   2.316   1.421 -0.9539  0.2303 -0.0717
   62MOL    C7217274   2.670   1.812   1.169 -0.1662  0.0579 -0.2172
   62MOL    C7317275   2.591   1.884   1.074  0.0870  0.6559 -0.0955
   62MOL    C7417276   2.494   1.813   1.002 -0.2125  0.1399 -0.2332
   62MOL    C7517277   2.466   1.682   1.025  0.1004  0.9695 -0.1755
   62MOL    C7617278   2.375   1.609   0.942 -0.5468 -0.1612  0.5583
   62MOL    C7717279   2.330   1.649   0.820 -0.1062 -0.1032  0.1711
   62MOL    C7817280   2.536   1.617   1.128  0.0593  0.1964  0.0244
   62MOL    C7917281   2.641   1.678   1.197  0.1295 -0.0914  1.0130
   62MOL    H8017282   2.608   1.989   1.058  0.3854  0.9261  1.8633
   62MOL    H8117283   2.454   1.875   0.923 -2.2156 -3.2704 -1.9838
   62MOL    H8217284   2.336   1.518   0.987 -2.7081  1.3518  1.8654
   62MOL    H8317285   2.362   1.746   0.786  0.9199 -1.0664 -1.6876
   62MOL    H8417286   2.517   1.515   1.158  2.3380 -0.1377  0.4674
   62MOL    H8517287   2.689   1.628   1.279  0.8303  0.4657  0.9481
   62MOL    C8617288   2.233   1.577   0.735 -0.7662 -0.0476 -0.3635
   62MOL    C8717289   2.227   1.616   0.599 -0.3533 -0.5557 -0.0081
   62MOL    C8817290   2.144   1.546   0.508  1.2100 -0.2852  0.1096
   62MOL    C8917291   2.082   1.425   0.550 -0.5527  0.9392 -0.0587
   62MOL    C9017292   2.012   1.345   0.455  0.0725  0.1264  0.1558
   62MOL    C9117293   1.908   1.261   0.489 -0.7840 -0.4982  0.6156
   62MOL    C9217294   2.077   1.398   0.692 -0.6305  0.0195  0.2091
   62MOL    C9317295   2.156   1.476   0.782  0.6970  0.2555  0.2756
   62MOL    H9417296   2.288   1.698   0.566  0.0016 -0.7153  0.2414
   62MOL    H9517297   2.137   1.582   0.407 -0.3618  0.0085  0.3022
   62MOL    H9617298   2.053   1.347   0.356  1.8718 -2.4821  0.8175
   62MOL    H9717299   1.874   1.260   0.592  3.0454 -1.1191  1.9582
   62MOL    H9817300   2.023   1.315   0.736  0.1374 -1.1060 -0.9237
   62MOL    H9917301   2.158   1.460   0.889 -0.6059  1.9016  0.5693
   62MOL   C10017302   1.843   1.167   0.406 -0.1109  0.6836 -0.1154
   62MOL   C10117303   1.889   1.141   0.274 -0.3697 -1.0453  0.3827
   62MOL   C10217304   1.837   1.031   0.201 -0.7869 -0.0247  0.2652
   62MOL   C10317305   1.728   0.955   0.254  0.1724  0.2274 -0.2172
   62MOL   C10417306   1.677   0.843   0.178  0.4990  0.3786 -0.6697
   62MOL   C10517307   1.581   0.761   0.211 -0.2900 -0.1360  0.3072
   62MOL   C10617308   1.674   0.987   0.383 -0.4376  0.4209  0.3842
   62MOL   C10717309   1.735   1.094   0.452 -0.0445 -0.0016  0.5517
   62MOL   H10817310   1.980   1.182   0.234 -2.1834  1.6715 -1.1413
   62MOL   H10917311   1.887   1.010   0.107  0.9502 -0.7215  1.3147
   62MOL   H11017312   1.725   0.830   0.082  1.3896 -0.5173 -0.1045
   62MOL   H11117313   1.520   0.762   0.300 -1.7731 -1.0170 -0.6561
   62MOL   H11217314   1.593   0.934   0.432 -1.1067  0.1289 -0.9864
   62MOL   H11317315   1.693   1.113   0.550  2.2013  2.3011  1.1138
   62MOL   C11417316   1.540   0.642   0.128  0.0495 -0.4815 -0.1772
   62MOL   C11517317   1.625   0.598   0.025  0.0845  0.8627  0.4845
   62MOL   C11617318   1.586   0.489   8.092  0.6810 -0.8115 -0.0922
   62MOL   C11717319   1.472   0.405   8.119  0.0709 -0.1822 -0.7175
   62MOL   C11817320   1.457   0.275   8.055  0.9745 -0.1665  0.1648
   62MOL   C11917321   1.353   0.189   8.074 -0.4423 -0.0531  0.6079
   62MOL   C12017322   1.386   0.455   0.077 -0.4920 -0.8304 -0.8651
   62MOL   C12117323   1.418   0.576   0.140 -0.3162 -0.3950  0.2848
   62MOL   H12217324   1.721   0.644   0.007 -0.9653  2.6542 -0.7100
   62MOL   H12317325   1.661   0.449   8.025 -0.4415 -1.2187 -1.1389
   62MOL   H12417326   1.541   0.236   8.000 -0.1597 -1.4145 -0.6921
   62MOL   H12517327   1.267   0.221   8.132  0.8488 -1.1706  3.1882
   62MOL   H12617328   1.297   0.403   0.109 -1.0543  0.4286 -0.3443
   62MOL   H12717329   1.341   0.608   0.209 -0.2911  0.3918 -0.0469
   62MOL   C12817330   1.344   0.044   8.023 -0.3247 -0.3352 -0.1932
   62MOL   C12917331   1.426   0.003   7.918 -0.2223  0.3623  0.1120
   62MOL   C13017332   1.428   8.013   7.884 -0.1651 -0.3748  0.6424
   62MOL   C13117333   1.357   7.916   7.964 -0.5349 -0.6187  0.8381
   62MOL   C13217334   1.414   7.778   7.957  0.2980 -0.3984  0.1180
   62MOL   C13317335   1.404   7.694   8.060  0.2259 -0.3702 -0.2848
   62MOL   C13417336   1.269   7.965   8.064 -0.2199 -0.3480  0.1216
   62MOL   C13517337   1.255   8.108   8.094  0.0266 -0.1778  0.4503
   62MOL   H13617338   1.474   0.072   7.851  2.3787  0.0132  1.5559
   62MOL   H13717339   1.484   7.978   7.799 -0.4684  0.3306  0.1562
   62MOL   H13817340   1.471   7.754   7.869 -1.0943  0.7657 -1.1313
   62MOL   H13917341   1.351   7.720   0.006  0.2777  1.5884 -0.7998
   62MOL   H14017342   1.218   7.892   8.125 -1.6151  0.2936 -0.2675
   62MOL   H14117343   1.186   0.001   0.023 -0.6154 -1.0620  0.3001
   62MOL   C14217344   1.489   7.579   8.079 -0.0692 -0.1350  0.1908
   62MOL   C14317345   1.506   7.539   0.066  0.2983 -0.0759  1.0137
   62MOL   C14417346   1.607   7.442   0.094  0.5882  0.2561 -0.3209
   62MOL   C14517347   1.683   7.380   8.141  0.4547 -0.2522 -0.0193
   62MOL   C14617348   1.796   7.288   0.035 -0.1117  0.8353 -0.2891
   62MOL   C14717349   1.857   7.267   0.155  0.6585  0.2575  0.5546
   62MOL   C14817350   1.658   7.416   8.005 -0.3237  0.7421  0.2213
   62MOL   C14917351   1.560   7.513   7.975  0.1963  0.5774 -0.0780
   62MOL   H15017352   1.455   7.593   0.144  2.3973  0.3232  2.1434
   62MOL   H15117353   1.627   7.423   0.198  0.5076  0.7520 -0.2090
   62MOL   H15217354   1.842   7.243   8.092 -1.5620  0.3641 -0.8288
   62MOL   H15317355   1.816   7.312   0.244  0.6734  1.1265  0.1195
   62MOL   H15417356   1.717   7.372   7.926 -0.8903  0.3994 -0.0116
   62MOL   H15517357   1.551   7.540   7.871 -0.0410  3.1269  0.5655
   62MOL   C15617358   1.972   7.190   0.177 -0.0102  0.6341  0.4224
   62MOL   C15717359   1.998   7.089   0.080  0.3493  0.4881  0.0973
   62MOL   C15817360   2.118   7.022   0.082 -0.1506  0.2534 -0.3025
   62MOL   C15917361   2.219   7.045   0.184  0.3161 -0.3733  0.4856
   62MOL   C16017362   2.347   6.982   0.176 -0.3468 -0.1296 -0.8123
   62MOL   C16117363   2.386   6.880   0.109 -0.0738  0.3638 -0.3302
   62MOL   C16217364   2.191   7.136   0.284  0.2639  0.1215 -0.0989
   62MOL   C16317365   2.069   7.212   0.279 -0.3422 -0.1157 -0.4133
   62MOL   H16417366   1.923   7.063   0.007  1.5884 -1.0403 -0.6714
   62MOL   H16517367   2.141   6.942   0.012  3.4148  1.7308 -0.9153
   62MOL   H16617368   2.428   7.017   0.238 -0.7520 -0.4381 -0.1056
   62MOL   H16717369   2.315   6.837   0.040 -1.7896  2.0036  0.3918
   62MOL   H16817370   2.264   7.156   0.362 -1.9509  0.6904  1.8818
   62MOL   H16917371   2.055   7.294   0.347  2.8901  0.6896 -0.6236
   62MOL   C17017372   2.512   6.805   0.113  0.3257  0.5833  0.5705
   62MOL   C17117373   2.597   6.817   0.222  0.3058  0.1806 -0.0593
   62MOL   C17217374   2.708   6.738   0.232  0.3939  0.7648  0.0603
   62MOL   C17317375   2.749   6.651   0.128 -1.2110 -0.5948  0.1156
   62MOL   C17417376   2.878   6.574   0.135  0.0517 -0.5442 -0.3392
   62MOL   C17517377   2.922   6.474   0.056  0.3044  0.0069 -0.3847
   62MOL   C17617378   2.671   6.650   0.008  0.6503  0.3792 -0.1486
   62MOL   C17717379   2.548   6.720   0.006 -0.3263 -0.0180  1.0745
   62MOL   H17817380   2.567   6.871   0.310  2.4105 -2.2968  2.2680
   62MOL   H17917381   2.759   6.734   0.327 -2.1832 -0.1726  1.4495
   62MOL   H18017382   2.942   6.599   0.218 -0.2480 -4.3541  1.1128
   62MOL   H18117383   2.854   6.434   8.127 -1.8244 -0.0318  1.5739
   62MOL   H18217384   2.700   6.583   8.073 -2.1542 -2.6368  1.2307
   62MOL   H18317385   2.487   6.707   8.063  1.3656  0.5651 -0.2341
   62MOL   C18417386   3.046   6.405   0.069 -0.1769  0.2022  0.7824
   62MOL   C18517387   3.109   6.375   0.190  0.1440 -0.6422  0.3387
   62MOL   C18617388   3.230   6.305   0.198 -0.0964  0.0410  0.4606
   62MOL   C18717389   3.291   6.258   0.082 -0.2681  0.3016  0.0670
   62MOL   C18817390   3.419   6.191   0.079  0.0216  0.3898 -0.5017
   62MOL   C18917391   3.463   6.116   0.185  0.0034 -0.5679 -0.0402
   62MOL   C19017392   3.230   6.290   8.104  0.0380  0.1614  0.3339
   62MOL   C19117393   3.110   6.357   8.099 -0.0216 -0.1918  0.2761
   62MOL   H19217394   3.072   6.411   0.285 -2.7627 -1.0184 -0.6006
   62MOL   H19317395   3.277   6.285   0.293  1.3399 -3.1168 -0.8362
   62MOL   H19417396   3.477   6.198   8.133  2.1262 -1.1927  0.7042
   62MOL   H19517397   3.401   6.109   0.274 -0.2063 -0.1530 -0.1505
   62MOL   H19617398   3.275   6.260   8.010  0.1761  1.1858  0.0714
   62MOL   H19717399   3.073   6.377   8.000 -0.9833 -0.6627  0.5354
   62MOL   C19817400   3.584   6.042   0.193 -0.6114  0.3269 -0.3097
   62MOL   C19917401   3.692   6.046   0.102 -0.5551  0.5890 -0.2502
   62MOL   C20017402   3.810   5.974   0.129 -1.0877  0.0188 -0.8859
   62MOL   C20117403   3.817   5.896   0.244 -0.1254 -0.0915 -0.4227
   62MOL   C20217404   3.946   5.837   0.288  0.7315  0.1871  0.4601
   62MOL   C20317405   4.045   5.807   0.206 -0.1762  0.3994  0.1101
   62MOL   C20417406   3.713   5.893   0.337 -0.6599 -0.2477 -0.4623
   62MOL   C20517407   3.597   5.966   0.311  0.0995  0.0512 -0.0352
   62MOL   H20617408   3.679   6.105   0.012  0.1697 -0.6793 -1.2133
   62MOL   H20717409   3.885   5.988   0.053 -2.1412  1.8036 -1.6331
   62MOL   H20817410   3.962   5.816   0.392  1.6839 -0.3988  0.2066
   62MOL   H20917411   4.028   5.814   0.099 -0.5632  1.1428  0.2130
   62MOL   H21017412   3.723   5.839   0.430 -0.3123 -1.8654 -1.4145
   62MOL   H21117413   3.521   5.983   0.386  1.0985 -0.7163  1.1382
   62MOL   C21217414   4.178   5.758   0.246 -0.2332  0.3534 -0.3756
   62MOL   C21317415   4.215   5.761   0.382 -0.6030  0.4637  0.4659
   62MOL   C21417416   4.333   5.702   0.421  0.7350 -0.8282  0.6282
   62MOL   C21517417   4.427   5.647   0.330 -0.4386  0.3311  0.1625
   62MOL   C21617418   4.565   5.606   0.376 -0.0577 -0.1934 -0.0391
   62MOL   C21717419   4.658   5.547   0.298  0.3874  0.0173  0.4836
   62MOL   C21817420   4.389   5.643   0.195 -0.3105 -0.4368 -0.0830
   62MOL   C21917421   4.264   5.701   0.151  0.2451  0.2455  0.0052
   62MOL   H22017422   4.146   5.799   0.457 -0.8494 -0.9660  0.9823
   62MOL   H22117423   4.365   5.708   0.524  1.0985  1.4230  0.4045
   62MOL   H22217424   4.576   5.628   0.481 -1.3244 -4.0974  0.9936
   62MOL   H22317425   4.634   5.524   0.196  1.7029 -0.4448  0.2600
   62MOL   H22417426   4.451   5.594   0.121  0.6871 -0.4048  0.7244
   62MOL   H22517427   4.233   5.685   0.049  0.5373  1.5668 -0.2993
   62MOL   C22617428   4.793   5.504   0.344  0.0511 -1.2157 -0.2237
   62MOL   C22717429   4.832   5.479   0.481  0.3796 -0.0329 -0.7371
   62MOL   C22817430   4.954   5.418   0.510 -0.0148  0.0743 -0.1340
   62MOL   C22917431   5.038   5.380   0.404 -0.4732  0.4574 -0.7438
   62MOL   C23017432   5.154   5.295   0.432 -0.6449  0.4966 -0.0453
   62MOL   C23117433   5.194   5.196   0.349  0.1809 -0.1674  0.5222
   62MOL   C23217434   5.012   5.422   0.276  0.3805  0.0484 -0.5750
   62MOL   C23317435   4.889   5.483   0.247  0.1732 -0.0485 -0.2080
   62MOL   H23417436   4.770   5.498   0.568  2.4395  0.2238  0.7122
   62MOL   H23517437   4.982   5.403   0.613 -1.7045 -0.8617  0.2111
   62MOL   H23617438   5.214   5.310   0.520 -0.5051 -1.5613  0.2416
   62MOL   H23717439   5.133   5.186   0.260 -0.8077 -0.1547  1.1938
   62MOL   H23817440   5.082   5.408   0.194 -1.8518  0.5571 -2.6359
   62MOL   H23917441   4.878   5.512   0.143  0.5529 -1.8632 -0.7813
   62MOL   C24017442   5.308   5.101   0.361 -0.2151  0.1009 -0.5447
   62MOL   C24117443   5.305   4.978   0.286 -0.5636  0.4459 -0.1908
   62MOL   C24217444   5.406   4.881   0.312  0.2330  0.1988  0.3584
   62MOL   C24317445   5.501   4.896   0.416 -0.1041 -0.4548 -0.2859
   62MOL   C24417446   5.608   4.794   0.448 -0.3410  0.1630  0.0761
   62MOL   C24517447   5.691   4.795   0.555 -0.8264 -0.3750 -0.2841
   62MOL   C24617448   5.494   5.010   0.491 -0.1105  0.6030 -0.4155
   62MOL   C24717449   5.408   5.117   0.458 -0.0550  0.4814 -0.0778
   62MOL   H24817450   5.230   4.974   0.208 -1.2366 -1.6130  0.5252
   62MOL   H24917451   5.401   4.788   0.257 -0.8830  1.3623 -1.5691
   62MOL   H25017452   5.618   4.714   0.376 -0.6742  0.2289 -0.0422
   62MOL   H25117453   5.677   4.876   0.625  0.4330  0.4839 -1.0016
   62MOL   H25217454   5.569   5.034   0.564 -1.7430  1.9685  0.8315
   62MOL   H25317455   5.422   5.209   0.513  1.7004 -0.2440  0.7265
   62MOL   C25417456   5.793   4.692   0.590  0.8450  0.3895 -0.1738
   62MOL   C25517457   5.859   4.618   0.488 -0.2872 -0.5769  0.3221
   62MOL   C25617458   5.937   4.504   0.518 -0.1829 -0.6926 -0.0702
   62MOL   C25717459   5.965   4.473   0.651  0.0079 -0.0657 -0.4874
   62MOL   C25817460   6.072   4.391   0.695 -0.3976  0.2553  0.6101
   62MOL   C25917461   6.102   4.265   0.653 -0.3501 -0.1868  0.6212
   62MOL   C26017462   5.903   4.548   0.754 -0.0540 -0.0317  0.4053
   62MOL   C26117463   5.815   4.651   0.719  0.1966 -0.4211 -0.8765
   62MOL   H26217464   5.850   4.648   0.385 -2.6622 -0.0855  0.6369
   62MOL   H26317465   5.991   4.452   0.440  2.7075  1.5162  0.3571
   62MOL   H26417466   6.132   4.442   0.768  0.7869  0.2161 -0.3296
   62MOL   H26517467   6.194   4.225   0.692  1.6432  3.2404 -0.3997
   62MOL   H26617468   5.917   4.522   0.858 -1.0279  0.7984  0.7495
   62MOL   H26717469   5.764   4.704   0.797 -2.6378 -2.1073 -1.5357
   62MOL   C26817470   6.034   4.168   0.560 -0.8165  0.4824  0.2456
   62MOL   C26917471   5.909   4.186   0.505  0.1767 -0.1034  0.1545
   62MOL   C27017472   5.849   4.095   0.412 -0.0974  0.4543  0.1358
   62MOL   C27117473   5.921   3.981   0.361 -0.1611  0.0870  0.1866
   62MOL   C27217474   5.870   3.891   0.256 -1.0896 -0.2501 -0.0320
   62MOL   C27317475   5.952   3.808   0.186  0.5367 -0.6406  0.2152
   62MOL   C27417476   6.049   3.968   0.412 -0.0044 -0.0445 -0.2756
   62MOL   C27517477   6.108   4.055   0.511 -0.8329  0.2794 -0.3792
   62MOL   H27617478   5.855   4.270   0.546  2.1100  1.6866 -0.8423
   62MOL   H27717479   5.748   4.113   0.380 -1.2532 -1.3939  2.6002
   62MOL   H27817480   5.763   3.896   0.242 -1.0042  2.6686  0.0246
   62MOL   H27917481   6.059   3.819   0.183  0.3863  0.5817 -1.1720
   62MOL   H28017482   6.102   3.876   0.396 -2.0752 -2.1008  3.8230
   62MOL   H28117483   6.205   4.034   0.552 -1.2971 -0.2084  0.5042
   62MOL   H28217484   5.909   3.739   0.114  1.2716  0.3259 -1.1677
   63MOL     C117485   0.156   3.265   2.156  0.1154 -0.3224 -0.6391
   63MOL     C217486   0.065   3.181   2.092 -0.2030 -0.4039 -0.7755
   63MOL     C317487   8.081   3.223   2.061  0.0793 -0.7837 -0.2040
   63MOL     C417488   8.039   3.355   2.101 -0.1045  0.4487 -0.0013
   63MOL     C517489   7.904   3.398   2.077  0.1497 -0.5641 -0.4204
   63MOL     C617490   7.795   3.323   2.043  0.2547 -0.0906 -0.1675
   63MOL     C717491   8.130   3.442   2.162  0.3217  0.5825 -0.1047
   63MOL     C817492   0.117   3.395   2.194  0.1384 -0.2886  0.8470
   63MOL     H917493   0.092   3.079   2.068 -0.4284 -0.9691  1.3117
   63MOL    H1017494   8.016   3.152   2.013  0.2169 -1.8319  1.1413
   63MOL    H1117495   7.893   3.504   2.096  0.0982 -0.7187  0.4601
   63MOL    H1217496   7.810   3.217   2.028  1.5888  0.0243  0.2697
   63MOL    H1317497   8.094   3.533   2.208 -2.5582  0.1508 -1.4022
   63MOL    H1417498   0.177   3.455   2.261 -2.1163  0.3140  2.3865
   63MOL    H1517499   0.246   3.221   2.197 -0.2995  1.4336  2.3367
   63MOL    C1617500   7.652   3.372   2.051  0.0532  0.3924  0.1550
   63MOL    C1717501   7.631   3.506   2.070  0.3962  0.5439  0.0441
   63MOL    C1817502   7.497   3.558   2.069  1.0189  0.0735  0.2978
   63MOL    C1917503   7.381   3.471   2.068  0.7910 -0.2296 -0.0597
   63MOL    C2017504   7.247   3.531   2.073  0.1991  0.5923  0.2941
   63MOL    C2117505   7.131   3.461   2.084 -0.7379  0.0581 -0.6638
   63MOL    C2217506   7.408   3.336   2.060 -0.7688  0.0077  0.0051
   63MOL    C2317507   7.538   3.283   2.044 -0.1009 -0.5614 -0.4251
   63MOL    H2417508   7.709   3.580   2.064 -0.4465  1.3741 -0.8426
   63MOL    H2517509   7.491   3.665   2.057 -2.3157 -0.2080 -0.9029
   63MOL    H2617510   7.255   3.637   2.058 -1.0571  0.9610  2.0729
   63MOL    H2717511   7.129   3.354   2.097 -2.7002  0.0269 -1.0854
   63MOL    H2817512   7.312   3.286   2.059 -0.4591 -0.5816 -0.1932
   63MOL    H2917513   7.544   3.176   2.036  0.3237 -0.4905 -1.1769
   63MOL    C3017514   6.996   3.519   2.066  0.0066  0.2926 -0.1376
   63MOL    C3117515   6.968   3.661   2.054 -0.1250  0.1747  0.5753
   63MOL    C3217516   6.843   3.711   2.027 -0.0069  0.3334  0.3125
   63MOL    C3317517   6.733   3.628   2.017 -0.5199  0.5281  0.5003
   63MOL    C3417518   6.602   3.694   1.998 -0.0334 -0.6439  0.3322
   63MOL    C3517519   6.486   3.627   1.983  0.1243  0.1377 -0.3264
   63MOL    C3617520   6.751   3.484   2.036 -0.3844  0.5449 -0.0756
   63MOL    C3717521   6.885   3.431   2.063 -0.5401 -0.3853 -0.7626
   63MOL    H3817522   7.051   3.731   2.056 -0.1806  0.2575  0.1783
   63MOL    H3917523   6.827   3.817   2.010 -2.2370  0.1410  1.1111
   63MOL    H4017524   6.602   3.801   1.993 -0.9058 -0.6767 -0.7875
   63MOL    H4117525   6.484   3.520   1.971  0.7958 -0.0239  1.0118
   63MOL    H4217526   6.668   3.416   2.023  0.1371 -0.0713 -0.2165
   63MOL    H4317527   6.901   3.324   2.064  1.4832 -0.0974  1.0798
   63MOL    C4417528   6.354   3.692   1.981  0.5481 -0.5926  0.2130
   63MOL    C4517529   6.338   3.833   1.969 -0.4195 -0.2546 -0.0047
   63MOL    C4617530   6.210   3.882   1.942 -0.4266  0.3709 -0.4136
   63MOL    C4717531   6.097   3.801   1.951  0.1322  0.4321  0.4590
   63MOL    C4817532   5.964   3.861   1.952  0.4555 -0.0860 -0.0203
   63MOL    C4917533   5.846   3.810   1.973 -0.0007  0.8983 -0.0191
   63MOL    C5017534   6.119   3.662   1.980  0.6677  0.2417 -0.4973
   63MOL    C5117535   6.245   3.605   1.987  0.1521  0.5777 -0.1637
   63MOL    H5217536   6.423   3.898   1.949  1.1431 -2.2566 -0.0078
   63MOL    H5317537   6.201   3.986   1.915 -0.7195 -0.5894 -4.3139
   63MOL    H5417538   5.971   3.968   1.934  0.0890 -0.5980 -3.3784
   63MOL    H5517539   5.844   3.704   1.995 -2.1481  1.1810  1.2250
   63MOL    H5617540   6.039   3.591   1.999  0.7021  0.8359  2.1854
   63MOL    H5717541   6.269   3.500   1.995 -2.6016 -0.1350 -0.5901
   63MOL    C5817542   5.707   3.867   1.966  0.4232 -0.3272  0.1830
   63MOL    C5917543   5.682   4.002   1.930  0.1194 -0.7037 -0.0531
   63MOL    C6017544   5.557   4.065   1.935 -0.0196  0.0826  0.0417
   63MOL    C6117545   5.445   3.992   1.967  0.1256  0.6037  0.2662
   63MOL    C6217546   5.307   4.050   1.974  0.0516  0.2376  0.0857
   63MOL    C6317547   5.264   4.176   1.952  0.1951 -0.4461 -0.6917
   63MOL    C6417548   5.463   3.855   2.005  0.6289  0.2491  0.1174
   63MOL    C6517549   5.594   3.793   2.008  0.1863  0.1309  0.2326
   63MOL    H6617550   5.758   4.072   1.897  1.8664 -1.5157  2.1352
   63MOL    H6717551   5.546   4.167   1.902 -0.5422 -0.7199 -2.4162
   63MOL    H6817552   5.227   3.982   1.998 -1.2745  1.2980 -1.2136
   63MOL    H6917553   5.343   4.248   1.936  1.1392 -0.7971  2.1654
   63MOL    H7017554   5.382   3.789   2.035  1.6291 -1.7771 -1.4593
   63MOL    H7117555   5.607   3.693   2.047  1.1767 -0.2825 -1.1325
   63MOL    C7217556   5.129   4.225   1.951 -0.1073 -0.6691 -0.0271
   63MOL    C7317557   5.096   4.351   1.895  0.1645 -0.3396  0.1957
   63MOL    C7417558   4.968   4.404   1.914 -0.5775  0.3265 -0.4044
   63MOL    C7517559   4.861   4.338   1.979 -0.5317 -0.2314  0.7354
   63MOL    C7617560   4.728   4.398   1.989 -0.3713  0.7556  0.1284
   63MOL    C7717561   4.681   4.497   1.918  0.2876 -0.0874 -0.2066
   63MOL    C7817562   4.896   4.208   2.028 -0.0069 -0.5369  0.4931
   63MOL    C7917563   5.027   4.159   2.022  0.5973  0.6223  0.2939
   63MOL    H8017564   5.174   4.405   1.844  0.7256 -1.0090  0.3285
   63MOL    H8117565   4.948   4.501   1.871  2.0277  0.1689 -2.0851
   63MOL    H8217566   4.671   4.359   2.073  1.2293 -0.7111  0.5617
   63MOL    H8317567   4.735   4.526   1.829  0.8412 -1.7362 -0.4237
   63MOL    H8417568   4.821   4.143   2.069  0.0547 -0.8280  0.1459
   63MOL    H8517569   5.032   4.065   2.076 -1.1569  1.2220  1.5358
   63MOL    C8617570   4.551   4.564   1.956 -0.0542 -0.5589  0.3454
   63MOL    C8717571   4.534   4.683   1.891 -0.2523 -0.7134  0.1454
   63MOL    C8817572   4.434   4.768   1.916  0.2457 -0.4143  0.5622
   63MOL    C8917573   4.332   4.741   2.009 -0.3476  0.1186 -0.0295
   63MOL    C9017574   4.205   4.824   2.024  0.1562 -0.3728 -0.3122
   63MOL    C9117575   4.156   4.916   1.937 -0.0017  0.4221  0.0138
   63MOL    C9217576   4.349   4.625   2.081 -0.5454  0.3559 -0.2297
   63MOL    C9317577   4.461   4.539   2.063  0.0997 -0.1954  0.0415
   63MOL    H9417578   4.607   4.717   1.818 -4.6905  3.9646 -2.3802
   63MOL    H9517579   4.427   4.860   1.859 -0.2613 -0.8665 -0.1032
   63MOL    H9617580   4.146   4.807   2.113  0.5600 -3.4927 -0.5896
   63MOL    H9717581   4.216   4.923   1.848  1.4605 -3.6989  0.5579
   63MOL    H9817582   4.281   4.602   2.162  1.2364 -0.4356  1.0683
   63MOL    H9917583   4.474   4.452   2.127  1.1244 -0.0145  0.0868
   63MOL   C10017584   4.027   4.995   1.948 -0.0951  0.1285  0.0356
   63MOL   C10117585   4.025   5.118   1.880  0.9121 -0.6728 -1.1773
   63MOL   C10217586   3.908   5.201   1.882 -0.1827  0.5034  0.7207
   63MOL   C10317587   3.799   5.152   1.955  0.0529  0.1297  0.2770
   63MOL   C10417588   3.688   5.241   1.971 -0.0665  0.3004  0.7667
   63MOL   C10517589   3.572   5.213   2.031 -0.4910  0.1729 -0.0356
   63MOL   C10617590   3.800   5.028   2.021  0.0925  0.1242  0.4353
   63MOL   C10717591   3.914   4.950   2.023 -0.5554  0.0743  0.0594
   63MOL   H10817592   4.109   5.162   1.829  1.4585 -0.0004  0.2830
   63MOL   H10917593   3.901   5.293   1.827  1.1201 -0.2250 -0.6963
   63MOL   H11017594   3.709   5.339   1.931 -2.8144  0.6191  0.0210
   63MOL   H11117595   3.561   5.118   2.079 -0.9088  0.5594  0.6383
   63MOL   H11217596   3.707   4.990   2.060  0.5315 -0.0938  1.2946
   63MOL   H11317597   3.909   4.849   2.059  2.3136  0.5284  1.9440
   63MOL   C11417598   3.455   5.303   2.030  0.1059  0.5195  0.0714
   63MOL   C11517599   3.447   5.413   1.935  0.7263 -1.0542 -0.3921
   63MOL   C11617600   3.338   5.501   1.940 -0.4760  0.4458 -0.2367
   63MOL   C11717601   3.228   5.469   2.026 -0.2207  0.0626 -1.1179
   63MOL   C11817602   3.112   5.563   2.020  0.3891 -0.3584 -0.9193
   63MOL   C11917603   2.987   5.550   2.059  0.4865  0.9714 -0.4277
   63MOL   C12017604   3.227   5.357   2.110 -0.1322  0.0358 -0.0342
   63MOL   C12117605   3.343   5.279   2.112 -0.2086  0.1566  0.1034
   63MOL   H12217606   3.520   5.442   1.862  2.1971 -1.5928  0.8362
   63MOL   H12317607   3.336   5.586   1.874 -1.7286  1.0096  0.5123
   63MOL   H12417608   3.135   5.658   1.973  3.4694 -0.0663  1.0206
   63MOL   H12517609   2.965   5.450   2.094 -0.7084  0.5964 -2.1470
   63MOL   H12617610   3.139   5.335   2.168 -0.3929 -1.4613 -0.9560
   63MOL   H12717611   3.355   5.201   2.187  0.0243  1.2344  1.2000
   63MOL   C12817612   2.877   5.642   2.043 -0.0859 -0.6007  0.1487
   63MOL   C12917613   2.745   5.585   2.030  0.1221 -0.3497 -0.4122
   63MOL   C13017614   2.642   5.669   1.989  0.1865  0.2536  0.4177
   63MOL   C13117615   2.660   5.809   1.972  0.7015  0.2632  0.1019
   63MOL   C13217616   2.549   5.896   1.930  0.9575  0.1897  0.7067
   63MOL   C13317617   2.430   5.856   1.874 -0.0902  0.3120  0.1069
   63MOL   C13417618   2.787   5.860   1.982 -0.0695  0.2176 -0.0377
   63MOL   C13517619   2.896   5.780   2.012  0.0392  0.7486  0.2239
   63MOL   H13617620   2.719   5.483   2.053  2.2185 -1.0692 -1.0778
   63MOL   H13717621   2.542   5.630   1.981 -0.3377  1.5474  0.6098
   63MOL   H13817622   2.564   6.001   1.948  0.0005  0.4094  0.2868
   63MOL   H13917623   2.416   5.750   1.854 -1.1373  0.1567  1.5749
   63MOL   H14017624   2.804   5.967   1.973  0.5471  0.0292 -1.1408
   63MOL   H14117625   2.995   5.821   2.018 -0.7052  2.3276  2.4533
   63MOL   C14217626   2.316   5.941   1.832 -0.6617  0.0153  0.0858
   63MOL   C14317627   2.203   5.881   1.772  0.3824  0.3496 -0.0405
   63MOL   C14417628   2.087   5.952   1.733 -0.9646  0.4612  0.0184
   63MOL   C14517629   2.089   6.089   1.759  0.1627  0.5434  0.3806
   63MOL   C14617630   1.965   6.169   1.724 -0.6125 -1.1526  0.4305
   63MOL   C14717631   1.854   6.123   1.672 -0.7157 -0.1470  0.4237
   63MOL   C14817632   2.194   6.152   1.822 -0.4427  0.5669 -0.0506
   63MOL   C14917633   2.310   6.079   1.856  0.9077 -0.8539 -0.3773
   63MOL   H15017634   2.201   5.774   1.757 -1.2479 -0.4549  4.7455
   63MOL   H15117635   2.020   5.891   1.674 -0.8546 -0.0186  0.3851
   63MOL   H15217636   1.978   6.274   1.748 -0.5209 -1.0216 -0.1733
   63MOL   H15317637   1.845   6.017   1.653  0.2968 -0.4799  1.7630
   63MOL   H15417638   2.183   6.256   1.848 -0.1368  0.2065  1.5392
   63MOL   H15517639   2.389   6.136   1.902  1.2798 -0.4645 -1.4821
   63MOL   C15617640   1.744   6.212   1.646  0.2886  0.6625  0.0832
   63MOL   C15717641   1.650   6.165   1.549  0.7514 -0.5175 -0.0629
   63MOL   C15817642   1.528   6.235   1.530 -0.5412 -0.2957  0.2387
   63MOL   C15917643   1.498   6.357   1.598 -0.5667  0.4139  0.1376
   63MOL   C16017644   1.367   6.421   1.572 -0.2189 -0.2372 -0.1098
   63MOL   C16117645   1.291   6.407   1.466 -0.4038  0.3007 -0.2144
   63MOL   C16217646   1.600   6.408   1.683 -0.0509 -0.6082  0.2401
   63MOL   C16317647   1.718   6.342   1.711 -0.5234  0.1909  0.6459
   63MOL   H16417648   1.667   6.073   1.497 -1.2406 -0.6067 -0.5999
   63MOL   H16517649   1.460   6.186   1.461 -0.3096  0.5348 -0.6014
   63MOL   H16617650   1.336   6.483   1.654 -0.6378 -0.8201  0.1786
   63MOL   H16717651   1.335   6.343   1.391 -0.0914 -0.1985  0.3943
   63MOL   H16817652   1.585   6.501   1.736  2.0067  0.4749 -1.0207
   63MOL   H16917653   1.787   6.377   1.787  0.2125  0.3658 -0.0972
   63MOL   C17017654   1.154   6.456   1.435  0.4847 -0.5389  0.5861
   63MOL   C17117655   1.076   6.386   1.338 -1.1656 -0.4767 -0.7556
   63MOL   C17217656   0.944   6.423   1.310  0.4200 -0.2014  0.9694
   63MOL   C17317657   0.885   6.534   1.378  0.5300 -0.1531  0.5963
   63MOL   C17417658   0.750   6.576   1.343  0.7356 -0.0302  0.6211
   63MOL   C17517659   0.686   6.688   1.383 -0.2427 -0.2721 -0.0715
   63MOL   C17617660   0.959   6.602   1.482  0.4611  0.5617 -0.5978
   63MOL   C17717661   1.091   6.566   1.507 -0.5201  0.4780 -0.5563
   63MOL   H17817662   1.119   6.298   1.292 -1.4016 -1.5821  1.1180
   63MOL   H17917663   0.892   6.366   1.235  0.4640  0.1970  0.6275
   63MOL   H18017664   0.696   6.506   1.281 -0.1006  1.6414 -0.5981
   63MOL   H18117665   0.730   6.758   1.452 -0.5760 -1.5054  1.4405
   63MOL   H18217666   0.917   6.678   1.547  0.9918 -0.4609  0.9905
   63MOL   H18317667   1.142   6.611   1.590 -0.7279  1.8665 -1.1711
   63MOL   C18417668   0.559   6.731   1.324 -0.7911  0.1796  0.4825
   63MOL   C18517669   0.501   6.677   1.209  0.1917 -0.0368  0.3807
   63MOL   C18617670   0.380   6.737   1.165  0.8648  0.0795 -0.2120
   63MOL   C18717671   0.314   6.834   1.238  0.2105  0.4714  0.0895
   63MOL   C18817672   0.187   6.884   1.210 -0.6265 -0.4693 -0.1133
   63MOL   C18917673   0.093   6.831   1.131 -0.5104  0.8906 -0.4187
   63MOL   C19017674   0.374   6.885   1.352  0.2601  0.4216  0.5614
   63MOL   C19117675   0.500   6.841   1.395 -1.0101 -0.1596  0.0132
   63MOL   H19217676   0.555   6.604   1.151 -0.8366  0.3116 -1.0576
   63MOL   H19317677   0.338   6.701   1.073 -0.1613  1.8952 -0.4853
   63MOL   H19417678   0.166   6.979   1.257  1.7802  0.2224 -0.3675
   63MOL   H19517679   0.101   6.733   1.086  1.2733 -0.2570  2.2843
   63MOL   H19617680   0.324   6.957   1.415 -1.3530 -1.3794  1.4328
   63MOL   H19717681   0.536   6.891   1.483  0.6048 -0.2654 -0.5755
   63MOL   C19817682   8.108   6.891   1.109  0.5352 -0.1029  0.6594
   63MOL   C19917683   8.052   6.991   1.198 -0.0791 -0.5017 -0.5182
   63MOL   C20017684   7.931   7.054   1.169 -0.2310 -0.0778 -0.3355
   63MOL   C20117685   7.855   7.012   1.059  0.6876 -0.4709  0.4291
   63MOL   C20217686   7.724   7.078   1.033 -0.6004 -0.0882 -0.1183
   63MOL   C20317687   7.647   7.023   0.938  0.5270 -0.0453  0.3308
   63MOL   C20417688   7.914   6.916   0.969  0.2509 -0.0824  0.0220
   63MOL   C20517689   8.039   6.858   0.996  0.2847  0.0418  0.6506
   63MOL   H20617690   8.100   7.008   1.294 -0.6135  1.5570 -0.5992
   63MOL   H20717691   7.906   7.139   1.231  1.9025 -0.0158  0.4734
   63MOL   H20817692   7.703   7.167   1.091  1.0182 -0.5856  1.2726
   63MOL   H20917693   7.674   6.940   0.874  0.4449  0.0640  0.1524
   63MOL   H21017694   7.863   6.886   0.878  0.3068 -1.0072  0.2911
   63MOL   H21117695   8.082   6.788   0.926  0.3462  0.4603  0.2707
   63MOL   C21217696   7.523   7.082   0.901  0.7098  0.1774  1.1575
   63MOL   C21317697   7.476   7.198   0.966  0.5255 -0.4289  0.1649
   63MOL   C21417698   7.343   7.250   0.937 -0.0837 -0.0865 -0.1668
   63MOL   C21517699   7.252   7.181   0.852 -0.5133  0.6716 -0.3678
   63MOL   C21617700   7.119   7.242   0.831 -0.0000 -1.0796 -0.4042
   63MOL   C21717701   7.019   7.185   0.765 -0.3061  0.1908  0.3206
   63MOL   C21817702   7.302   7.065   0.788  0.0665 -0.0268  0.0849
   63MOL   C21917703   7.430   7.013   0.820 -0.0115  0.3687 -0.4866
   63MOL   H22017704   7.531   7.260   1.035  2.5743 -0.9726 -0.9486
   63MOL   H22117705   7.321   7.350   0.972 -0.8451  0.3093 -1.7258
   63MOL   H22217706   7.112   7.342   0.872  2.1318 -0.4636 -1.4552
   63MOL   H22317707   7.031   7.086   0.722 -0.8251  0.0572  0.4756
   63MOL   H22417708   7.245   7.011   0.714  1.1800 -0.1372 -0.7116
   63MOL   H22517709   7.455   6.919   0.773  1.1190  0.7790 -0.7404
   63MOL   C22617710   6.888   7.252   0.741  0.4927  0.1366 -0.0993
   63MOL   C22717711   6.789   7.179   0.681 -0.4114 -0.0735  0.5535
   63MOL   C22817712   6.659   7.219   0.659  0.0177 -0.9419 -0.1148
   63MOL   C22917713   6.625   7.352   0.698 -0.0956  0.0840  0.0891
   63MOL   C23017714   6.493   7.414   0.668 -0.4513  0.7309 -0.0630
   63MOL   C23117715   6.391   7.346   0.605 -0.1081 -0.7750  0.3704
   63MOL   C23217716   6.725   7.432   0.753 -0.5224  0.4747  0.0832
   63MOL   C23317717   6.859   7.385   0.772  0.2928 -0.1620  0.1030
   63MOL   H23417718   6.819   7.081   0.646 -0.5338 -0.3431  1.1950
   63MOL   H23517719   6.588   7.159   0.605 -1.3918 -0.1864  0.8837
   63MOL   H23617720   6.480   7.516   0.699 -2.2015  0.7973 -0.9377
   63MOL   H23717721   6.406   7.247   0.565  0.3606 -1.3130  1.8285
   63MOL   H23817722   6.711   7.535   0.780  2.4098  0.3829  2.0749
   63MOL   H23917723   6.931   7.443   0.829 -1.2790 -0.5205  2.5305
   63MOL   C24017724   6.253   7.392   0.578 -0.4977 -0.0282  0.5590
   63MOL   C24117725   6.202   7.509   0.643  1.0379 -0.1761  0.1931
   63MOL   C24217726   6.072   7.552   0.625 -0.2852 -0.0397  0.2602
   63MOL   C24317727   5.990   7.477   0.537  0.5365 -0.0406 -0.4401
   63MOL   C24417728   5.853   7.524   0.520  0.4167 -0.0662  0.0341
   63MOL   C24517729   5.760   7.487   0.428 -0.5942  0.1579  0.5717
   63MOL   C24617730   6.032   7.360   0.471 -0.0851  0.1895  0.1142
   63MOL   C24717731   6.172   7.328   0.479  0.0414 -0.5030 -0.4887
   63MOL   H24817732   6.261   7.564   0.715  0.7865  2.8213 -1.7938
   63MOL   H24917733   6.037   7.644   0.667 -1.2124  0.0131 -0.6106
   63MOL   H25017734   5.827   7.601   0.592  0.3311  0.9148 -1.0165
   63MOL   H25117735   5.795   7.410   0.361 -0.6675  0.0118  0.7014
   63MOL   H25217736   5.977   7.291   0.409  0.3406 -0.8091  0.8182
   63MOL   H25317737   6.204   7.240   0.425  0.2305 -1.0907  0.5807
   63MOL   C25417738   5.628   7.539   0.401  0.5442 -0.2551 -0.0679
   63MOL   C25517739   5.563   7.637   0.486 -0.3633  0.2248 -0.0500
   63MOL   C25617740   5.433   7.685   0.452  0.0344 -0.2110  0.2744
   63MOL   C25717741   5.364   7.637   0.340  0.0302  0.0000  0.7026
   63MOL   C25817742   5.233   7.685   0.287  0.0739  0.2175  0.0140
   63MOL   C25917743   5.172   7.807   0.294 -0.4098  1.0714 -0.0564
   63MOL   C26017744   5.427   7.533   0.269 -0.5601  0.5060  0.7433
   63MOL   C26117745   5.553   7.486   0.298  0.3205  0.6615  0.7561
   63MOL   H26217746   5.622   7.673   0.569 -1.0568  0.0190  0.5281
   63MOL   H26317747   5.399   7.770   0.509  1.2371  0.0841  0.5701
   63MOL   H26417748   5.182   7.606   0.234 -1.1412  1.3743 -0.5810
   63MOL   H26517749   5.071   7.822   0.258 -0.6554 -0.8958 -0.2171
   63MOL   H26617750   5.379   7.498   0.180 -3.1862 -1.0807  2.6997
   63MOL   H26717751   5.584   7.408   0.230 -0.1171  2.5651 -1.7362
   63MOL   C26817752   5.229   7.927   0.353  0.2682  0.2683  0.3579
   63MOL   C26917753   5.164   8.002   0.453 -0.0336 -0.7763 -0.6132
   63MOL   C27017754   5.221   8.126   0.497  0.3178 -0.0361 -0.4828
   63MOL   C27117755   5.350   0.029   0.451 -0.1935  0.6782 -0.1540
   63MOL   C27217756   5.406   0.154   0.503  0.4880  0.1918  1.1844
   63MOL   C27317757   5.518   0.216   0.453  0.3450  0.5524 -0.2805
   63MOL   C27417758   5.412   8.093   0.350  0.1269 -0.7625 -0.0637
   63MOL   C27517759   5.349   7.979   0.302  0.3762  0.4547 -0.2391
   63MOL   H27617760   5.065   7.971   0.481 -0.8164  1.3715 -0.8612
   63MOL   H27717761   5.164   0.025   0.578  0.6946 -1.9980  0.8593
   63MOL   H27817762   5.362   0.200   0.590 -0.0259  0.8878  0.5605
   63MOL   H27917763   5.572   0.176   0.369 -0.4718  3.1851 -2.1116
   63MOL   H28017764   5.503   8.133   0.309  0.0262 -1.7342 -1.2500
   63MOL   H28117765   5.393   7.934   0.214  0.5740 -2.5177  1.3330
   63MOL   H28217766   5.558   0.306   0.497  1.8503 -1.3079  2.3080
   64MOL     C117767   5.702   7.580   2.807 -0.0645  0.3818  0.6757
   64MOL     C217768   5.798   7.618   2.714  0.5700 -0.1549 -0.2322
   64MOL     C317769   5.934   7.620   2.746  0.7552  0.3778 -0.2104
   64MOL     C417770   5.980   7.581   2.872  0.6504  0.1983 -0.0856
   64MOL     C517771   6.121   7.568   2.896  0.2424  0.9608 -0.6920
   64MOL     C617772   6.180   7.564   3.017 -0.2373  0.1262  0.1804
   64MOL     C717773   5.883   7.537   2.966 -0.1929  0.0267  0.4071
   64MOL     C817774   5.751   7.547   2.935 -0.1766 -0.0067  0.1513
   64MOL     H917775   5.766   7.648   2.615 -0.3903 -1.5229 -0.3504
   64MOL    H1017776   6.012   7.642   2.674 -0.0478 -0.9002 -1.5035
   64MOL    H1117777   6.179   7.566   2.804  1.5081 -0.1423  0.1261
   64MOL    H1217778   6.122   7.568   3.109 -0.0011  1.6907  0.2812
   64MOL    H1317779   5.911   7.523   3.070  2.8403  1.4744 -0.1388
   64MOL    H1417780   5.680   7.522   3.013 -1.2247  1.3609 -0.3382
   64MOL    H1517781   5.595   7.589   2.790  0.4180  0.7402 -2.5001
   64MOL    C1617782   6.322   7.548   3.037  0.6612  0.5729  0.2144
   64MOL    C1717783   6.371   7.523   3.169 -0.0009  0.6529  0.0703
   64MOL    C1817784   6.510   7.519   3.189  0.8493  0.4671 -0.2265
   64MOL    C1917785   6.592   7.523   3.080 -0.3120  0.1578  0.9334
   64MOL    C2017786   6.730   7.484   3.094 -0.0392 -0.6839  0.0428
   64MOL    C2117787   6.801   7.477   3.207 -0.0874  0.3180 -0.4836
   64MOL    C2217788   6.547   7.541   2.947  0.2388 -0.3717 -0.4235
   64MOL    C2317789   6.409   7.558   2.926  0.0809  0.5814 -0.1136
   64MOL    H2417790   6.295   7.530   3.246  0.2801 -0.5131  0.4715
   64MOL    H2517791   6.549   7.505   3.289 -0.9085  0.9992  0.5702
   64MOL    H2617792   6.777   7.454   3.002  0.0059 -1.6042  0.3605
   64MOL    H2717793   6.740   7.486   3.296 -2.2314 -3.0651 -1.5127
   64MOL    H2817794   6.615   7.537   2.863  2.1832 -0.4426  1.1207
   64MOL    H2917795   6.374   7.596   2.831 -0.4270 -1.3763 -0.7257
   64MOL    C3017796   6.945   7.446   3.219 -0.7493 -0.7483  0.2612
   64MOL    C3117797   7.032   7.424   3.109 -0.4322  0.1393  0.2803
   64MOL    C3217798   7.167   7.392   3.137  0.9094  0.3734  0.4890
   64MOL    C3317799   7.208   7.372   3.269  0.6631 -0.1546 -0.0480
   64MOL    C3417800   7.347   7.333   3.279 -0.4397 -0.0085 -0.0002
   64MOL    C3517801   7.409   7.280   3.384  0.1140 -0.0803 -0.0489
   64MOL    C3617802   7.122   7.405   3.384 -0.2588 -0.1554 -0.5252
   64MOL    C3717803   6.993   7.438   3.352  0.8723 -0.0455 -0.4003
   64MOL    H3817804   6.994   7.443   3.010  0.6979  2.4930  0.2846
   64MOL    H3917805   7.237   7.385   3.055 -1.3988 -2.5917 -1.3513
   64MOL    H4017806   7.410   7.357   3.195 -2.7143  2.9262 -0.9239
   64MOL    H4117807   7.353   7.252   3.472 -0.0678  0.1222 -0.0998
   64MOL    H4217808   7.150   7.381   3.485  0.7480  0.3611 -0.6838
   64MOL    H4317809   6.929   7.458   3.437  2.2021  0.7994  0.4365
   64MOL    C4417810   7.552   7.251   3.397 -0.2766  0.0468 -0.2279
   64MOL    C4517811   7.644   7.269   3.292 -0.3231 -0.2710  0.7612
   64MOL    C4617812   7.781   7.246   3.312 -1.1780 -0.0672  0.7386
   64MOL    C4717813   7.824   7.181   3.428 -0.3435 -0.6239 -1.2487
   64MOL    C4817814   7.964   7.137   3.432 -0.0256 -0.3025  0.0768
   64MOL    C4917815   8.037   7.092   3.541 -0.5974  0.5167  0.0163
   64MOL    C5017816   7.740   7.157   3.534  0.6742  0.2615  0.0794
   64MOL    C5117817   7.606   7.198   3.517 -0.2255  0.0733  0.1871
   64MOL    H5217818   7.608   7.294   3.194 -1.9660 -1.2984  1.0798
   64MOL    H5317819   7.854   7.253   3.233 -1.8353 -0.6525  0.0742
   64MOL    H5417820   8.016   7.135   3.337  0.3473 -1.6423  0.3042
   64MOL    H5517821   7.974   7.101   3.628 -1.7086  1.1002 -0.8376
   64MOL    H5617822   7.778   7.102   3.620  0.8376  1.0110  0.4872
   64MOL    H5717823   7.545   7.180   3.604 -1.2132  0.5058 -0.4093
   64MOL    C5817824   0.029   7.037   3.553  0.2669 -0.5967  0.4101
   64MOL    C5917825   0.066   6.966   3.668  0.0442  0.1883 -0.6135
   64MOL    C6017826   0.197   6.914   3.681  0.2807 -0.1281  0.1807
   64MOL    C6117827   0.295   6.935   3.579  0.0930 -0.7654 -0.1932
   64MOL    C6217828   0.437   6.904   3.583  0.0206 -0.0114 -0.6729
   64MOL    C6317829   0.500   6.865   3.697  0.1956 -0.3263 -0.3412
   64MOL    C6417830   0.255   7.005   3.463 -0.4519  0.3905 -0.2240
   64MOL    C6517831   0.120   7.057   3.452 -0.9635 -0.2129  0.1695
   64MOL    H6617832   8.143   6.944   3.750 -2.7707  2.7122 -2.1270
   64MOL    H6717833   0.231   6.873   3.775  1.8455  3.2406  1.1433
   64MOL    H6817834   0.494   6.911   3.492  0.2097  0.1103 -0.5445
   64MOL    H6917835   0.446   6.869   3.790  1.3787 -0.2312  0.3446
   64MOL    H7017836   0.324   7.025   3.383 -0.9646  0.5608 -0.6270
   64MOL    H7117837   0.090   7.109   3.363 -0.9927 -0.9399 -0.2555
   64MOL    C7217838   0.640   6.818   3.705  0.4120 -0.6130 -0.1915
   64MOL    C7317839   0.679   6.763   3.832  0.6418 -1.4447  0.2614
   64MOL    C7417840   0.811   6.726   3.854 -0.7685  0.1031 -0.2649
   64MOL    C7517841   0.908   6.748   3.756 -0.1158 -0.0452 -0.0198
   64MOL    C7617842   1.044   6.707   3.774  0.1896  0.6031  0.7761
   64MOL    C7717843   1.100   6.667   3.889  0.4481 -0.4948  0.0642
   64MOL    C7817844   0.870   6.801   3.629  0.3482  0.1448 -0.2904
   64MOL    C7917845   0.737   6.834   3.605  0.7231 -0.9461 -0.3470
   64MOL    H8017846   0.613   6.771   3.917 -0.3239  1.2443 -0.6879
   64MOL    H8117847   0.832   6.683   3.951  1.8411  2.5738  0.3520
   64MOL    H8217848   1.097   6.704   3.681 -1.2531  0.7213 -0.0745
   64MOL    H8317849   1.035   6.676   3.975 -0.2517  0.4152 -0.5525
   64MOL    H8417850   0.944   6.838   3.559 -0.2975  0.9791 -0.5466
   64MOL    H8517851   0.709   6.879   3.511  1.9601 -0.8594 -0.6728
   64MOL    C8617852   1.238   6.610   3.907  0.0274  0.3513 -0.3466
   64MOL    C8717853   1.333   6.594   3.801 -0.3871 -0.6221  0.0969
   64MOL    C8817854   1.454   6.528   3.822 -0.0579  0.9378  0.2645
   64MOL    C8917855   1.496   6.490   3.952  0.5598 -0.2528 -0.2585
   64MOL    C9017856   1.623   6.426   3.983 -0.1203  0.2428  0.1602
   64MOL    C9117857   1.715   6.379   3.895  0.4678 -0.1012  0.4365
   64MOL    C9217858   1.407   6.514   4.056  0.5479 -0.3053  0.3254
   64MOL    C9317859   1.276   6.568   4.034  0.3460 -1.2477 -0.0809
   64MOL    H9417860   1.291   6.621   3.706  1.4519 -0.3748 -0.6602
   64MOL    H9517861   1.523   6.510   3.741 -2.4246 -0.1903 -1.5469
   64MOL    H9617862   1.650   6.407   4.086  0.1633 -1.0749 -0.1432
   64MOL    H9717863   1.688   6.383   3.790  2.1619 -0.7416 -0.0376
   64MOL    H9817864   1.442   6.474   4.150 -1.3072 -1.4342  0.5645
   64MOL    H9917865   1.204   6.582   4.113  1.1571  1.0845  0.2929
   64MOL   C10017866   1.841   6.311   3.931  0.0461  0.9774 -0.3192
   64MOL   C10117867   1.872   6.255   4.060 -0.0360 -0.6409 -0.1056
   64MOL   C10217868   1.988   6.182   4.078 -0.3064 -0.0674 -0.5088
   64MOL   C10317869   2.071   6.150   3.963  0.0320 -0.0763  0.1633
   64MOL   C10417870   2.184   6.057   3.985 -0.0465  0.1364  0.4660
   64MOL   C10517871   2.291   6.049   3.898 -0.0176  0.6455 -0.4644
   64MOL   C10617872   2.031   6.198   3.838 -0.2863  0.7840  0.2574
   64MOL   C10717873   1.923   6.276   3.821 -0.0956 -0.0474 -0.8219
   64MOL   H10817874   1.813   6.272   4.149  0.4202  1.8377 -0.2414
   64MOL   H10917875   2.000   6.127   4.170 -1.0430  0.6039 -0.0124
   64MOL   H11017876   2.187   5.996   4.074 -0.5242 -0.5822 -0.0071
   64MOL   H11117877   2.284   6.121   3.818  0.5509  0.7783 -0.4009
   64MOL   H11217878   2.085   6.177   3.747 -1.8365 -0.6526 -0.3643
   64MOL   H11317879   1.901   6.316   3.724  0.2896  0.6792 -0.6144
   64MOL   C11417880   2.417   5.972   3.899 -1.5997  0.8249  0.0220
   64MOL   C11517881   2.442   5.879   4.000  0.3387 -0.1831 -0.3605
   64MOL   C11617882   2.567   5.810   3.998 -0.3488  0.2601 -0.2908
   64MOL   C11717883   2.664   5.825   3.898  0.4973  0.6521 -0.2584
   64MOL   C11817884   2.793   5.754   3.909 -0.2302  0.2751 -0.2521
   64MOL   C11917885   2.912   5.799   3.860  0.4215  0.8174  0.1499
   64MOL   C12017886   2.640   5.926   3.799  0.3317  0.7466  0.1890
   64MOL   C12117887   2.523   6.000   3.804 -0.2728 -0.4594 -0.0399
   64MOL   H12217888   2.367   5.862   4.075  1.3844  1.4085  1.0982
   64MOL   H12317889   2.589   5.735   4.072 -0.3404  0.3604 -0.1934
   64MOL   H12417890   2.785   5.657   3.956  1.9447  0.5522  0.7550
   64MOL   H12517891   2.920   5.899   3.822 -0.5626  1.2742  1.1195
   64MOL   H12617892   2.713   5.945   3.722  0.6552 -1.1295 -0.0023
   64MOL   H12717893   2.495   6.062   3.721  0.4866 -0.8793 -0.6158
   64MOL   C12817894   3.027   5.718   3.845  0.0605 -0.2159 -0.7082
   64MOL   C12917895   3.139   5.771   3.786 -0.7574  0.3960  0.4092
   64MOL   C13017896   3.265   5.705   3.790  0.2003 -0.0727 -0.3352
   64MOL   C13117897   3.261   5.571   3.836 -0.4865  0.5375  0.2797
   64MOL   C13217898   3.378   5.485   3.831  0.7841 -0.1300  0.2829
   64MOL   C13317899   3.505   5.534   3.819 -0.3112 -0.8694  0.1237
   64MOL   C13417900   3.148   5.514   3.891  0.5260  0.1095 -0.2474
   64MOL   C13517901   3.031   5.584   3.891  0.7703 -0.5145  0.2646
   64MOL   H13617902   3.139   5.867   3.737  2.4516 -0.3639 -1.1914
   64MOL   H13717903   3.350   5.748   3.740 -0.0995  1.9377  0.8227
   64MOL   H13817904   3.355   5.380   3.841 -2.7652  0.6748  1.3955
   64MOL   H13917905   3.511   5.642   3.810 -1.8544 -0.8267 -0.6379
   64MOL   H14017906   3.149   5.412   3.926  0.4009  0.1282 -0.1915
   64MOL   H14117907   2.943   5.532   3.926  0.0692  1.5108  1.6443
   64MOL   C14217908   3.634   5.462   3.819  0.1269 -0.0320  0.5800
   64MOL   C14317909   3.749   5.533   3.865  0.6415  0.1349 -0.7650
   64MOL   C14417910   3.876   5.471   3.863 -0.2186  0.1952 -0.4812
   64MOL   C14517911   3.893   5.335   3.832  0.2154  0.2589 -0.6408
   64MOL   C14617912   4.028   5.277   3.856 -0.2802 -0.4179  0.1748
   64MOL   C14717913   4.059   5.157   3.900 -0.2678 -0.2337 -0.9595
   64MOL   C14817914   3.782   5.263   3.787 -0.4132  0.4727  0.4733
   64MOL   C14917915   3.650   5.323   3.784  0.4133  0.3078 -1.1760
   64MOL   H15017916   3.735   5.637   3.889 -0.2731  0.6096 -3.1895
   64MOL   H15117917   3.959   5.528   3.902  0.4750  0.0251 -1.6805
   64MOL   H15217918   4.109   5.341   3.823  0.7948 -2.0777 -0.4396
   64MOL   H15317919   3.976   5.093   3.927  0.1276 -0.2457  0.2777
   64MOL   H15417920   3.799   5.158   3.769 -0.6760  0.5361 -0.1567
   64MOL   H15517921   3.574   5.258   3.743  0.5383 -0.1793 -0.6375
   64MOL   C15617922   4.194   5.097   3.923 -0.1708 -0.1771  0.0210
   64MOL   C15717923   4.302   5.149   3.855  0.3215 -0.7669  0.0214
   64MOL   C15817924   4.433   5.097   3.866  0.1976  0.1047 -0.0857
   64MOL   C15917925   4.454   4.988   3.955 -0.2727 -0.2430 -0.3950
   64MOL   C16017926   4.588   4.937   3.978  0.7187 -0.9407  0.2074
   64MOL   C16117927   4.699   4.968   3.912 -0.4084 -0.1388 -0.0641
   64MOL   C16217928   4.344   4.925   4.012  0.1484  0.3050  0.7555
   64MOL   C16317929   4.213   4.983   3.995  0.2024  0.2130  0.1214
   64MOL   H16417930   4.301   5.240   3.797  0.6092 -1.1738 -0.6309
   64MOL   H16517931   4.520   5.154   3.836  0.7993  0.2515  1.8871
   64MOL   H16617932   4.587   4.870   4.063 -0.9278 -0.5718  0.5038
   64MOL   H16717933   4.694   5.037   3.829 -0.8366  1.2843  1.1152
   64MOL   H16817934   4.357   4.835   4.070 -1.5850  0.7193  1.8234
   64MOL   H16917935   4.119   4.936   4.019 -1.3440  2.6716 -0.9164
   64MOL   C17017936   4.837   4.910   3.941 -0.1915  0.0448 -0.1340
   64MOL   C17117937   4.947   4.937   3.851  0.0491 -0.6339 -0.6225
   64MOL   C17217938   5.080   4.895   3.889  0.0157  0.2390  0.0394
   64MOL   C17317939   5.098   4.816   4.004 -0.3609  0.3850  0.3225
   64MOL   C17417940   5.231   4.769   4.047 -0.2314 -0.2714 -0.6520
   64MOL   C17517941   5.347   4.817   4.008 -0.0901  0.6856 -0.6257
   64MOL   C17617942   4.985   4.790   4.083 -0.7175  0.0877 -0.2916
   64MOL   C17717943   4.858   4.845   4.058 -0.0234  0.2000  0.1751
   64MOL   H17817944   4.927   5.007   3.771 -0.3642  2.7254  2.3127
   64MOL   H17917945   5.161   4.919   3.823 -0.4911  0.6761 -0.4266
   64MOL   H18017946   5.228   4.693   4.123  1.4137  2.4195  2.2051
   64MOL   H18117947   5.346   4.902   3.942 -1.0253  1.0769 -0.1135
   64MOL   H18217948   5.012   4.738   4.173 -0.0915  0.9595  0.0307
   64MOL   H18317949   4.785   4.836   4.138  2.1080  0.9746  2.2406
   64MOL   C18417950   5.481   4.781   4.046  0.3903 -0.0740 -0.2252
   64MOL   C18517951   5.506   4.680   4.143  0.0620 -0.0179 -0.3139
   64MOL   C18617952   5.637   4.635   4.165  1.0403  0.4315  0.5797
   64MOL   C18717953   5.747   4.696   4.106  0.1060  0.6714 -0.3999
   64MOL   C18817954   5.880   4.651   4.144  0.0330 -0.0828  0.5479
   64MOL   C18917955   6.000   4.705   4.108 -0.3234  0.3112  0.0101
   64MOL   C19017956   5.724   4.795   4.009 -0.2017  0.4701  0.3563
   64MOL   C19117957   5.596   4.837   3.979 -0.0372 -0.1424 -0.6799
   64MOL   H19217958   5.422   4.653   4.205 -1.0766 -1.5801 -2.4789
   64MOL   H19317959   5.648   4.559   4.241 -2.0153 -0.5452  0.1120
   64MOL   H19417960   5.890   4.566   4.209 -0.0910  0.3707  1.1685
   64MOL   H19517961   6.007   4.777   4.028  0.0106 -1.7772 -1.9103
   64MOL   H19617962   5.815   4.840   3.970 -0.2348 -0.5158 -0.8509
   64MOL   H19717963   5.576   4.919   3.911 -0.5080 -0.0966 -0.4933
   64MOL   C19817964   6.125   4.661   4.156 -0.9521 -0.1648 -0.1901
   64MOL   C19917965   6.234   4.681   4.074 -0.2456  0.1634  0.3913
   64MOL   C20017966   6.362   4.645   4.112 -0.1016  0.1760  0.4117
   64MOL   C20117967   6.379   4.598   4.241  0.2494 -0.4918  0.0116
   64MOL   C20217968   6.521   4.575   4.273 -0.2234 -0.1379 -0.0936
   64MOL   C20317969   6.566   4.516   4.381 -0.0606  0.5232  0.2732
   64MOL   C20417970   6.275   4.576   4.332  0.3075  0.3973 -0.6865
   64MOL   C20517971   6.146   4.597   4.278 -0.1075 -0.6818 -0.2421
   64MOL   H20617972   6.229   4.730   3.978  3.0548  1.4097  0.7882
   64MOL   H20717973   6.441   4.654   4.038 -0.3702  2.3139  0.3448
   64MOL   H20817974   6.583   4.607   4.191 -0.6363  0.3261 -0.2318
   64MOL   H20917975   6.500   4.477   4.457 -0.6985  0.1132 -0.4779
   64MOL   H21017976   6.291   4.540   4.433 -0.3880  0.1443 -0.6631
   64MOL   H21117977   6.064   4.569   4.344 -0.2862 -0.5477 -0.4074
   64MOL   C21217978   6.706   4.484   4.404  0.0912  0.5960  0.0940
   64MOL   C21317979   6.740   4.457   4.537  0.2131 -0.3787 -0.4716
   64MOL   C21417980   6.874   4.450   4.572 -0.2836  0.3050  0.3077
   64MOL   C21517981   6.980   4.453   4.478  0.2307 -0.2636  0.8777
   64MOL   C21617982   7.122   4.429   4.507 -0.0154  0.1437  0.0989
   64MOL   C21717983   7.167   4.386   4.631 -0.1468  0.6779 -0.0552
   64MOL   C21817984   6.944   4.463   4.339  0.0129 -0.1245 -0.6577
   64MOL   C21917985   6.808   4.488   4.305  1.1539 -0.3682  0.6047
   64MOL   H22017986   6.663   4.465   4.612 -0.8059  1.6708 -1.6902
   64MOL   H22117987   6.894   4.423   4.675  1.2280  0.6376  0.1106
   64MOL   H22217988   7.194   4.446   4.429 -0.9486 -0.1654 -0.8505
   64MOL   H22317989   7.102   4.392   4.717  0.6818  1.3459  0.5338
   64MOL   H22417990   7.018   4.450   4.261 -0.6375 -0.4490 -1.2299
   64MOL   H22517991   6.783   4.503   4.201 -0.4771  0.2676  1.0712
   64MOL   C22617992   7.309   4.342   4.666  0.1484 -0.8676  0.0586
   64MOL   C22717993   7.396   4.299   4.564 -0.1555 -0.2203  0.6289
   64MOL   C22817994   7.528   4.254   4.592  0.1086 -0.8978 -0.5848
   64MOL   C22917995   7.571   4.252   4.726 -0.2589 -0.2906 -0.5033
   64MOL   C23017996   7.709   4.214   4.760 -0.5701 -0.5329  0.7043
   64MOL   C23117997   7.812   4.192   4.676 -0.0226 -0.0266 -0.1639
   64MOL   C23217998   7.485   4.301   4.829 -0.2865  0.5664 -0.1861
   64MOL   C23317999   7.354   4.347   4.804 -0.0327 -0.1797  0.3919
   64MOL   H23418000   7.373   4.309   4.459 -1.0693  0.3678  0.8837
   64MOL   H23518001   7.592   4.209   4.518 -0.2535 -1.9346 -0.2654
   64MOL   H23618002   7.732   4.189   4.863 -0.0801 -0.3371  0.6416
   64MOL   H23718003   7.792   4.201   4.570 -2.0324 -2.5649 -0.0397
   64MOL   H23818004   7.532   4.314   4.925  0.4011  2.5777 -0.7471
   64MOL   H23918005   7.301   4.392   4.886  0.0333  2.6653 -1.0683
   64MOL   C24018006   7.947   4.141   4.708 -0.1622  0.5790  0.1766
   64MOL   C24118007   8.013   4.070   4.601  0.3704  0.4950 -0.1632
   64MOL   C24218008   0.002   4.033   4.619 -0.3154  0.7484 -0.1368
   64MOL   C24318009   0.073   4.058   4.740 -0.0654 -0.2708 -0.2763
   64MOL   C24418010   0.219   4.028   4.744 -0.7979 -0.3632  0.2563
   64MOL   C24518011   0.290   3.945   4.669  0.2496  0.3851  0.3888
   64MOL   C24618012   0.003   4.113   4.848 -0.0016  0.0780  0.0845
   64MOL   C24718013   8.013   4.152   4.838 -0.3919  0.0448  0.3307
   64MOL   H24818014   7.962   4.061   4.506 -0.7990  1.8464  0.3246
   64MOL   H24918015   0.046   3.985   4.533 -1.7175  0.4514 -0.7055
   64MOL   H25018016   0.272   4.084   4.821 -1.2267 -0.4303  0.6030
   64MOL   H25118017   0.236   3.899   4.587  1.6302  0.0130 -0.3278
   64MOL   H25218018   0.048   4.119   4.946 -2.1666 -0.8145  1.1673
   64MOL   H25318019   7.948   4.185   4.917  0.4923  0.6640  0.8124
   64MOL   C25418020   0.436   3.921   4.677 -0.5686  0.0749 -0.3356
   64MOL   C25518021   0.512   3.890   4.563 -0.0477 -0.4646 -0.5510
   64MOL   C25618022   0.648   3.853   4.576  0.0573  0.2577 -0.1618
   64MOL   C25718023   0.709   3.849   4.703 -0.2715  0.8348 -0.0305
   64MOL   C25818024   0.831   3.765   4.710  0.1105  0.1774 -0.7369
   64MOL   C25918025   0.962   3.785   4.690  0.1609 -0.0995  0.4991
   64MOL   C26018026   0.634   3.884   4.817 -0.2690 -0.1448  0.2972
   64MOL   C26118027   0.502   3.923   4.803  0.2970 -0.9510 -0.4581
   64MOL   H26218028   0.484   3.887   4.459 -1.0307  1.6501 -0.3692
   64MOL   H26318029   0.707   3.811   4.496  1.6295  0.1900  1.0012
   64MOL   H26418030   0.804   3.661   4.727 -0.1926  0.0246 -2.0684
   64MOL   H26518031   1.028   3.699   4.697  0.7305  0.1519 -1.4334
   64MOL   H26618032   0.667   3.870   4.918  0.1129 -1.8330 -0.0458
   64MOL   H26718033   0.443   3.935   4.893  0.8289 -1.3523 -0.0511
   64MOL   C26818034   1.025   3.911   4.664  0.3106 -0.4571 -0.2879
   64MOL   C26918035   0.963   4.034   4.698  0.0643 -0.7272  0.4322
   64MOL   C27018036   1.026   4.160   4.672  0.4092 -0.1907  0.1344
   64MOL   C27118037   1.162   4.158   4.628 -0.6270  0.2870  0.7166
   64MOL   C27218038   1.254   4.272   4.628 -0.3206  0.7237 -0.3369
   64MOL   C27318039   1.219   4.389   4.687 -0.3472 -0.0507 -0.5035
   64MOL   C27418040   1.224   4.032   4.597 -0.1357 -0.5487 -0.2905
   64MOL   C27518041   1.155   3.909   4.609 -0.1172 -0.0332 -0.9145
   64MOL   H27618042   0.869   4.015   4.747 -0.7834 -1.1614 -1.3021
   64MOL   H27718043   0.976   4.247   4.710 -0.6947 -0.1896 -1.2713
   64MOL   H27818044   1.351   4.263   4.581 -0.9292 -0.2895 -1.4262
   64MOL   H27918045   1.124   4.410   4.733 -0.2752 -1.6261  0.3986
   64MOL   H28018046   1.322   4.028   4.553  0.7044 -1.1401  1.6151
   64MOL   H28118047   1.209   3.819   4.584 -0.4182 -0.2411 -0.8159
   64MOL   H28218048   1.293   4.468   4.687 -0.4446  0.0443 -0.0710
   65MOL     C118049   2.403   3.517   3.716  0.5197 -0.9417 -0.5107
   65MOL     C218050   2.299   3.615   3.743  0.0441 -0.3588 -0.2768
   65MOL     C318051   2.166   3.576   3.722  0.2495 -0.0331  0.2511
   65MOL     C418052   2.134   3.450   3.669  0.7599  0.5859 -0.2401
   65MOL     C518053   1.993   3.404   3.647  0.6005 -0.0411  0.4199
   65MOL     C618054   1.884   3.442   3.714 -0.8332 -0.0573  0.1077
   65MOL     C718055   2.236   3.359   3.646 -0.3486  0.2525  0.6927
   65MOL     C818056   2.367   3.392   3.667  0.0527  0.7935 -0.6192
   65MOL     H918057   2.318   3.717   3.774 -0.4946  0.3560 -2.2370
   65MOL    H1018058   2.084   3.645   3.739  1.6013  1.8971 -0.8472
   65MOL    H1118059   1.976   3.335   3.566 -1.6755 -0.2118  1.0166
   65MOL    H1218060   1.901   3.521   3.786  2.8107 -1.1101  0.4496
   65MOL    H1318061   2.211   3.261   3.608  0.9057  0.1083  0.1938
   65MOL    H1418062   2.449   3.324   3.653 -0.0257  0.2617  1.2925
   65MOL    H1518063   2.506   3.548   3.705  0.4546 -0.6048 -0.1579
   65MOL    C1618064   1.748   3.385   3.694 -0.1629  0.4531 -0.6578
   65MOL    C1718065   1.648   3.437   3.775  0.1764  0.3084 -0.3007
   65MOL    C1818066   1.519   3.383   3.764  0.0994  0.2381  0.3098
   65MOL    C1918067   1.486   3.290   3.662  0.6895  0.5328  0.3950
   65MOL    C2018068   1.351   3.234   3.651  0.2590 -0.0243  0.2712
   65MOL    C2118069   1.260   3.228   3.754 -0.3327 -0.6590  0.0794
   65MOL    C2218070   1.586   3.247   3.568  0.1111  0.5040  0.3133
   65MOL    C2318071   1.717   3.294   3.592  0.0868  0.3465  0.1805
   65MOL    H2418072   1.669   3.511   3.851  0.5687  0.2082 -0.3103
   65MOL    H2518073   1.442   3.426   3.826 -0.0357  1.7456 -0.8599
   65MOL    H2618074   1.316   3.199   3.554 -0.6268 -0.0838  0.6049
   65MOL    H2718075   1.304   3.262   3.847  0.0812 -2.3497  0.5154
   65MOL    H2818076   1.572   3.176   3.488  1.7158  0.0419  0.4163
   65MOL    H2918077   1.793   3.248   3.531 -1.2305 -0.3892 -0.9479
   65MOL    C3018078   1.120   3.181   3.755  0.2504  0.1608 -0.2563
   65MOL    C3118079   1.035   3.216   3.865  0.0134  0.7813 -0.3823
   65MOL    C3218080   0.898   3.185   3.862  1.2148 -0.0408  0.8776
   65MOL    C3318081   0.845   3.105   3.755 -0.2979 -0.7133  0.4383
   65MOL    C3418082   0.702   3.064   3.738 -0.2668  0.1341  0.0455
   65MOL    C3518083   0.600   3.144   3.771 -0.2209 -0.1341 -0.2552
   65MOL    C3618084   0.933   3.069   3.648  1.0057  0.5204 -0.6259
   65MOL    C3718085   1.072   3.108   3.649 -0.0832 -0.0513 -0.1576
   65MOL    H3818086   1.076   3.267   3.950  0.6209  0.0416 -0.2214
   65MOL    H3918087   0.825   3.222   3.934 -0.9148 -0.5927 -0.9365
   65MOL    H4018088   0.692   2.968   3.689  1.0918 -0.0055  0.0204
   65MOL    H4118089   0.622   3.236   3.824  2.3991 -0.2867 -0.9700
   65MOL    H4218090   0.895   3.015   3.562  0.6115  1.2733 -0.9311
   65MOL    H4318091   1.141   3.071   3.574 -1.1711 -2.3286 -0.0956
   65MOL    C4418092   0.454   3.132   3.740  0.0753  0.2503  0.5954
   65MOL    C4518093   0.402   3.051   3.632 -0.4565  0.0359 -0.1248
   65MOL    C4618094   0.260   3.040   3.610 -0.2306 -0.0262  0.1432
   65MOL    C4718095   0.173   3.118   3.689 -0.2628 -0.0189 -0.5341
   65MOL    C4818096   0.024   3.114   3.666 -0.5899  0.1964  0.1085
   65MOL    C4918097   8.077   3.210   3.694  0.5055 -0.3831 -0.6125
   65MOL    C5018098   0.222   3.193   3.800  0.0317 -0.4815 -0.1306
   65MOL    C5118099   0.360   3.194   3.828  0.1542 -0.0039 -0.2178
   65MOL    H5218100   0.478   3.003   3.573  0.7050  0.0440  1.3432
   65MOL    H5318101   0.224   2.990   3.522  3.0573  1.3758 -2.1252
   65MOL    H5418102   8.130   3.021   3.627 -2.7434  0.0875  2.3723
   65MOL    H5518103   8.116   3.303   3.732  1.1385 -1.0291  0.3289
   65MOL    H5618104   0.152   3.248   3.861  0.6034 -0.1586  0.2438
   65MOL    H5718105   0.378   3.250   3.919 -0.5379 -0.0922 -0.0202
   65MOL    C5818106   7.932   3.201   3.670 -0.4271  0.2597 -0.0910
   65MOL    C5918107   7.861   3.086   3.628  0.6543  1.1682  0.4156
   65MOL    C6018108   7.721   3.079   3.620  0.2041  0.4892  0.0597
   65MOL    C6118109   7.647   3.192   3.650 -0.8289  0.8307 -0.4334
   65MOL    C6218110   7.497   3.193   3.644 -0.2212 -0.2549  0.5340
   65MOL    C6318111   7.418   3.083   3.631 -0.0584 -0.2154 -0.0663
   65MOL    C6418112   7.720   3.310   3.690 -0.3468 -0.5436  0.0163
   65MOL    C6518113   7.862   3.315   3.703  0.4416 -0.3263  0.5253
   65MOL    H6618114   7.902   2.990   3.603  1.4240  1.2464  1.3316
   65MOL    H6718115   7.679   2.982   3.601  2.0044 -0.9350  2.9065
   65MOL    H6818116   7.454   3.292   3.653 -0.5736 -0.4313  0.8427
   65MOL    H6918117   7.465   2.987   3.618 -2.7564 -1.5799 -0.2812
   65MOL    H7018118   7.663   3.398   3.719 -0.9963 -1.2185  0.8141
   65MOL    H7118119   7.912   3.404   3.737  1.0846 -1.0999  1.6317
   65MOL    C7218120   7.266   3.091   3.626 -0.3293 -0.6547 -0.2381
   65MOL    C7318121   7.197   2.970   3.624  0.6561  0.2521 -0.5990
   65MOL    C7418122   7.057   2.961   3.619 -0.6571 -0.0418  0.0587
   65MOL    C7518123   6.983   3.084   3.606 -0.2602  0.3445  0.5144
   65MOL    C7618124   6.837   3.084   3.608 -0.4215  0.3285 -0.6839
   65MOL    C7718125   6.756   2.977   3.619 -0.3189  0.9790 -0.4001
   65MOL    C7818126   7.050   3.206   3.604  0.0181  0.3807  0.4914
   65MOL    C7918127   7.192   3.212   3.616  0.4163  0.0727 -0.0848
   65MOL    H8018128   7.243   2.874   3.643 -1.4386 -0.9594 -1.4658
   65MOL    H8118129   7.014   2.863   3.632 -0.8888 -0.0373 -0.6464
   65MOL    H8218130   6.792   3.182   3.600  0.6629  0.9992  1.1706
   65MOL    H8318131   6.801   2.881   3.642  0.8192  1.5700 -0.0907
   65MOL    H8418132   6.987   3.293   3.601 -0.8664 -0.2554  0.4497
   65MOL    H8518133   7.238   3.309   3.612  0.4511  0.0492 -0.2861
   65MOL    C8618134   6.610   2.974   3.614  0.3808  0.1223  0.7855
   65MOL    C8718135   6.542   2.851   3.621  0.1063 -0.1861 -0.1132
   65MOL    C8818136   6.406   2.835   3.601  0.2039  0.0638 -0.1161
   65MOL    C8918137   6.330   2.942   3.562  1.0868 -0.2248 -0.4675
   65MOL    C9018138   6.182   2.933   3.548 -0.5163  0.3050 -0.2901
   65MOL    C9118139   6.100   2.845   3.600  0.4573 -0.2066  0.2622
   65MOL    C9218140   6.396   3.066   3.562  0.6631  0.4245  0.3943
   65MOL    C9318141   6.534   3.087   3.570 -0.0584 -0.3086 -0.2808
   65MOL    H9418142   6.606   2.766   3.641  0.5074 -0.1195 -1.1009
   65MOL    H9518143   6.358   2.739   3.610 -1.7958  1.1921  1.6560
   65MOL    H9618144   6.136   3.014   3.494  0.8739 -0.5608 -2.8765
   65MOL    H9718145   6.144   2.759   3.648  1.3882  0.1856  0.1036
   65MOL    H9818146   6.339   3.156   3.542  1.0668  0.4646 -0.6598
   65MOL    H9918147   6.583   3.184   3.573 -0.5927 -0.0865  2.0329
   65MOL   C10018148   5.954   2.829   3.596  0.1222 -0.2011  0.4487
   65MOL   C10118149   5.890   2.730   3.676 -0.6961  0.1920  0.1192
   65MOL   C10218150   5.753   2.709   3.655  0.0148  0.5950  0.5461
   65MOL   C10318151   5.675   2.791   3.573 -0.2629 -0.1895 -0.2584
   65MOL   C10418152   5.536   2.774   3.554 -0.1203 -0.1342  0.3484
   65MOL   C10518153   5.456   2.675   3.606 -0.8910  0.1618 -0.1785
   65MOL   C10618154   5.740   2.891   3.499 -0.0521  0.0781 -0.0276
   65MOL   C10718155   5.877   2.906   3.509  0.2614  0.4469  0.0708
   65MOL   H10818156   5.941   2.664   3.745 -2.5995 -1.7857 -0.3106
   65MOL   H10918157   5.708   2.628   3.710  1.6166 -0.0537  0.9304
   65MOL   H11018158   5.492   2.847   3.488 -1.9551 -1.3454  0.1873
   65MOL   H11118159   5.503   2.601   3.669  1.8875  2.0645  0.0637
   65MOL   H11218160   5.679   2.956   3.439 -0.6105  1.9033  2.4171
   65MOL   H11318161   5.923   2.971   3.437  0.1072 -2.1740 -2.4941
   65MOL   C11418162   5.313   2.651   3.580 -0.1837 -0.3599 -0.2432
   65MOL   C11518163   5.259   2.526   3.612  0.1996 -0.0987  0.2717
   65MOL   C11618164   5.123   2.509   3.586 -0.2281  0.0240  0.2890
   65MOL   C11718165   5.050   2.602   3.512  0.3663  1.1312  0.2918
   65MOL   C11818166   4.914   2.571   3.467  0.4180  0.3387 -0.4537
   65MOL   C11918167   4.872   2.444   3.445 -0.1069  0.6366 -0.0592
   65MOL   C12018168   5.104   2.725   3.475 -1.0124  0.3519 -0.0254
   65MOL   C12118169   5.237   2.749   3.515  0.9668 -0.6621 -0.3522
   65MOL   H12218170   5.330   2.457   3.655 -1.9442 -1.5743  1.5206
   65MOL   H12318171   5.066   2.433   3.638  0.3825 -1.7296 -1.5266
   65MOL   H12418172   4.847   2.653   3.446 -0.2470 -0.0746  0.0085
   65MOL   H12518173   4.946   2.366   3.457 -0.2735  0.6155  0.8785
   65MOL   H12618174   5.039   2.800   3.435  0.5141  0.5187 -2.2794
   65MOL   H12718175   5.281   2.845   3.493 -0.9911  0.4976  0.6380
   65MOL   C12818176   4.736   2.412   3.398  0.1547  0.1407  0.1923
   65MOL   C12918177   4.628   2.503   3.404 -0.3957  0.8906 -0.0071
   65MOL   C13018178   4.507   2.462   3.349  0.6078  0.3759 -0.2357
   65MOL   C13118179   4.483   2.332   3.292 -0.2854  0.1590 -0.6342
   65MOL   C13218180   4.356   2.306   3.223  0.3750 -0.6986  0.5185
   65MOL   C13318181   4.327   2.190   3.165 -0.8469  0.5899  0.7714
   65MOL   C13418182   4.592   2.237   3.302 -0.1037  0.3111 -0.3343
   65MOL   C13518183   4.716   2.279   3.351 -1.1480 -0.3660  0.1945
   65MOL   H13618184   4.651   2.604   3.437 -0.0909  0.1881  1.9933
   65MOL   H13718185   4.431   2.539   3.340 -0.6298 -0.7867 -0.0295
   65MOL   H13818186   4.285   2.387   3.224  0.9218 -0.2121  0.9654
   65MOL   H13918187   4.399   2.110   3.176 -0.1043  1.2970  1.0863
   65MOL   H14018188   4.584   2.145   3.246 -2.5995  0.7732 -0.8232
   65MOL   H14118189   4.800   2.212   3.359 -1.3783 -0.6088  0.6371
   65MOL   C14218190   4.207   2.168   3.080  0.1920 -0.5755  0.0831
   65MOL   C14318191   4.119   2.264   3.031  0.1006  0.4966  0.3103
   65MOL   C14418192   4.008   2.221   2.949  0.0772 -0.1221  0.4618
   65MOL   C14518193   3.994   2.082   2.921 -0.4933  0.0208 -0.4163
   65MOL   C14618194   3.879   2.036   2.843 -0.8215  0.1758  0.3536
   65MOL   C14718195   3.829   1.910   2.821 -0.8538  0.3742  0.3755
   65MOL   C14818196   4.084   1.987   2.973 -0.2370  0.2975  0.0121
   65MOL   C14918197   4.194   2.031   3.043  0.1589  0.2643  0.2769
   65MOL   H15018198   4.119   2.366   3.068  0.4515  0.5892  0.0573
   65MOL   H15118199   3.938   2.287   2.900  0.2918 -1.3136 -1.4988
   65MOL   H15218200   3.822   2.112   2.793 -0.5564  1.4639  1.9719
   65MOL   H15318201   3.870   1.825   2.872 -1.5024  0.8257  1.6659
   65MOL   H15418202   4.062   1.882   2.967  0.2260  0.1736  0.3972
   65MOL   H15518203   4.267   1.959   3.076  0.1027  0.6572  1.2721
   65MOL   C15618204   3.725   1.874   2.720 -0.0465  0.1148  0.3912
   65MOL   C15718205   3.695   1.943   2.603 -0.2368 -0.4900  0.3314
   65MOL   C15818206   3.585   1.904   2.528 -0.6011  0.6763  0.6365
   65MOL   C15918207   3.504   1.793   2.563  0.7224  0.2013 -1.0447
   65MOL   C16018208   3.393   1.762   2.478  0.8249  0.0278  0.8354
   65MOL   C16118209   3.284   1.681   2.519  0.3372 -0.1542 -0.1323
   65MOL   C16218210   3.530   1.729   2.688 -0.2274  0.5272 -0.3629
   65MOL   C16318211   3.646   1.765   2.757 -0.6588  0.5236  0.8377
   65MOL   H16418212   3.755   2.030   2.577 -3.3782  0.8725 -2.7777
   65MOL   H16518213   3.569   1.950   2.431  1.3865  1.2781  0.5601
   65MOL   H16618214   3.403   1.813   2.383  1.4551 -1.6639 -0.0323
   65MOL   H16718215   3.291   1.634   2.616 -0.3577 -1.6777 -0.8124
   65MOL   H16818216   3.465   1.658   2.735  0.7075 -0.1723 -0.1051
   65MOL   H16918217   3.678   1.712   2.845  0.8977  1.1558  0.6585
   65MOL   C17018218   3.158   1.652   2.447 -0.6623  0.4262  0.3741
   65MOL   C17118219   3.051   1.584   2.518 -0.7133 -0.0846 -0.2943
   65MOL   C17218220   2.932   1.554   2.458  0.8658  0.2336  0.1677
   65MOL   C17318221   2.911   1.597   2.327 -0.3251  0.2541 -0.2407
   65MOL   C17418222   2.787   1.579   2.261  0.0909 -0.2022 -0.2837
   65MOL   C17518223   2.680   1.505   2.299 -0.3317 -0.2805 -0.3083
   65MOL   C17618224   3.014   1.662   2.252 -0.6964 -0.5945  0.9693
   65MOL   C17718225   3.137   1.696   2.310  0.5884  0.0788 -0.2311
   65MOL   H17818226   3.072   1.558   2.621  2.2167  1.9782 -0.2914
   65MOL   H17918227   2.858   1.499   2.514  1.6581 -0.1350  0.8844
   65MOL   H18018228   2.780   1.644   2.175 -0.7980 -0.1912 -0.2150
   65MOL   H18118229   2.672   1.455   2.394  1.6904  0.7898  0.4587
   65MOL   H18218230   2.988   1.686   2.150 -0.8676 -0.6913  0.9891
   65MOL   H18318231   3.211   1.731   2.240 -0.6577  1.7434 -0.7504
   65MOL   C18418232   2.559   1.493   2.211  0.1377  0.4780 -0.2965
   65MOL   C18518233   2.450   1.408   2.258  0.1071  0.6655  0.1253
   65MOL   C18618234   2.350   1.371   2.165 -0.4972 -0.5456  0.4572
   65MOL   C18718235   2.341   1.425   2.034  0.0287  0.2590  0.6625
   65MOL   C18818236   2.222   1.404   1.945 -0.3747 -0.6422  0.7111
   65MOL   C18918237   2.139   1.296   1.958 -0.2453 -0.7457  0.2874
   65MOL   C19018238   2.447   1.511   1.994  0.1903  0.2123 -0.4243
   65MOL   C19118239   2.559   1.543   2.079 -0.5571  0.4008 -0.4744
   65MOL   H19218240   2.440   1.368   2.357 -0.5502 -1.0309 -0.6070
   65MOL   H19318241   2.278   1.298   2.201 -0.6737 -0.9864 -0.7884
   65MOL   H19418242   2.197   1.489   1.883  0.1624 -1.4895 -0.6836
   65MOL   H19518243   2.163   1.216   2.027  2.2595 -1.8205 -1.7227
   65MOL   H19618244   2.443   1.564   1.899 -1.7220  0.5042 -0.2065
   65MOL   H19718245   2.630   1.617   2.047 -0.9140  1.6328  1.4789
   65MOL   C19818246   2.010   1.278   1.884  0.3327 -0.0694  0.0921
   65MOL   C19918247   1.958   1.376   1.802  0.4019 -0.6691 -0.0444
   65MOL   C20018248   1.826   1.362   1.751 -0.6184 -0.3129  0.3559
   65MOL   C20118249   1.750   1.249   1.772 -0.0881 -0.0539  0.9215
   65MOL   C20218250   1.616   1.245   1.711  0.5173  0.1204 -0.9084
   65MOL   C20318251   1.511   1.161   1.741 -0.1274 -0.2067 -0.5965
   65MOL   C20418252   1.801   1.147   1.857  0.1229 -0.4351  0.0864
   65MOL   C20518253   1.930   1.166   1.912 -1.0181  0.3952  0.6475
   65MOL   H20618254   2.004   1.472   1.786 -2.2662  0.7495  0.4794
   65MOL   H20718255   1.794   1.442   1.686 -1.6681  0.2446  1.5414
   65MOL   H20818256   1.587   1.318   1.637  1.1471 -1.1161 -2.3877
   65MOL   H20918257   1.530   1.088   1.818 -1.7067 -0.0812 -0.0758
   65MOL   H21018258   1.752   1.052   1.877 -0.4168 -1.2782 -4.7179
   65MOL   H21118259   1.973   1.092   1.977 -0.0193  0.3339 -0.0665
   65MOL   C21218260   1.378   1.150   1.681 -0.4770 -0.0391 -0.0304
   65MOL   C21318261   1.346   1.181   1.550  0.0053 -0.5256  0.4708
   65MOL   C21418262   1.210   1.160   1.506  0.0239 -0.1720 -0.0194
   65MOL   C21518263   1.111   1.118   1.594 -0.4673 -0.3566 -0.4970
   65MOL   C21618264   0.968   1.112   1.557  0.0384  0.2244  0.1124
   65MOL   C21718265   0.922   1.100   1.434  0.3261  0.5158  0.0721
   65MOL   C21818266   1.142   1.067   1.722  0.0211  0.2220  0.2596
   65MOL   C21918267   1.280   1.089   1.763  0.4884  0.5877 -0.7229
   65MOL   H22018268   1.417   1.220   1.479  1.1062  0.3750  2.0542
   65MOL   H22118269   1.187   1.187   1.404  1.8820  2.8438  0.2824
   65MOL   H22218270   0.898   1.128   1.637  1.2844  0.4970  1.1616
   65MOL   H22318271   0.996   1.088   1.355  1.8931  0.2859  1.5412
   65MOL   H22418272   1.063   1.038   1.790 -0.1093  1.0154  0.4527
   65MOL   H22518273   1.305   1.072   1.867  0.7467  0.8089 -0.7498
   65MOL   C22618274   0.782   1.097   1.381 -0.0322 -0.4046  0.4618
   65MOL   C22718275   0.752   1.051   1.249  0.1695 -0.5084  0.1036
   65MOL   C22818276   0.618   1.054   1.198  0.3216 -0.3127 -0.3661
   65MOL   C22918277   0.509   1.082   1.282  0.2478  0.3090 -0.6287
   65MOL   C23018278   0.365   1.087   1.227  0.7733  0.1790  0.4326
   65MOL   C23118279   0.326   1.029   1.109  0.1588  0.0999 -0.1605
   65MOL   C23218280   0.539   1.122   1.412  0.2881 -0.2140 -0.0189
   65MOL   C23318281   0.667   1.128   1.462 -0.8864  0.5973 -0.0096
   65MOL   H23418282   0.835   1.030   1.182 -0.7849 -2.1268 -0.6013
   65MOL   H23518283   0.607   1.033   1.093  0.3515 -1.0779 -0.2158
   65MOL   H23618284   0.298   1.149   1.284 -2.1874 -2.3938 -0.1301
   65MOL   H23718285   0.403   0.973   1.059  0.1374  0.8158 -0.9982
   65MOL   H23818286   0.461   1.147   1.483  0.4897  2.7802 -0.7721
   65MOL   H23918287   0.672   1.166   1.564  0.5943  1.5357 -0.4111
   65MOL   C24018288   0.193   1.037   1.045  0.4919 -0.0158  1.6971
   65MOL   C24118289   0.168   0.963   0.929 -0.0319  0.4855  0.2579
   65MOL   C24218290   0.041   0.946   0.871 -0.3620 -0.5872 -0.6843
   65MOL   C24318291   8.079   1.019   0.927 -0.2076 -0.8495 -0.3957
   65MOL   C24418292   7.945   1.007   0.866  0.5540 -0.0964  0.1071
   65MOL   C24518293   7.908   0.921   0.768 -0.4130  0.2114  0.5062
   65MOL   C24618294   8.101   1.102   1.036 -0.1617  0.4171  0.3807
   65MOL   C24718295   0.082   1.114   1.103  0.3371  0.7053 -0.5831
   65MOL   H24818296   0.258   0.915   0.894 -0.9563 -2.2417  1.5243
   65MOL   H24918297   0.040   0.888   0.780 -0.0057 -2.6626  0.5729
   65MOL   H25018298   7.868   1.073   0.902  1.2272  0.6120  0.2769
   65MOL   H25118299   7.976   0.842   0.739 -1.7421 -0.4847 -0.8006
   65MOL   H25218300   8.018   1.146   1.088 -1.3713 -2.3662  0.8994
   65MOL   H25318301   0.113   1.175   1.186 -0.0071 -1.8048  1.4517
   65MOL   C25418302   7.771   0.913   0.704 -0.2974  0.3344  0.3614
   65MOL   C25518303   7.764   0.869   0.572 -0.3140 -0.4253  0.8581
   65MOL   C25618304   7.638   0.871   0.507  0.0970 -0.8121  0.0444
   65MOL   C25718305   7.519   0.921   0.564  0.0956 -0.0394 -0.6737
   65MOL   C25818306   7.389   0.935   0.505 -0.2265  0.3471 -1.1651
   65MOL   C25918307   7.345   0.891   0.388 -0.0154 -0.3799 -0.0226
   65MOL   C26018308   7.529   0.960   0.699 -0.0484  0.5348  0.0353
   65MOL   C26118309   7.654   0.970   0.766  0.4591 -0.2175 -0.3304
   65MOL   H26218310   7.849   0.838   0.514 -0.6549 -0.4081  0.3335
   65MOL   H26318311   7.621   0.835   0.407 -0.6989  1.1012 -0.5423
   65MOL   H26418312   7.319   0.990   0.567  1.2259 -0.0236  0.8421
   65MOL   H26518313   7.241   0.907   0.364 -0.3049  0.0293  1.4345
   65MOL   H26618314   7.440   0.990   0.752 -0.3364  0.2417 -0.2861
   65MOL   H26718315   7.651   1.014   0.864 -2.0242  0.8489 -0.8392
   65MOL   C26818316   7.411   0.806   0.289  0.2781 -0.1648  0.0765
   65MOL   C26918317   7.454   0.673   0.313 -0.0691 -0.1744 -0.4458
   65MOL   C27018318   7.491   0.582   0.209  1.0619  0.0276 -0.5727
   65MOL   C27118319   7.507   0.637   0.079  0.1813  0.3395  0.3529
   65MOL   C27218320   7.539   0.554   8.114 -0.1880  0.3379  0.6279
   65MOL   C27318321   7.537   0.575   7.981 -0.3527 -0.2984 -0.0661
   65MOL   C27418322   7.473   0.775   0.055 -0.1969 -0.0887  0.6013
   65MOL   C27518323   7.425   0.858   0.158  0.3488 -0.1777  0.7035
   65MOL   H27618324   7.433   0.639   0.414 -1.8310  1.1469 -0.3335
   65MOL   H27718325   7.514   0.479   0.234 -1.1883  0.1489  2.2180
   65MOL   H27818326   7.572   0.454   8.139 -2.7364 -0.2914  1.5973
   65MOL   H27918327   7.499   0.666   7.935  1.3495  0.2932 -0.3554
   65MOL   H28018328   7.486   0.812   8.099  2.6771 -0.4008  0.7968
   65MOL   H28118329   7.389   0.958   0.136 -0.0300 -0.7920 -1.6828
   65MOL   H28218330   7.583   0.498   7.921  1.5075 -0.2612  1.2764
   66MOL     C118331   1.158   0.220   0.501 -0.3750  0.4022 -0.8151
   66MOL     C218332   1.195   0.115   0.583 -0.0596  0.9331 -0.2558
   66MOL     C318333   1.278   0.011   0.542  0.0348 -0.1719  0.5208
   66MOL     C418334   1.337   0.018   0.413  0.4209 -0.1614 -0.5019
   66MOL     C518335   1.442   8.065   0.378 -0.0466  0.1408  0.0814
   66MOL     C618336   1.501   8.051   0.260 -0.7303  0.0062  0.7427
   66MOL     C718337   1.302   0.125   0.322 -0.3787 -0.3130 -0.3314
   66MOL     C818338   1.219   0.223   0.367 -0.0914  0.4826 -0.5859
   66MOL     H918339   1.145   0.112   0.679  1.4360 -2.0589  0.5180
   66MOL    H1018340   1.295   8.080   0.618 -1.5814  0.4607  1.5388
   66MOL    H1118341   1.480   8.000   0.455  1.6647 -0.3575 -1.1404
   66MOL    H1218342   1.462   8.124   0.190  2.4843  1.0222 -0.0555
   66MOL    H1318343   1.352   0.144   0.227 -1.2780 -0.2928 -0.8089
   66MOL    H1418344   1.201   0.302   0.297 -1.2277 -0.3524 -1.2590
   66MOL    H1518345   1.078   0.285   0.532  0.0345  0.2358  0.6024
   66MOL    C1618346   1.605   7.959   0.214 -1.5017 -0.3136  0.2829
   66MOL    C1718347   1.679   7.886   0.306  0.2391  0.4516  0.0267
   66MOL    C1818348   1.779   7.795   0.260 -0.6232 -0.4559  0.7916
   66MOL    C1918349   1.807   7.775   0.121  0.0153  0.5895 -0.6445
   66MOL    C2018350   1.919   7.684   0.078 -0.2064  0.0393  0.1809
   66MOL    C2118351   1.946   7.644   8.094 -0.0872 -0.1977 -0.3424
   66MOL    C2218352   1.721   7.846   0.034  0.6849  0.2582  0.7368
   66MOL    C2318353   1.619   7.939   0.075 -0.6628  0.0081 -0.7310
   66MOL    H2418354   1.660   7.890   0.413 -2.5147 -2.5253 -0.2649
   66MOL    H2518355   1.845   7.758   0.337 -0.6184 -0.0384  0.9923
   66MOL    H2618356   1.979   7.636   0.155 -0.4423  0.3298  0.5500
   66MOL    H2718357   1.883   7.687   8.016 -1.3179 -0.0725  0.7029
   66MOL    H2818358   1.725   7.832   8.071 -0.9507 -0.4798  0.7679
   66MOL    H2918359   1.552   7.995   0.011 -1.2243  0.9683  0.6938
   66MOL    C3018360   2.045   7.557   8.048  0.2287 -0.4597  0.1267
   66MOL    C3118361   2.119   7.474   8.137  0.2418 -0.7177 -0.0088
   66MOL    C3218362   2.215   7.386   8.093  0.2548 -0.5497  1.1085
   66MOL    C3318363   2.255   7.382   7.957  0.1831 -0.2515 -0.3046
   66MOL    C3418364   2.351   7.288   7.904  0.1419  0.2919  0.6758
   66MOL    C3518365   2.401   7.180   7.963 -0.2668 -0.4111  0.4327
   66MOL    C3618366   2.183   7.464   7.866 -0.2170 -0.5703 -1.2777
   66MOL    C3718367   2.086   7.552   7.911 -0.4056  0.2106  0.2050
   66MOL    H3818368   2.108   7.467   0.100 -0.2628  3.1892  0.2487
   66MOL    H3918369   2.258   7.322   0.024  0.7993  1.3946  2.5019
   66MOL    H4018370   2.375   7.304   7.800 -2.1336 -0.1337  0.0607
   66MOL    H4118371   2.364   7.163   8.062 -1.8110 -1.4736 -0.3065
   66MOL    H4218372   2.211   7.469   7.762  1.5586  1.2639 -0.7342
   66MOL    H4318373   2.051   7.626   7.842 -0.2357  1.9538  1.9543
   66MOL    C4418374   2.503   7.078   7.902  0.0180  0.2338  0.3440
   66MOL    C4518375   2.583   7.013   7.993 -0.5509 -0.5141 -0.5341
   66MOL    C4618376   2.685   6.931   7.947  0.5353 -0.2465 -0.0593
   66MOL    C4718377   2.699   6.904   7.806  1.1231 -0.2679 -0.7447
   66MOL    C4818378   2.809   6.827   7.754 -0.6623 -0.1061 -0.2861
   66MOL    C4918379   2.916   6.789   7.822  0.6156  0.0946 -0.3443
   66MOL    C5018380   2.617   6.969   7.715  0.2338 -0.5116  0.8910
   66MOL    C5118381   2.516   7.054   7.764 -0.2720 -0.0115  0.1141
   66MOL    H5218382   2.573   7.055   8.092 -0.6924 -0.5623 -0.5285
   66MOL    H5318383   2.744   6.880   8.022  0.5876 -1.2267 -0.7591
   66MOL    H5418384   2.801   6.805   7.648  0.5716 -1.6198 -0.0879
   66MOL    H5518385   2.919   6.813   7.927  1.5957  1.4628 -0.6731
   66MOL    H5618386   2.634   6.955   7.609  0.4335  0.0839  0.8444
   66MOL    H5718387   2.459   7.107   7.689  1.0019  1.3268  0.0733
   66MOL    C5818388   3.028   6.718   7.759  0.3365  0.3438  0.2649
   66MOL    C5918389   3.085   6.604   7.820  0.6737 -0.6149  0.5185
   66MOL    C6018390   3.207   6.544   7.779 -0.2721  0.3779 -0.2415
   66MOL    C6118391   3.269   6.587   7.661  0.1506 -0.0919  0.1460
   66MOL    C6218392   3.396   6.534   7.608 -0.7334  0.0982  0.0474
   66MOL    C6318393   3.468   6.423   7.645  0.0461 -0.2513  0.8609
   66MOL    C6418394   3.202   6.688   7.586  0.8623  0.4579  0.1946
   66MOL    C6518395   3.088   6.762   7.639 -0.3306  0.0560  0.1611
   66MOL    H6618396   3.040   6.571   7.913  0.6525 -2.4495 -0.1305
   66MOL    H6718397   3.243   6.463   7.841  2.2492  0.6195 -1.3667
   66MOL    H6818398   3.444   6.589   7.528  1.8156 -0.0746  1.3907
   66MOL    H6918399   3.436   6.353   7.721 -0.6522  0.9489  1.6894
   66MOL    H7018400   3.245   6.722   7.493  0.1175 -0.6695 -0.5790
   66MOL    H7118401   3.042   6.842   7.584  0.8241  0.9520  0.4673
   66MOL    C7218402   3.598   6.388   7.591  0.4463 -0.0220 -0.1473
   66MOL    C7318403   3.619   6.246   7.548 -0.0678  0.0351 -0.5460
   66MOL    C7418404   3.740   6.211   7.485 -0.2340 -0.5213  0.0816
   66MOL    C7518405   3.835   6.308   7.447  0.2022 -1.2477  0.1832
   66MOL    C7618406   3.960   6.267   7.377 -0.9827  0.8739 -0.4400
   66MOL    C7718407   4.063   6.349   7.350  0.6136  0.1687 -0.3224
   66MOL    C7818408   3.818   6.439   7.499 -0.1203 -1.2848 -0.6317
   66MOL    C7918409   3.695   6.484   7.559  0.4875  0.5405  0.8465
   66MOL    H8018410   3.544   6.173   7.577 -1.2437  0.7996 -1.5906
   66MOL    H8118411   3.761   6.108   7.462  2.4604 -0.4532  2.0845
   66MOL    H8218412   3.968   6.167   7.335  1.6227  1.0163 -0.3672
   66MOL    H8318413   4.067   6.451   7.384  1.6955  0.6763 -1.9221
   66MOL    H8418414   3.892   6.516   7.486 -0.5218 -0.7428  0.2407
   66MOL    H8518415   3.679   6.589   7.582  0.7500  0.9435 -0.7145
   66MOL    C8618416   4.180   6.309   7.269 -0.2405 -0.5810 -0.0937
   66MOL    C8718417   4.179   6.200   7.182 -0.6752 -0.1242  0.2690
   66MOL    C8818418   4.280   6.184   7.087  0.3225 -0.0793 -0.1711
   66MOL    C8918419   4.392   6.277   7.083 -0.7258 -0.1292  0.5358
   66MOL    C9018420   4.481   6.269   6.968  0.3693 -0.4286  0.7489
   66MOL    C9118421   4.597   6.337   6.948 -0.2465 -0.7150  0.6776
   66MOL    C9218422   4.395   6.383   7.173  0.3469 -0.2768  0.6345
   66MOL    C9318423   4.291   6.401   7.268 -0.1662  0.2120 -0.6662
   66MOL    H9418424   4.105   6.122   7.188 -0.4673 -0.3341  0.0944
   66MOL    H9518425   4.274   6.102   7.017  0.4849  1.7700 -2.4112
   66MOL    H9618426   4.452   6.203   6.887  1.6173  0.5353 -0.5076
   66MOL    H9718427   4.627   6.401   7.029 -1.2435  0.6472 -0.0086
   66MOL    H9818428   4.466   6.464   7.167 -0.7380  0.7173  0.9845
   66MOL    H9918429   4.281   6.481   7.340 -0.6394  0.7971 -1.3721
   66MOL   C10018430   4.680   6.333   6.826  0.5430  0.3039  0.4261
   66MOL   C10118431   4.663   6.244   6.718  0.1339 -0.5267  0.5196
   66MOL   C10218432   4.733   6.267   6.593  0.6689  0.6654 -1.4355
   66MOL   C10318433   4.822   6.376   6.585  0.2728  0.1499 -0.4690
   66MOL   C10418434   4.883   6.409   6.454  0.2370 -0.3376 -0.1801
   66MOL   C10518435   4.978   6.497   6.442  0.7320  0.0911  0.8832
   66MOL   C10618436   4.837   6.462   6.695 -0.0019 -0.7718 -0.1598
   66MOL   C10718437   4.767   6.440   6.812 -0.2811 -0.0131  0.4135
   66MOL   H10818438   4.598   6.159   6.732  1.4743 -1.4797  1.0415
   66MOL   H10918439   4.714   6.202   6.509  3.1348 -0.9953 -0.7490
   66MOL   H11018440   4.827   6.374   6.368  1.6962  0.5648 -1.5235
   66MOL   H11118441   5.022   6.554   6.522  2.7573  2.3144 -1.7317
   66MOL   H11218442   4.898   6.551   6.695  0.1403 -0.8549 -1.7653
   66MOL   H11318443   4.772   6.509   6.895  2.5363  0.8390 -0.3881
   66MOL   C11418444   5.033   6.535   6.314 -0.1722  0.2290  0.0144
   66MOL   C11518445   5.168   6.574   6.295 -0.5222 -1.5188  0.5590
   66MOL   C11618446   5.219   6.611   6.166  0.5886 -0.2214  0.5866
   66MOL   C11718447   5.124   6.634   6.065  0.4767 -0.8272 -0.1792
   66MOL   C11818448   5.166   6.722   5.955  0.1095  0.1035  0.3095
   66MOL   C11918449   5.076   6.801   5.895 -0.4310 -0.1936  0.2925
   66MOL   C12018450   4.989   6.593   6.084  0.4199  0.1329 -0.1612
   66MOL   C12118451   4.940   6.556   6.212  0.5345 -0.6887  0.1855
   66MOL   H12218452   5.233   6.573   6.382 -0.4813 -0.9132  0.5382
   66MOL   H12318453   5.319   6.650   6.157  0.0227  1.0916 -0.2317
   66MOL   H12418454   5.270   6.728   5.926  0.0946 -2.7360 -0.4688
   66MOL   H12518455   4.973   6.802   5.926 -0.4411  0.5955  0.2504
   66MOL   H12618456   4.922   6.604   6.001  1.5113  0.9979 -0.9439
   66MOL   H12718457   4.836   6.533   6.223 -0.0528 -0.5026 -4.1240
   66MOL   C12818458   5.099   6.895   5.784 -0.4430  0.8641 -0.1980
   66MOL   C12918459   5.216   6.896   5.706  1.1193 -0.0339  0.4844
   66MOL   C13018460   5.230   6.988   5.596  0.4771  0.0904  0.1499
   66MOL   C13118461   5.136   7.094   5.578 -0.1934  0.3315 -0.2807
   66MOL   C13218462   5.157   7.191   5.469  0.9254 -0.2689 -0.5779
   66MOL   C13318463   5.090   7.307   5.446  0.3250 -0.1774 -0.2005
   66MOL   C13418464   5.035   7.107   5.676 -0.1217  0.0909 -1.3240
   66MOL   C13518465   5.009   7.005   5.772 -0.9796  0.1540  0.1760
   66MOL   H13618466   5.293   6.823   5.723  1.4204  0.7781  2.7476
   66MOL   H13718467   5.316   6.993   5.530  0.4284  1.9191  0.2166
   66MOL   H13818468   5.239   7.168   5.402  1.4877 -2.0698  0.6845
   66MOL   H13918469   5.010   7.321   5.516  1.7202 -0.8627  1.5728
   66MOL   H14018470   4.969   7.193   5.685  0.8448  0.6058  1.3561
   66MOL   H14118471   4.923   7.012   5.837 -1.8822  3.1027 -1.2640
   66MOL   C14218472   5.118   7.412   5.344  0.5973  0.1136  0.3303
   66MOL   C14318473   5.052   7.537   5.365  0.1601  0.1287 -0.2459
   66MOL   C14418474   5.080   7.653   5.287 -0.5862 -0.1555 -0.0714
   66MOL   C14518475   5.180   7.637   5.187  0.5970  0.7955  0.1315
   66MOL   C14618476   5.227   7.756   5.112 -0.0373 -0.8705 -0.5440
   66MOL   C14718477   5.173   7.881   5.117 -0.0410 -0.8933  0.4551
   66MOL   C14818478   5.238   7.513   5.160  0.2886  0.0286 -0.0371
   66MOL   C14918479   5.202   7.397   5.233 -0.2071  0.1501  0.5405
   66MOL   H15018480   4.977   7.539   5.443 -2.5343 -0.5124 -2.7590
   66MOL   H15118481   5.013   7.736   5.300 -0.4345 -0.2542  1.4020
   66MOL   H15218482   5.321   7.744   5.059  0.7800 -0.9581  0.8825
   66MOL   H15318483   5.084   7.887   5.177 -0.6945 -0.9423 -0.4894
   66MOL   H15418484   5.302   7.496   5.074 -0.3849 -1.6384 -0.2280
   66MOL   H15518485   5.268   7.312   5.224  0.0988  0.4792 -0.4177
   66MOL   C15618486   5.226   8.001   5.057  0.2444 -0.3600 -0.0604
   66MOL   C15718487   5.333   8.000   4.968  0.0385 -0.0047  0.5512
   66MOL   C15818488   5.379   8.120   4.912 -0.2754 -0.5726  0.2150
   66MOL   C15918489   5.325   0.102   4.958 -0.0067 -0.6935 -0.9223
   66MOL   C16018490   5.384   0.234   4.920 -0.1873  0.0827  0.5516
   66MOL   C16118491   5.324   0.351   4.916  0.4867 -0.5026 -0.0172
   66MOL   C16218492   5.213   0.103   5.039 -0.6049  0.3540  0.4300
   66MOL   C16318493   5.165   8.126   5.095  0.9285  0.0733  0.8528
   66MOL   H16418494   5.380   7.911   4.930  2.6902  1.2842  0.6705
   66MOL   H16518495   5.462   8.124   4.844  0.4880 -1.8970  1.0488
   66MOL   H16618496   5.489   0.220   4.900 -0.6866 -1.3227 -1.2574
   66MOL   H16718497   5.217   0.349   4.928  0.2902 -0.3903 -1.6417
   66MOL   H16818498   5.167   0.200   5.051  1.0707  1.2790 -0.4605
   66MOL   H16918499   5.074   8.126   5.152 -0.1112  0.2111 -0.7730
   66MOL   C17018500   5.387   0.481   4.900  0.1197 -0.1948 -0.4144
   66MOL   C17118501   5.518   0.486   4.851  0.1196 -0.1369  0.4826
   66MOL   C17218502   5.581   0.606   4.849 -0.5848 -0.8789 -0.6578
   66MOL   C17318503   5.523   0.722   4.895  0.5742  0.0237  0.1615
   66MOL   C17418504   5.608   0.844   4.901  0.1521 -0.8424  0.0034
   66MOL   C17518505   5.573   0.965   4.943 -0.2568 -0.5240 -0.3106
   66MOL   C17618506   5.389   0.714   4.941  0.1061 -0.1203 -0.4410
   66MOL   C17718507   5.319   0.594   4.943  0.3643  0.6268 -0.4218
   66MOL   H17818508   5.561   0.395   4.813 -0.7738 -1.0450  1.5907
   66MOL   H17918509   5.680   0.608   4.807  0.2877 -1.0118  1.3459
   66MOL   H18018510   5.711   0.834   4.869  0.4021 -1.3883  0.9395
   66MOL   H18118511   5.478   0.990   4.986 -0.2993 -0.6900 -0.3050
   66MOL   H18218512   5.327   0.795   4.976 -0.1527  0.7967 -2.9600
   66MOL   H18318513   5.217   0.596   4.977  0.4537 -1.8466  0.0459
   66MOL   C18418514   5.661   1.083   4.919  0.3774 -0.3712 -0.4155
   66MOL   C18518515   5.749   1.089   4.809 -0.2763  0.0223  0.1751
   66MOL   C18618516   5.862   1.169   4.806 -0.1156  0.2784  0.5358
   66MOL   C18718517   5.882   1.263   4.908  0.3644 -0.6600  0.3142
   66MOL   C18818518   6.005   1.331   4.924  0.1589 -0.5125 -0.4547
   66MOL   C18918519   6.032   1.461   4.963  0.2409 -0.0414 -0.3802
   66MOL   C19018520   5.776   1.272   5.006 -0.1139 -0.1579  0.1250
   66MOL   C19118521   5.672   1.185   5.015  0.9632  0.6608 -0.0340
   66MOL   H19218522   5.739   1.008   4.738  0.3729  0.2878 -0.2247
   66MOL   H19318523   5.936   1.147   4.730 -2.6597 -0.7696 -1.7006
   66MOL   H19418524   6.096   1.274   4.908 -0.0676 -0.6143 -1.4058
   66MOL   H19518525   5.953   1.534   4.977 -0.4404 -0.7849 -0.2786
   66MOL   H19618526   5.797   1.337   5.090  1.2325 -0.5922  0.1487
   66MOL   H19718527   5.613   1.190   5.106  0.5668 -0.3719 -0.2282
   66MOL   C19818528   6.163   1.521   4.970 -0.4540 -0.0402  0.5967
   66MOL   C19918529   6.259   1.469   4.880  0.4626 -0.5670  0.0379
   66MOL   C20018530   6.395   1.491   4.902  0.3232 -0.2706 -0.0087
   66MOL   C20118531   6.433   1.565   5.016  0.7283  0.0943  0.6452
   66MOL   C20218532   6.577   1.590   5.027 -0.1015  0.3967  0.7736
   66MOL   C20318533   6.631   1.682   5.107  0.2438  0.7025  0.0875
   66MOL   C20418534   6.342   1.608   5.107 -0.5713 -0.2695  0.6897
   66MOL   C20518535   6.204   1.588   5.085 -0.0172 -0.8379 -0.2977
   66MOL   H20618536   6.234   1.413   4.791  1.8505  0.7543 -1.2345
   66MOL   H20718537   6.471   1.457   4.834  3.7412  1.2125  2.8603
   66MOL   H20818538   6.651   1.528   4.976 -0.9908 -0.4696  0.5154
   66MOL   H20918539   6.575   1.757   5.160 -1.0722 -0.3302  0.1774
   66MOL   H21018540   6.374   1.645   5.204 -0.0787  0.4359  0.2676
   66MOL   H21118541   6.135   1.611   5.164  0.0685  1.9936 -1.0103
   66MOL   C21218542   6.772   1.717   5.110 -1.1479  0.1847 -0.1355
   66MOL   C21318543   6.864   1.664   5.015  0.4704  0.7879  0.0794
   66MOL   C21418544   7.001   1.717   5.013 -0.5400 -0.5660  0.0556
   66MOL   C21518545   7.049   1.799   5.115  0.4365  0.0203 -0.4030
   66MOL   C21618546   7.196   1.838   5.116  0.8101 -0.1153 -0.1100
   66MOL   C21718547   7.250   1.915   5.212 -1.3650  0.0730  0.4992
   66MOL   C21818548   6.956   1.848   5.206  0.0620 -0.5384 -0.6973
   66MOL   C21918549   6.822   1.814   5.202  0.4762  0.1756 -0.0877
   66MOL   H22018550   6.830   1.592   4.942  0.0060 -0.5603  1.6012
   66MOL   H22118551   7.071   1.686   4.935 -0.6442 -1.2467  0.2246
   66MOL   H22218552   7.264   1.810   5.037  0.5993 -0.5302 -0.1446
   66MOL   H22318553   7.176   1.946   5.284 -1.0935  1.6915  0.1058
   66MOL   H22418554   6.975   1.916   5.288  1.2898 -0.1088 -1.3207
   66MOL   H22518555   6.762   1.865   5.277 -0.4533 -1.1671  0.1094
   66MOL   C22618556   7.392   1.952   5.218 -0.5294 -0.2294 -0.1257
   66MOL   C22718557   7.496   1.887   5.148  0.1860 -0.0577  0.5118
   66MOL   C22818558   7.627   1.935   5.163 -0.3426 -0.2358 -0.3665
   66MOL   C22918559   7.654   2.044   5.249  0.1888  0.6268  0.5477
   66MOL   C23018560   7.784   2.082   5.294 -0.4874 -0.2929  0.1545
   66MOL   C23118561   7.893   2.008   5.285  0.4450 -0.1665  0.2177
   66MOL   C23218562   7.550   2.111   5.310 -0.5583 -0.5374  0.2140
   66MOL   C23318563   7.420   2.060   5.302  0.4219  0.3312 -0.0452
   66MOL   H23418564   7.468   1.817   5.070 -1.0492  0.6802  0.2906
   66MOL   H23518565   7.706   1.873   5.124  0.3624  0.8117 -0.6182
   66MOL   H23618566   7.787   2.184   5.329 -1.3774 -0.2537  0.1048
   66MOL   H23718567   7.880   1.907   5.248  0.4831  0.7300 -2.3608
   66MOL   H23818568   7.559   2.203   5.366 -1.6332  0.6914 -1.5412
   66MOL   H23918569   7.340   2.110   5.353 -0.7528 -1.0736 -0.4928
   66MOL   C24018570   8.034   2.035   5.320 -0.5879 -0.3929  0.6231
   66MOL   C24118571   8.138   1.937   5.297 -0.0984  0.1006  0.7718
   66MOL   C24218572   0.125   1.966   5.332 -0.0080 -0.2390  0.1297
   66MOL   C24318573   0.162   2.089   5.390 -0.1452 -0.4964  0.2287
   66MOL   C24418574   0.298   2.130   5.427 -0.4057 -0.8241  0.0976
   66MOL   C24518575   0.415   2.062   5.412  0.2709  0.1311  0.4684
   66MOL   C24618576   0.065   2.186   5.418  0.9612 -0.5546  0.2051
   66MOL   C24718577   8.077   2.160   5.372  0.5267 -0.0115  0.0891
   66MOL   H24818578   8.111   1.847   5.244 -0.3061 -0.3534  1.6328
   66MOL   H24918579   0.195   1.890   5.303 -0.8085 -1.4117  1.2050
   66MOL   H25018580   0.299   2.220   5.487 -1.4390 -0.9758  0.3642
   66MOL   H25118581   0.407   1.970   5.357  0.0926  0.2984  0.2129
   66MOL   H25218582   0.091   2.275   5.475 -6.1376  1.8535  0.1044
   66MOL   H25318583   8.011   2.246   5.369 -0.0538 -0.5145 -2.7907
   66MOL   C25418584   0.551   2.108   5.454  0.3075 -0.5960 -0.0841
   66MOL   C25518585   0.584   2.241   5.486 -0.1315  0.0986 -0.3469
   66MOL   C25618586   0.720   2.284   5.476  0.0544  0.0551  0.6575
   66MOL   C25718587   0.825   2.190   5.452  0.3570 -0.6503  0.2548
   66MOL   C25818588   0.962   2.240   5.444  0.2401  0.4073  0.0962
   66MOL   C25918589   1.064   2.201   5.362  0.3756  0.0646 -0.1939
   66MOL   C26018590   0.788   2.052   5.440 -0.3173  0.1192 -0.0096
   66MOL   C26118591   0.651   2.010   5.447  0.0511 -0.0222  0.3235
   66MOL   H26218592   0.506   2.314   5.500  0.9704  0.9124  1.7059
   66MOL   H26318593   0.733   2.390   5.492 -1.3517  0.1915  0.9523
   66MOL   H26418594   0.986   2.319   5.513  0.4544 -0.2128  0.7317
   66MOL   H26518595   1.156   2.256   5.376 -0.6610  1.2677  2.4243
   66MOL   H26618596   0.863   1.977   5.421  0.1259  0.2779  1.1241
   66MOL   H26718597   0.636   1.904   5.432 -0.2342  0.1592 -0.7301
   66MOL   C26818598   1.048   2.099   5.259 -0.1469  0.3901 -0.6949
   66MOL   C26918599   1.122   1.984   5.271 -0.2899  0.5535  0.4066
   66MOL   C27018600   1.109   1.885   5.168 -0.0828 -0.7650  0.1244
   66MOL   C27118601   1.023   1.905   5.061  0.1857  0.1177 -0.1176
   66MOL   C27218602   1.008   1.801   4.958  0.7944  0.0049  0.2334
   66MOL   C27318603   0.902   1.785   4.874 -0.5134  0.1557 -0.2716
   66MOL   C27418604   0.944   2.025   5.054 -0.4225 -0.3451  0.1087
   66MOL   C27518605   0.956   2.117   5.160 -0.2722 -0.4317  0.2779
   66MOL   H27618606   1.191   1.983   5.355  0.7365  0.5720 -0.4324
   66MOL   H27718607   1.165   1.794   5.171  0.8589 -0.1702  0.7565
   66MOL   H27818608   1.096   1.739   4.952  0.9089  0.1711  0.1823
   66MOL   H27918609   0.826   1.861   4.867  1.2880  1.9924 -0.4110
   66MOL   H28018610   0.875   2.051   4.975  2.5193  1.8095 -1.8571
   66MOL   H28118611   0.902   2.210   5.163  3.4589  1.8205  0.0280
   66MOL   H28218612   0.883   1.704   4.805 -2.3707  0.3213  0.0456
   67MOL     C118613   4.668   6.058   1.264 -0.1753 -0.4459  0.5753
   67MOL     C218614   4.747   6.109   1.158  1.3886 -0.1139 -0.2983
   67MOL     C318615   4.870   6.062   1.121 -0.6304  0.0123  0.0725
   67MOL     C418616   4.921   5.952   1.188 -0.0493  0.6751 -0.5116
   67MOL     C518617   5.053   5.897   1.146 -0.1831  0.4973 -0.2602
   67MOL     C618618   5.133   5.817   1.222 -0.3239 -0.2254  0.3564
   67MOL     C718619   4.850   5.894   1.296 -0.1738  0.5150 -0.0434
   67MOL     C818620   4.723   5.949   1.336 -1.0463  0.5160  0.4209
   67MOL     H918621   4.710   6.191   1.099  0.5997 -0.0057  0.3433
   67MOL    H1018622   4.919   6.121   1.045 -0.9063  0.2152  0.0511
   67MOL    H1118623   5.090   5.920   1.047 -1.6021 -2.0357 -1.4503
   67MOL    H1218624   5.110   5.790   1.324 -1.8448  0.1077  0.1235
   67MOL    H1318625   4.883   5.801   1.339 -1.6932  0.0813  0.2159
   67MOL    H1418626   4.667   5.918   1.423 -1.4041 -1.6555 -0.5391
   67MOL    H1518627   4.565   6.083   1.282 -0.3443 -0.4000 -0.4137
   67MOL    C1618628   5.259   5.760   1.166  0.0038  0.1059 -0.0843
   67MOL    C1718629   5.350   5.692   1.250  0.4016 -0.1451 -0.0925
   67MOL    C1818630   5.469   5.641   1.199 -0.5455  0.4543  0.1758
   67MOL    C1918631   5.504   5.645   1.058  0.4582  0.2056 -1.2916
   67MOL    C2018632   5.630   5.584   1.001  0.8776 -0.2024 -0.1269
   67MOL    C2118633   5.738   5.557   1.073 -0.3509  0.1663  0.2063
   67MOL    C2218634   5.408   5.704   0.974  0.1669  0.6365 -0.2338
   67MOL    C2318635   5.295   5.770   1.030  0.2007  0.0766 -0.0487
   67MOL    H2418636   5.322   5.668   1.351 -0.0810 -3.3080 -0.9275
   67MOL    H2518637   5.538   5.605   1.274 -1.3183  2.8193  2.0942
   67MOL    H2618638   5.628   5.564   0.895 -2.2193  0.7685 -0.3008
   67MOL    H2718639   5.742   5.571   1.180  0.5403  2.1733 -0.0705
   67MOL    H2818640   5.419   5.710   0.867  0.2549 -1.7217 -0.3998
   67MOL    H2918641   5.235   5.810   0.949 -1.9917  0.9695  1.9560
   67MOL    C3018642   5.864   5.505   1.016 -0.7138 -0.4196 -0.0377
   67MOL    C3118643   5.881   5.475   0.881 -0.2911 -0.3066 -1.1460
   67MOL    C3218644   6.006   5.437   0.828  0.0725  0.4522  0.0702
   67MOL    C3318645   6.120   5.418   0.912 -0.1035 -0.4785 -0.6087
   67MOL    C3418646   6.249   5.381   0.855  0.3016 -0.0340  0.6173
   67MOL    C3518647   6.363   5.347   0.924  0.2148 -0.4563  0.1204
   67MOL    C3618648   6.100   5.455   1.048 -0.1249  0.1622  0.2568
   67MOL    C3718649   5.980   5.496   1.102  0.0933  0.8878 -0.7069
   67MOL    H3818650   5.804   5.487   0.805  1.1091  1.3215 -2.3520
   67MOL    H3918651   6.008   5.435   0.720 -0.5469 -1.4390  0.0811
   67MOL    H4018652   6.251   5.369   0.748 -1.1123  1.6661  0.3728
   67MOL    H4118653   6.360   5.367   1.030 -0.7895  0.9817 -0.1678
   67MOL    H4218654   6.187   5.448   1.113  0.1088  2.4633  0.2358
   67MOL    H4318655   5.972   5.500   1.209 -1.2023 -0.9389 -0.7244
   67MOL    C4418656   6.487   5.301   0.860  0.3932 -0.3562 -0.3897
   67MOL    C4518657   6.591   5.251   0.952 -0.5028 -0.4464  0.3100
   67MOL    C4618658   6.700   5.187   0.894 -0.2454 -0.3099 -0.2795
   67MOL    C4718659   6.714   5.168   0.752 -0.0252 -0.6113 -1.0997
   67MOL    C4818660   6.832   5.099   0.701  0.1140  0.0765 -0.4637
   67MOL    C4918661   6.872   5.102   0.575 -0.2144  0.1945  0.5523
   67MOL    C5018662   6.618   5.231   0.669 -0.6102  1.2303  0.1729
   67MOL    C5118663   6.506   5.290   0.720  0.2639  0.4651  0.0211
   67MOL    H5218664   6.588   5.253   1.060  1.2768 -0.5202  0.3725
   67MOL    H5318665   6.777   5.144   0.956  0.2281 -1.2390 -1.4787
   67MOL    H5418666   6.899   5.054   0.773  0.5149  1.1034 -0.1776
   67MOL    H5518667   6.813   5.141   0.494 -0.7889 -0.1208  0.8235
   67MOL    H5618668   6.625   5.236   0.561  2.3573 -1.0477  0.1992
   67MOL    H5718669   6.429   5.331   0.655  1.5065  0.0166 -1.7877
   67MOL    C5818670   6.997   5.048   0.533 -0.4205  0.3919 -0.7933
   67MOL    C5918671   7.095   4.977   0.611  0.9703 -0.3426  0.5632
   67MOL    C6018672   7.217   4.936   0.559  0.1585 -0.4927  0.3743
   67MOL    C6118673   7.253   4.971   0.426  0.2956  0.9188 -0.1099
   67MOL    C6218674   7.384   4.922   0.379  0.3852 -0.4227 -0.1345
   67MOL    C6318675   7.439   4.964   0.263  0.1951  0.2351  0.0252
   67MOL    C6418676   7.159   5.046   0.351 -0.7332  0.7355  0.4387
   67MOL    C6518677   7.034   5.081   0.398  0.0585 -0.2155  0.1317
   67MOL    H6618678   7.075   4.942   0.711 -1.5156  0.5186  0.3949
   67MOL    H6718679   7.286   4.875   0.616 -0.1550 -0.9729  0.2427
   67MOL    H6818680   7.435   4.857   0.448  1.2003  0.3804  0.0265
   67MOL    H6918681   7.387   5.023   0.189  2.2291  0.3004 -1.3831
   67MOL    H7018682   7.194   5.084   0.256  1.1940  0.5545  1.0646
   67MOL    H7118683   6.964   5.140   0.342  1.7095 -0.7284 -2.5665
   67MOL    C7218684   7.571   4.932   0.217  0.4257 -0.5340  1.0200
   67MOL    C7318685   7.670   4.880   0.300 -0.2316  0.3461  1.0191
   67MOL    C7418686   7.795   4.840   0.253 -0.1527  0.1504  0.2894
   67MOL    C7518687   7.824   4.848   0.114  0.6998 -0.2246  0.1499
   67MOL    C7618688   7.949   4.819   0.048  0.7979 -0.2278 -0.0590
   67MOL    C7718689   8.069   4.787   0.104 -0.2771 -0.1082  1.0397
   67MOL    C7818690   7.722   4.902   0.027 -0.9542  0.2567 -0.1324
   67MOL    C7918691   7.593   4.931   0.077 -0.5983 -0.3462  0.5798
   67MOL    H8018692   7.656   4.882   0.407 -1.4592 -1.1262  0.9130
   67MOL    H8118693   7.878   4.804   0.312  0.2962 -0.8166 -0.9106
   67MOL    H8218694   7.940   4.827   8.085  1.4592  2.1494  0.0241
   67MOL    H8318695   8.080   4.779   0.211  0.8585  0.2856  0.9537
   67MOL    H8418696   7.734   4.922   8.066 -1.2672  2.1814  0.1838
   67MOL    H8518697   7.517   4.978   0.016  0.3877  1.3282  0.6042
   67MOL    C8618698   0.048   4.769   0.034  0.6724 -0.0448  0.2417
   67MOL    C8718699   0.138   4.680   0.089  0.1987  0.9185  0.3435
   67MOL    C8818700   0.246   4.626   0.016  0.2765 -0.1909 -0.9342
   67MOL    C8918701   0.266   4.670   8.025 -0.9101  0.0729  0.6673
   67MOL    C9018702   0.367   4.611   7.933  1.1091 -0.5155  0.3275
   67MOL    C9118703   0.443   4.504   7.949 -0.3504  0.7095 -0.0382
   67MOL    C9218704   0.187   4.778   7.977  0.4738 -0.0520  0.5489
   67MOL    C9318705   0.074   4.820   8.050 -0.3522  1.3183  0.4235
   67MOL    H9418706   0.119   4.643   0.189 -1.9533  3.0595  0.7704
   67MOL    H9518707   0.297   4.534   0.039 -0.8149 -0.2197  1.5738
   67MOL    H9618708   0.374   4.662   7.838  0.2873 -1.9792 -0.5363
   67MOL    H9718709   0.448   4.455   8.045 -1.6511  0.7260  0.0427
   67MOL    H9818710   0.207   4.811   7.876  1.1752 -2.1928 -0.0314
   67MOL    H9918711   0.015   4.899   8.005  3.1971  3.4136 -0.7527
   67MOL   C10018712   0.528   4.444   7.844  0.1946 -0.4411  0.4494
   67MOL   C10118713   0.575   4.315   7.863 -0.8998  0.4695  0.0484
   67MOL   C10218714   0.634   4.242   7.752  0.2390 -1.0181 -0.4344
   67MOL   C10318715   0.649   4.307   7.626  0.3951  0.1695 -0.2475
   67MOL   C10418716   0.696   4.232   7.508 -0.1143 -0.6031 -0.1534
   67MOL   C10518717   0.662   4.102   7.498  0.2320  0.7093  0.1100
   67MOL   C10618718   0.610   4.440   7.609 -0.1615  0.0297  0.0474
   67MOL   C10718719   0.554   4.506   7.720 -0.5287 -0.4672  0.1013
   67MOL   H10818720   0.576   4.256   7.954 -1.4119  0.2997 -0.0531
   67MOL   H10918721   0.669   4.141   7.769  0.3133 -1.0942 -1.0372
   67MOL   H11018722   0.762   4.281   7.437 -1.1128  4.1826  1.9806
   67MOL   H11118723   0.600   4.054   7.573  0.4237 -0.7979 -0.6761
   67MOL   H11218724   0.630   4.491   7.516  1.5314  0.5120  0.6400
   67MOL   H11318725   0.513   4.606   7.713 -1.0736 -0.7310 -0.5959
   67MOL   C11418726   0.703   4.007   7.392  0.4390 -0.1431  0.0620
   67MOL   C11518727   0.654   3.874   7.402 -0.1997 -0.4328 -0.0835
   67MOL   C11618728   0.677   3.785   7.294 -0.2896 -0.4593 -0.4706
   67MOL   C11718729   0.743   3.823   7.179  0.5420 -0.3603  0.4030
   67MOL   C11818730   0.750   3.731   7.057  0.0298  0.7654 -0.8808
   67MOL   C11918731   0.821   3.736   6.942 -0.4451 -0.0737 -0.4666
   67MOL   C12018732   0.818   3.945   7.177  0.4380 -0.1416 -0.3650
   67MOL   C12118733   0.789   4.037   7.282  0.2298 -0.3854 -0.2174
   67MOL   H12218734   0.604   3.837   7.490 -0.8890 -0.3078 -0.4184
   67MOL   H12318735   0.652   3.680   7.305 -1.0281 -0.2064  0.3650
   67MOL   H12418736   0.681   3.648   7.070  0.9388  0.1248 -0.0502
   67MOL   H12518737   0.885   3.821   6.927  0.3571 -0.8606 -1.5448
   67MOL   H12618738   0.875   3.969   7.089  2.3671  0.3103  0.9941
   67MOL   H12718739   0.841   4.132   7.278  1.1013 -0.8751 -0.4823
   67MOL   C12818740   0.820   3.643   6.834 -0.9408  0.2042 -0.5550
   67MOL   C12918741   0.923   3.639   6.740 -0.2397 -0.1690 -0.2688
   67MOL   C13018742   0.919   3.543   6.639  0.4225  0.3315 -1.2230
   67MOL   C13118743   0.819   3.443   6.634  0.0775  0.3547  0.2847
   67MOL   C13218744   0.797   3.342   6.522 -0.2368 -0.4555  0.3113
   67MOL   C13318745   0.856   3.329   6.402 -0.1319  0.0398  0.2211
   67MOL   C13418746   0.722   3.439   6.736  0.4599 -0.4741  0.4095
   67MOL   C13518747   0.724   3.536   6.833  0.6449  0.7662 -0.4244
   67MOL   H13618748   0.998   3.717   6.738  0.4755 -0.8388  0.1301
   67MOL   H13718749   0.991   3.543   6.558 -1.1795 -0.8459 -2.6694
   67MOL   H13818750   0.724   3.268   6.549  0.8148 -0.9934  1.7596
   67MOL   H13918751   0.931   3.398   6.367 -0.0126  0.8387  2.0044
   67MOL   H14018752   0.651   3.358   6.748  2.4940 -2.5022 -0.6586
   67MOL   H14118753   0.642   3.532   6.904  2.5635  1.1358  1.8756
   67MOL   C14218754   0.819   3.225   6.301 -0.4794  0.6650 -0.1817
   67MOL   C14318755   0.725   3.128   6.330  0.3594 -0.8087 -0.1235
   67MOL   C14418756   0.690   3.031   6.231 -0.1661  0.1129  0.1243
   67MOL   C14518757   0.747   3.026   6.101  0.5486  0.4376 -0.2213
   67MOL   C14618758   0.690   2.929   6.002 -0.7797 -0.5488 -0.3790
   67MOL   C14718759   0.725   2.911   5.870 -0.3838 -0.7332  0.3544
   67MOL   C14818760   0.844   3.126   6.072  1.3006 -0.8814 -0.1305
   67MOL   C14918761   0.867   3.234   6.163 -0.0087 -0.1165 -0.4043
   67MOL   H15018762   0.669   3.123   6.422  0.8797 -1.5858  0.1546
   67MOL   H15118763   0.616   2.960   6.266 -0.9276  0.5845 -0.4993
   67MOL   H15218764   0.611   2.872   6.048 -1.0811  0.5480  0.4763
   67MOL   H15318765   0.811   2.961   5.826 -0.3770 -0.3663  0.7798
   67MOL   H15418766   0.883   3.131   5.971  0.0560  3.3572 -0.5279
   67MOL   H15518767   0.941   3.304   6.127  0.5666 -1.2618 -1.5106
   67MOL   C15618768   0.664   2.829   5.771 -0.0615  0.3146  0.2060
   67MOL   C15718769   0.696   2.855   5.635  0.3480  0.0125 -0.1721
   67MOL   C15818770   0.637   2.781   5.530 -0.7370 -0.4611 -0.0927
   67MOL   C15918771   0.529   2.692   5.558 -0.2088  0.2029  0.7220
   67MOL   C16018772   0.455   2.620   5.457 -0.1721  0.6074  0.0338
   67MOL   C16118773   0.493   2.605   5.332  0.1137 -0.9887 -0.1941
   67MOL   C16218774   0.489   2.670   5.692 -0.2808  0.4278 -0.2585
   67MOL   C16318775   0.557   2.739   5.802  0.0379  0.6599 -0.9469
   67MOL   H16418776   0.778   2.924   5.622  1.3343 -1.4456 -1.8319
   67MOL   H16518777   0.673   2.802   5.431  1.5198  0.4809  0.8948
   67MOL   H16618778   0.356   2.586   5.483 -1.5374  2.9052 -1.9088
   67MOL   H16718779   0.588   2.647   5.300 -0.2367  0.6618  0.8854
   67MOL   H16818780   0.414   2.594   5.705 -0.0081  0.2125  0.0681
   67MOL   H16918781   0.508   2.717   5.896 -1.7172  1.3438 -1.6761
   67MOL   C17018782   0.409   2.545   5.228 -1.2839  0.4358 -0.3991
   67MOL   C17118783   0.296   2.466   5.258  0.8428  1.0017  0.4868
   67MOL   C17218784   0.212   2.416   5.156  0.6227  0.1848  0.6360
   67MOL   C17318785   0.244   2.441   5.025 -0.4380  0.5556  0.5838
   67MOL   C17418786   0.154   2.397   4.919 -0.1375  0.5592 -0.9091
   67MOL   C17518787   0.033   2.339   4.930 -0.4534 -0.9877  0.0591
   67MOL   C17618788   0.363   2.510   4.992 -0.4773  0.0309  0.3869
   67MOL   C17718789   0.446   2.571   5.095  0.1480 -0.0696 -0.0715
   67MOL   H17818790   0.279   2.449   5.363  1.0020  0.7032  0.4638
   67MOL   H17918791   0.128   2.357   5.188 -0.7198  1.9529  0.4376
   67MOL   H18018792   0.186   2.426   4.820  0.7372  2.6039 -0.0661
   67MOL   H18118793   0.002   2.317   5.031  1.5779 -0.6639  0.7762
   67MOL   H18218794   0.395   2.524   4.890 -3.1573  0.4279 -0.4353
   67MOL   H18318795   0.542   2.615   5.070  0.7069 -1.4996 -0.5049
   67MOL   C18418796   8.092   2.303   4.815  0.5837 -0.1235  0.0080
   67MOL   C18518797   8.128   2.289   4.682 -0.1276 -0.2532 -0.3247
   67MOL   C18618798   8.037   2.251   4.587  0.5985 -0.3727  0.0186
   67MOL   C18718799   7.905   2.224   4.620 -0.2150  0.2615 -0.0327
   67MOL   C18818800   7.805   2.194   4.511 -0.2225  0.6253  0.1300
   67MOL   C18918801   7.700   2.110   4.530 -0.5113 -0.7285  0.3158
   67MOL   C19018802   7.863   2.231   4.753 -0.0099 -0.2479  0.2566
   67MOL   C19118803   7.962   2.267   4.850  0.9517 -0.1106 -0.8908
   67MOL   H19218804   0.085   2.319   4.660 -0.8433  2.1828 -0.4173
   67MOL   H19318805   8.073   2.238   4.486  1.2133  0.7836  0.0822
   67MOL   H19418806   7.823   2.239   4.415 -1.0615 -0.4411 -0.5437
   67MOL   H19518807   7.676   2.069   4.627  1.6779 -0.6743  0.9007
   67MOL   H19618808   7.764   2.198   4.778  0.2918 -0.6534  0.9328
   67MOL   H19718809   7.932   2.264   4.953  0.2366  1.0628 -1.0619
   67MOL   C19818810   7.605   2.084   4.414  0.5198  0.3397  0.3538
   67MOL   C19918811   7.473   2.042   4.440 -0.6184 -0.9768 -0.3007
   67MOL   C20018812   7.383   2.032   4.332 -0.0350 -0.2448  0.5773
   67MOL   C20118813   7.427   2.053   4.200  0.0350 -0.2478  0.2217
   67MOL   C20218814   7.332   2.054   4.088 -0.8233  0.2879  0.3814
   67MOL   C20318815   7.197   2.052   4.098  0.3377  0.4944 -0.1824
   67MOL   C20418816   7.556   2.087   4.168 -0.0666 -0.2237  0.2492
   67MOL   C20518817   7.643   2.109   4.278  1.0564  0.3319  0.1038
   67MOL   H20618818   7.434   2.019   4.538  0.0200  1.1068  0.4547
   67MOL   H20718819   7.284   1.998   4.361 -0.5008 -0.7593 -1.5352
   67MOL   H20818820   7.371   2.053   3.988 -0.8119  0.1135  0.3872
   67MOL   H20918821   7.146   2.042   4.193  0.7730 -0.6275 -0.0584
   67MOL   H21018822   7.581   2.116   4.067  0.6563 -0.0435  0.4741
   67MOL   H21118823   7.745   2.130   4.248  0.3812  4.0629  0.0889
   67MOL   C21218824   7.097   2.056   3.988  0.0234 -0.2705 -0.4329
   67MOL   C21318825   6.966   2.041   4.024  0.1184 -0.6326 -0.0479
   67MOL   C21418826   6.863   2.066   3.936  0.0475  0.3896 -0.5187
   67MOL   C21518827   6.899   2.096   3.799  0.1127  0.2938  0.1766
   67MOL   C21618828   6.795   2.111   3.691  0.1823 -0.0210  0.3125
   67MOL   C21718829   6.660   2.129   3.713 -0.1320 -0.0330 -0.4534
   67MOL   C21818830   7.032   2.115   3.768 -0.0567  0.0807 -0.2389
   67MOL   C21918831   7.138   2.090   3.855  0.2117  0.0106  0.6272
   67MOL   H22018832   6.937   2.027   4.127  0.0216 -0.2395 -0.0208
   67MOL   H22118833   6.762   2.058   3.971  0.8909 -1.3611  1.5935
   67MOL   H22218834   6.835   2.112   3.591  0.2642  0.1339  0.3468
   67MOL   H22318835   6.622   2.128   3.814 -0.2342  0.3986 -0.4886
   67MOL   H22418836   7.063   2.135   3.666 -0.5706  1.0418 -0.2100
   67MOL   H22518837   7.238   2.114   3.822 -0.5076  0.8924 -0.9148
   67MOL   C22618838   6.555   2.134   3.604 -0.0198 -0.3238 -0.3538
   67MOL   C22718839   6.567   2.093   3.472 -1.0560 -0.5451  0.0417
   67MOL   C22818840   6.456   2.083   3.388 -0.1317 -0.0825 -0.9607
   67MOL   C22918841   6.329   2.122   3.435 -0.3613 -0.4335 -0.2410
   67MOL   C23018842   6.214   2.105   3.350  0.5274  0.0151  0.0728
   67MOL   C23118843   6.087   2.133   3.380 -0.4631  0.4314  0.3840
   67MOL   C23218844   6.322   2.182   3.563  0.6119  0.9445 -0.2202
   67MOL   C23318845   6.431   2.185   3.649  0.1097  0.0726 -0.0311
   67MOL   H23418846   6.661   2.054   3.438  0.1427  0.7871  1.7462
   67MOL   H23518847   6.472   2.049   3.287  0.9613  1.1535 -1.2103
   67MOL   H23618848   6.229   2.062   3.253  0.3070  0.0117  0.0394
   67MOL   H23718849   6.049   2.181   3.469 -1.9991  1.4543 -0.7944
   67MOL   H23818850   6.229   2.227   3.594 -0.8188 -0.1375 -2.8003
   67MOL   H23918851   6.413   2.218   3.750 -0.0427  0.8344 -0.3077
   67MOL   C24018852   5.975   2.099   3.282  0.3682 -0.1875 -0.5411
   67MOL   C24118853   5.845   2.081   3.331 -0.4825 -0.0039  0.0646
   67MOL   C24218854   5.736   2.058   3.241 -0.3497 -0.6009  0.0767
   67MOL   C24318855   5.761   2.044   3.101  0.4594 -0.4915 -0.4602
   67MOL   C24418856   5.655   2.049   2.997  0.4815  0.6068  0.5852
   67MOL   C24518857   5.527   2.092   3.012 -1.0672  0.0293  0.2299
   67MOL   C24618858   5.893   2.048   3.057 -0.5669 -0.9060  0.1345
   67MOL   C24718859   5.994   2.066   3.150  0.1665 -0.2844  0.2515
   67MOL   H24818860   5.816   2.108   3.431  0.1896  2.1149 -0.2882
   67MOL   H24918861   5.633   2.069   3.270 -0.3415 -0.0543 -0.1096
   67MOL   H25018862   5.686   2.011   2.901 -0.5813 -1.0040  0.8460
   67MOL   H25118863   5.484   2.123   3.106 -2.7763  0.0334 -0.5232
   67MOL   H25218864   5.917   2.044   2.951  1.1557  0.9491  0.4253
   67MOL   H25318865   6.092   2.077   3.106  0.3375 -0.7509  0.5130
   67MOL   C25418866   5.435   2.106   2.897  0.2182 -0.5606  0.0278
   67MOL   C25518867   5.480   2.173   2.783 -0.1907  0.5682  0.0467
   67MOL   C25618868   5.393   2.216   2.683  0.6698  0.1779  0.1113
   67MOL   C25718869   5.259   2.174   2.682  0.1772 -0.0486  0.1151
   67MOL   C25818870   5.184   2.217   2.562 -0.0265  0.3983  0.1361
   67MOL   C25918871   5.053   2.202   2.532  0.3028 -0.0221  0.1450
   67MOL   C26018872   5.213   2.090   2.791  0.2337 -0.2233  0.5032
   67MOL   C26118873   5.300   2.062   2.899  0.5132 -0.3754  0.3597
   67MOL   H26218874   5.579   2.215   2.785  0.4963 -0.9128 -1.5352
   67MOL   H26318875   5.434   2.268   2.597 -0.7485  0.9987 -0.0853
   67MOL   H26418876   5.241   2.265   2.484  0.5344  1.0084  0.9096
   67MOL   H26518877   5.020   2.237   2.436  2.0703 -3.0648 -1.6471
   67MOL   H26618878   5.113   2.048   2.785  0.3722 -0.4340 -0.3390
   67MOL   H26718879   5.269   1.999   2.980  0.4323 -0.9623 -0.1230
   67MOL   C26818880   4.944   2.162   2.629 -0.0107  0.2504  0.0570
   67MOL   C26918881   4.847   2.065   2.596  1.1922 -0.0583 -0.0653
   67MOL   C27018882   4.758   2.022   2.698  0.1468 -0.4088  0.2694
   67MOL   C27118883   4.756   2.086   2.825 -0.1398 -0.3712  0.4665
   67MOL   C27218884   4.665   2.064   2.937  0.0216  0.1888  0.3396
   67MOL   C27318885   4.570   1.963   2.952  0.8308  0.5525 -0.5850
   67MOL   C27418886   4.852   2.187   2.855  0.1617 -0.2541  0.1472
   67MOL   C27518887   4.945   2.226   2.761 -0.4088  0.1895 -0.5040
   67MOL   H27618888   4.828   2.019   2.500  0.4981  2.2498 -1.0756
   67MOL   H27718889   4.688   1.948   2.663  0.9525  0.1984 -2.7933
   67MOL   H27818890   4.679   2.141   3.012  0.1217  0.5035 -0.0012
   67MOL   H27918891   4.552   1.890   2.874  2.1844  1.6764 -1.9829
   67MOL   H28018892   4.864   2.238   2.949  1.2466 -1.1788  0.5201
   67MOL   H28118893   5.024   2.292   2.793 -0.2120 -1.1392  1.8456
   67MOL   H28218894   4.510   1.958   3.042  0.2195  1.1128 -0.9567
   68MOL     C118895   3.740   3.645   0.285 -0.5232 -0.1122  0.6581
   68MOL     C218896   3.697   3.777   0.302 -0.6682  0.4593  0.2600
   68MOL     C318897   3.664   3.853   0.189 -0.3165  0.1637  0.5940
   68MOL     C418898   3.684   3.806   0.059  0.8480  0.0526 -0.1186
   68MOL     C518899   3.661   3.911   8.097 -0.1758  1.0522  0.2792
   68MOL     C618900   3.718   3.901   7.973 -0.2891 -0.0488 -0.1564
   68MOL     C718901   3.736   3.678   0.039 -0.5246 -0.0520  0.0140
   68MOL     C818902   3.760   3.595   0.154 -0.6714 -0.3657 -0.3785
   68MOL     H918903   3.688   3.828   0.397 -0.6277  0.6127  0.1825
   68MOL    H1018904   3.640   3.957   0.202 -1.6489 -0.2616  1.7030
   68MOL    H1118905   3.606   4.003   8.114  0.3313  1.3019  0.5600
   68MOL    H1218906   3.782   3.819   7.945 -0.4083  0.2366 -1.2761
   68MOL    H1318907   3.750   3.633   8.086 -0.4770 -0.8830  0.3992
   68MOL    H1418908   3.798   3.496   0.135  0.5259  0.2061 -1.0633
   68MOL    H1518909   3.759   3.586   0.374 -0.8187 -0.3296  0.5785
   68MOL    C1618910   3.705   3.999   7.867 -0.6629  0.1435  0.3789
   68MOL    C1718911   3.595   4.081   7.847  0.3156 -0.5531  0.3294
   68MOL    C1818912   3.583   4.165   7.738  0.3723 -0.2320 -0.8082
   68MOL    C1918913   3.685   4.168   7.639  0.0054 -0.1495  0.0511
   68MOL    C2018914   3.664   4.273   7.538 -0.6118  0.0547  0.0742
   68MOL    C2118915   3.733   4.302   7.427 -0.4671  0.0545 -0.0029
   68MOL    C2218916   3.801   4.086   7.657  0.1193 -0.0323 -0.4995
   68MOL    C2318917   3.808   4.002   7.768  0.4299  0.1255 -0.0467
   68MOL    H2418918   3.517   4.088   7.921 -1.0854  1.4567 -1.2603
   68MOL    H2518919   3.487   4.212   7.727 -0.1075 -0.4307  2.2502
   68MOL    H2618920   3.570   4.323   7.560 -0.3319  0.0437  1.3368
   68MOL    H2718921   3.817   4.236   7.410  0.0439  0.2676  1.5832
   68MOL    H2818922   3.877   4.091   7.581 -0.3407 -1.1878 -1.0311
   68MOL    H2918923   3.894   3.937   7.766  0.9151  0.7690 -0.3925
   68MOL    C3018924   3.709   4.412   7.341  0.1004  0.2146  0.5329
   68MOL    C3118925   3.798   4.428   7.231  0.1536 -0.2822 -0.4631
   68MOL    C3218926   3.775   4.542   7.152 -0.5290  0.3773  0.4720
   68MOL    C3318927   3.674   4.636   7.182  0.3117 -0.2436  0.3481
   68MOL    C3418928   3.668   4.764   7.103  0.5602  0.2972 -0.2012
   68MOL    C3518929   3.573   4.861   7.124 -0.8333  0.2317  0.0845
   68MOL    C3618930   3.573   4.607   7.278  0.3558 -0.2004 -0.1053
   68MOL    C3718931   3.590   4.488   7.355 -1.2190 -0.3931  0.2454
   68MOL    H3818932   3.894   4.379   7.228  1.5695  2.4694 -2.5194
   68MOL    H3918933   3.848   4.579   7.080  0.8357  0.0894  1.6954
   68MOL    H4018934   3.747   4.775   7.030 -1.2769  0.4446 -2.2571
   68MOL    H4118935   3.494   4.849   7.197  0.2187 -1.3104  0.9929
   68MOL    H4218936   3.493   4.674   7.305 -0.3380 -0.8025 -0.6378
   68MOL    H4318937   3.519   4.470   7.433  0.8402  0.4393  2.3637
   68MOL    C4418938   3.560   4.991   7.058  0.2515 -0.1036 -0.0143
   68MOL    C4518939   3.636   5.033   6.949  0.1630 -0.2468 -0.9731
   68MOL    C4618940   3.627   5.161   6.898 -0.2639 -0.4032  0.8784
   68MOL    C4718941   3.562   5.260   6.969  0.4222 -0.3469  0.6148
   68MOL    C4818942   3.561   5.405   6.928 -0.1543 -0.3259  0.1581
   68MOL    C4918943   3.642   5.460   6.842  1.2738 -0.1276 -0.1566
   68MOL    C5018944   3.481   5.224   7.079 -0.3566 -0.0890 -0.5939
   68MOL    C5118945   3.487   5.093   7.123  0.0951 -0.0301  0.1697
   68MOL    H5218946   3.707   4.964   6.906 -0.3812  0.0521 -2.3626
   68MOL    H5318947   3.681   5.182   6.807 -1.2859 -1.1773  0.0738
   68MOL    H5418948   3.494   5.471   6.981  0.0860 -0.5289  0.7225
   68MOL    H5518949   3.720   5.400   6.796  1.1084 -1.0932  0.8120
   68MOL    H5618950   3.425   5.293   7.140  1.7337  1.2769 -0.1806
   68MOL    H5718951   3.432   5.068   7.213 -0.2011  1.0311  0.2911
   68MOL    C5818952   3.632   5.604   6.802 -0.2737  0.3273 -0.3886
   68MOL    C5918953   3.571   5.705   6.877 -0.3446  0.4264 -0.1898
   68MOL    C6018954   3.586   5.838   6.841 -0.1880 -0.0573 -0.4496
   68MOL    C6118955   3.658   5.872   6.728  0.7024  0.8082 -0.5856
   68MOL    C6218956   3.652   6.006   6.670 -0.2559 -0.3183 -0.9936
   68MOL    C6318957   3.592   6.115   6.722 -0.0258  0.2790  1.1928
   68MOL    C6418958   3.710   5.772   6.647 -0.2880  0.2715 -0.3613
   68MOL    C6518959   3.697   5.640   6.682 -0.3041  0.7677 -0.3119
   68MOL    H6618960   3.510   5.690   6.965 -0.6413 -0.5805 -0.5562
   68MOL    H6718961   3.533   5.917   6.892 -0.1385  0.4880 -1.2261
   68MOL    H6818962   3.698   6.025   6.574 -1.7395 -0.0011 -1.6498
   68MOL    H6918963   3.539   6.113   6.816 -1.1239  1.7515  0.6432
   68MOL    H7018964   3.767   5.793   6.557  0.2110  1.4022  0.1987
   68MOL    H7118965   3.741   5.556   6.630  0.5245  1.6753 -1.1002
   68MOL    C7218966   3.595   6.250   6.665 -0.1953 -0.0198  0.4819
   68MOL    C7318967   3.700   6.288   6.574  0.5339 -0.0408 -0.2687
   68MOL    C7418968   3.701   6.414   6.525  0.3240  0.0593  0.3009
   68MOL    C7518969   3.605   6.513   6.563  0.0917 -0.6384 -0.1599
   68MOL    C7618970   3.625   6.651   6.522 -1.3038 -0.1334  0.0449
   68MOL    C7718971   3.735   6.708   6.469 -0.2623  0.3298  0.4582
   68MOL    C7818972   3.504   6.478   6.659 -0.6464 -0.5296 -0.3201
   68MOL    C7918973   3.499   6.348   6.709  0.8082  0.4744  0.6784
   68MOL    H8018974   3.783   6.221   6.557 -0.3084 -0.8557 -1.2603
   68MOL    H8118975   3.787   6.436   6.464 -1.4547  3.2392 -1.1870
   68MOL    H8218976   3.533   6.703   6.543 -3.2484 -2.5192 -2.2196
   68MOL    H8318977   3.815   6.643   6.437 -1.8358 -0.7661 -1.3187
   68MOL    H8418978   3.425   6.537   6.703  0.4112  1.0782 -0.5315
   68MOL    H8518979   3.415   6.322   6.771  0.9109 -1.7923 -0.0844
   68MOL    C8618980   3.765   6.851   6.444 -0.0315  0.0389 -0.0673
   68MOL    C8718981   3.688   6.950   6.505  0.1631 -0.5242 -0.0789
   68MOL    C8818982   3.720   7.082   6.480  0.0079 -0.3989  0.5761
   68MOL    C8918983   3.824   7.120   6.395 -0.0630  0.5137 -0.2088
   68MOL    C9018984   3.864   7.259   6.382  0.1130  0.7483 -0.1037
   68MOL    C9118985   3.936   7.312   6.282 -0.6264 -0.4687  0.1617
   68MOL    C9218986   3.905   7.022   6.338 -0.7327  0.5186  0.5378
   68MOL    C9318987   3.882   6.887   6.367 -0.2430 -0.4575 -0.6896
   68MOL    H9418988   3.605   6.927   6.570 -1.5128  0.7262 -1.7250
   68MOL    H9518989   3.675   7.164   6.535 -1.1917 -0.4633 -0.3099
   68MOL    H9618990   3.821   7.327   6.454  2.5513 -0.0191  2.1293
   68MOL    H9718991   3.970   7.244   6.205 -0.4439 -0.4099  0.1902
   68MOL    H9818992   3.994   7.051   6.284 -0.3598 -0.9145  0.3694
   68MOL    H9918993   3.957   6.813   6.343 -0.3505 -0.3029 -1.5139
   68MOL   C10018994   3.992   7.444   6.265 -0.1068 -0.0583 -0.1516
   68MOL   C10118995   3.967   7.539   6.367 -0.2719 -0.0590  0.1318
   68MOL   C10218996   4.028   7.666   6.375 -0.5264  0.4828 -0.3990
   68MOL   C10318997   4.127   7.695   6.279  0.0742 -0.1966  0.1547
   68MOL   C10418998   4.209   7.822   6.287 -0.5760  0.1554 -0.5925
   68MOL   C10518999   4.193   7.923   6.375 -0.2260  0.3694  0.2705
   68MOL   C10619000   4.145   7.609   6.168  0.2374 -0.3669 -0.5111
   68MOL   C10719001   4.084   7.476   6.164 -0.0030 -0.1883 -0.0279
   68MOL   H10819002   3.892   7.523   6.444 -1.4082 -0.0937 -0.9642
   68MOL   H10919003   3.990   7.731   6.452 -0.7395  0.1224 -0.2011
   68MOL   H11019004   4.290   7.817   6.215 -0.5721  1.5793 -0.6858
   68MOL   H11119005   4.114   7.919   6.448  0.3707  1.8885  1.0226
   68MOL   H11219006   4.206   7.644   6.086  2.0118 -1.1177  0.4753
   68MOL   H11319007   4.096   7.409   6.080  0.5518  0.8559 -0.8022
   68MOL   C11419008   4.278   8.042   6.372 -0.4595 -0.4362  0.1217
   68MOL   C11519009   4.281   8.135   6.480  0.0076  0.4033 -0.2517
   68MOL   C11619010   4.376   0.096   6.491 -0.7314  0.2171 -0.4814
   68MOL   C11719011   4.476   0.109   6.393  0.3511 -0.4873 -0.0526
   68MOL   C11819012   4.594   0.203   6.401 -0.3253  0.0448 -0.7455
   68MOL   C11919013   4.622   0.289   6.501 -0.4393 -0.3785 -0.1448
   68MOL   C12019014   4.467   0.033   6.276 -0.3486 -0.0428 -0.1103
   68MOL   C12119015   4.376   8.066   6.273  0.7932 -0.3830 -0.1517
   68MOL   H12219016   4.198   8.139   6.549 -1.1732 -0.3788 -1.5938
   68MOL   H12319017   4.370   0.162   6.577  0.2366  0.0152 -0.2561
   68MOL   H12419018   4.655   0.204   6.312 -1.2956 -2.2232 -1.4494
   68MOL   H12519019   4.557   0.296   6.586  0.0167  1.0784  0.0921
   68MOL   H12619020   4.549   0.038   6.205  0.6478  0.5627  1.0715
   68MOL   H12719021   4.383   8.007   6.183 -0.2989  1.6277 -1.5967
   68MOL   C12819022   4.743   0.370   6.514 -1.0770  0.7117  0.1899
   68MOL   C12919023   4.861   0.363   6.426  0.9067 -0.5448 -0.1116
   68MOL   C13019024   4.980   0.429   6.457 -0.3506  0.3378  0.1401
   68MOL   C13119025   4.989   0.513   6.567 -0.2833 -0.6139 -0.4314
   68MOL   C13219026   5.112   0.582   6.613 -0.0595 -0.1727  0.7546
   68MOL   C13319027   5.232   0.562   6.554 -0.4239 -0.0548  0.6460
   68MOL   C13419028   4.871   0.531   6.648  0.2965 -0.6342 -0.2689
   68MOL   C13519029   4.752   0.460   6.621  0.1539 -0.7439 -0.2008
   68MOL   H13619030   4.853   0.305   6.335 -0.7938 -0.6998  0.1110
   68MOL   H13719031   5.059   0.425   6.383  1.2349  2.2341  1.6579
   68MOL   H13819032   5.102   0.652   6.694  0.8426  0.4392  0.3422
   68MOL   H13919033   5.247   0.491   6.474  2.4661  0.5502  0.5996
   68MOL   H14019034   4.882   0.598   6.732  2.2574 -0.6753 -0.4797
   68MOL   H14119035   4.671   0.466   6.692  0.4916 -0.6144  0.1718
   68MOL   C14219036   5.358   0.636   6.579 -0.8497  0.2155  0.5968
   68MOL   C14319037   5.370   0.742   6.668 -0.2281 -0.0901 -0.5657
   68MOL   C14419038   5.489   0.813   6.682 -0.4457  0.6858  0.6502
   68MOL   C14519039   5.608   0.776   6.611  0.3065  0.8011 -0.3907
   68MOL   C14619040   5.732   0.843   6.644  0.2010 -0.7618  0.4521
   68MOL   C14719041   5.855   0.801   6.600  0.6093 -0.8426 -0.8310
   68MOL   C14819042   5.595   0.665   6.514 -0.0568  0.1458  0.4829
   68MOL   C14919043   5.469   0.599   6.499  0.0880  1.0246  0.2676
   68MOL   H15019044   5.283   0.768   6.726 -0.8773  0.0875 -1.6013
   68MOL   H15119045   5.491   0.904   6.740  1.5965  0.3840  1.0975
   68MOL   H15219046   5.712   0.928   6.708  1.2207  0.6787 -1.0796
   68MOL   H15319047   5.864   0.714   6.537 -4.2600 -1.7936 -0.4414
   68MOL   H15419048   5.680   0.626   6.459 -1.5695 -0.6300 -1.3783
   68MOL   H15519049   5.470   0.511   6.436  0.7799  0.6429  0.8095
   68MOL   C15619050   5.977   0.866   6.644  0.0799  0.5943 -0.1199
   68MOL   C15719051   5.977   0.964   6.743  0.1921 -0.0659  0.0427
   68MOL   C15819052   6.091   1.029   6.777  0.3848 -0.2824 -0.3529
   68MOL   C15919053   6.209   1.014   6.703 -0.4973 -0.4629  0.2333
   68MOL   C16019054   6.324   1.089   6.750 -0.6023 -0.2536 -0.1858
   68MOL   C16119055   6.453   1.079   6.713 -0.0152  0.5073  0.0034
   68MOL   C16219056   6.207   0.918   6.599 -0.2269  0.4395  0.0235
   68MOL   C16319057   6.092   0.842   6.565  0.4730  0.1430 -0.1578
   68MOL   H16419058   5.885   0.984   6.795  1.2018  0.5395  1.6574
   68MOL   H16519059   6.079   1.106   6.852 -1.1210  0.0138 -0.8644
   68MOL   H16619060   6.297   1.153   6.833  0.7980  0.2165 -0.0708
   68MOL   H16719061   6.475   1.014   6.630 -1.1653  0.4589 -0.2745
   68MOL   H16819062   6.299   0.895   6.546 -0.4830 -4.2096  1.3784
   68MOL   H16919063   6.088   0.773   6.482  0.3172 -0.8016  0.6382
   68MOL   C17019064   6.557   1.166   6.765  0.2008  0.1050  0.3265
   68MOL   C17119065   6.690   1.141   6.726 -0.2151 -0.2019 -0.2846
   68MOL   C17219066   6.793   1.226   6.771 -0.0201 -0.1164  0.7749
   68MOL   C17319067   6.766   1.334   6.857 -0.2908 -0.6013 -1.2212
   68MOL   C17419068   6.882   1.412   6.902 -0.0275  0.0814 -0.3917
   68MOL   C17519069   6.880   1.506   7.000 -0.3169 -0.2593 -0.5208
   68MOL   C17619070   6.635   1.345   6.920 -0.4132  0.2581  0.0265
   68MOL   C17719071   6.537   1.261   6.868  0.1679  0.2137  0.3844
   68MOL   H17819072   6.711   1.061   6.657  2.3149  0.9102 -0.8917
   68MOL   H17919073   6.891   1.201   6.732 -1.0433 -0.7748 -1.4805
   68MOL   H18019074   6.981   1.398   6.860  0.2100 -0.8849  0.4734
   68MOL   H18119075   6.784   1.529   7.045  0.6421  2.5255  0.1839
   68MOL   H18219076   6.617   1.414   7.000  2.2164  0.2330  0.6856
   68MOL   H18319077   6.436   1.279   6.900  0.2837  0.6562  0.5123
   68MOL   C18419078   7.003   1.576   7.050  0.0305 -0.2237  0.9003
   68MOL   C18519079   6.993   1.672   7.146  0.4042 -0.4539 -0.0428
   68MOL   C18619080   7.104   1.720   7.220  0.5304 -0.5485  0.6690
   68MOL   C18719081   7.238   1.695   7.182  0.2233  0.7107  0.2540
   68MOL   C18819082   7.358   1.754   7.245  0.0690 -0.1261 -0.6483
   68MOL   C18919083   7.469   1.773   7.175 -0.8945  0.2430  0.1996
   68MOL   C19019084   7.250   1.607   7.072  0.8134  0.4550 -0.6644
   68MOL   C19119085   7.138   1.543   7.014 -0.6050 -0.2941 -0.2126
   68MOL   H19219086   6.894   1.707   7.171  0.7007  0.6572 -0.4080
   68MOL   H19319087   7.074   1.786   7.300 -0.3455  0.7116 -0.6728
   68MOL   H19419088   7.357   1.777   7.351  1.0926  0.9281 -0.8637
   68MOL   H19519089   7.456   1.753   7.070 -0.2606 -0.6901  0.2965
   68MOL   H19619090   7.347   1.570   7.043  0.4731  0.6109 -2.0544
   68MOL   H19719091   7.163   1.467   6.941  0.0811 -0.0431 -0.2440
   68MOL   C19819092   7.599   1.823   7.231 -0.3041 -0.1359  0.7126
   68MOL   C19919093   7.708   1.811   7.142 -1.0427  0.1855  0.3247
   68MOL   C20019094   7.833   1.865   7.175 -0.2616  0.2852 -0.1827
   68MOL   C20119095   7.846   1.940   7.295 -0.4245 -0.1931 -0.8513
   68MOL   C20219096   7.978   1.992   7.324  1.1466 -0.0354  0.3091
   68MOL   C20319097   8.025   2.039   7.442  0.2666 -0.0504  0.0824
   68MOL   C20419098   7.736   1.939   7.385 -0.3702  0.1326 -0.3479
   68MOL   C20519099   7.612   1.882   7.354  0.3321 -0.2305  0.1806
   68MOL   H20619100   7.696   1.756   7.049 -2.0031  2.0799 -0.6972
   68MOL   H20719101   7.910   1.850   7.101  0.2789  4.2070 -0.5160
   68MOL   H20819102   8.044   1.990   7.238  0.5011  2.1021 -0.2763
   68MOL   H20919103   7.959   2.040   7.527 -0.1516 -1.3902 -0.2107
   68MOL   H21019104   7.742   1.999   7.475 -3.7435  0.4971 -0.3038
   68MOL   H21119105   7.532   1.904   7.423  2.0477 -0.0525  2.1833
   68MOL   C21219106   0.016   2.101   7.471  0.0870  0.5221 -0.1741
   68MOL   C21319107   0.056   2.123   7.605 -0.9924  0.6787 -0.5387
   68MOL   C21419108   0.185   2.183   7.634  0.1324  0.4609  0.4676
   68MOL   C21519109   0.273   2.215   7.525  0.0060  0.1401 -0.3926
   68MOL   C21619110   0.394   2.288   7.553 -0.7088 -0.0183 -0.6334
   68MOL   C21719111   0.509   2.284   7.483  0.2053  0.5246  0.0964
   68MOL   C21819112   0.236   2.183   7.395 -0.1583  0.0096  0.4602
   68MOL   C21919113   0.110   2.127   7.370  0.1131 -0.5013  0.1319
   68MOL   H22019114   8.131   2.089   7.680 -0.6625 -0.0501 -0.5630
   68MOL   H22119115   0.230   2.201   7.731  0.8754  0.1231  0.1899
   68MOL   H22219116   0.390   2.351   7.641  1.1032  2.0467 -1.9648
   68MOL   H22319117   0.510   2.226   7.392  1.0351 -0.5979  0.7947
   68MOL   H22419118   0.296   2.215   7.311  0.8400  0.1423  1.2085
   68MOL   H22519119   0.082   2.112   7.266 -0.8147 -1.5705  0.5287
   68MOL   C22619120   0.635   2.353   7.514  0.3192 -0.1959  0.1048
   68MOL   C22719121   0.664   2.406   7.645  0.4163  0.0715 -0.1092
   68MOL   C22819122   0.767   2.493   7.660 -0.3271 -1.0535  0.1076
   68MOL   C22919123   0.850   2.531   7.551 -0.0091 -0.2970 -0.3485
   68MOL   C23019124   0.965   2.618   7.575 -0.0041  0.7865 -0.0293
   68MOL   C23119125   1.078   2.633   7.501 -0.1402  0.9788 -0.1699
   68MOL   C23219126   0.828   2.477   7.425  0.4067 -0.1256 -0.0969
   68MOL   C23319127   0.721   2.387   7.406 -0.1334  0.2041 -0.4058
   68MOL   H23419128   0.600   2.385   7.729  0.5248 -2.6665 -0.6843
   68MOL   H23519129   0.787   2.526   7.761  1.3458 -0.2184 -0.4738
   68MOL   H23619130   0.951   2.672   7.668 -1.1249  1.3490 -0.5190
   68MOL   H23719131   1.096   2.570   7.414 -3.9513 -0.6969  0.1368
   68MOL   H23819132   0.887   2.506   7.339 -0.9702 -2.6791 -1.9830
   68MOL   H23919133   0.696   2.351   7.307 -1.1730 -0.4275  0.0679
   68MOL   C24019134   1.191   2.708   7.540 -0.2347 -0.3546 -0.6317
   68MOL   C24119135   1.307   2.709   7.459  0.1946 -0.4709  1.0490
   68MOL   C24219136   1.419   2.794   7.493 -0.0295  0.0135  0.2983
   68MOL   C24319137   1.415   2.877   7.610  0.3176 -0.1368  0.1169
   68MOL   C24419138   1.532   2.965   7.636 -0.3699 -0.8945 -0.4665
   68MOL   C24519139   1.553   3.032   7.750 -0.0205 -0.5857  0.0652
   68MOL   C24619140   1.299   2.872   7.689 -0.2905  0.5502 -0.0017
   68MOL   C24719141   1.192   2.785   7.661 -0.3247 -0.0510 -0.2929
   68MOL   H24819142   1.310   2.648   7.370  1.8158  0.9487  0.0859
   68MOL   H24919143   1.505   2.797   7.428  0.6078  0.3401  1.1574
   68MOL   H25019144   1.605   2.969   7.556 -0.1722  1.1170 -0.2060
   68MOL   H25119145   1.486   3.029   7.835  0.0530  0.5130  0.1651
   68MOL   H25219146   1.297   2.934   7.777  0.1770  3.1246 -1.7387
   68MOL   H25319147   1.109   2.783   7.730 -0.6101  0.0929 -0.6312
   68MOL   C25419148   1.666   3.116   7.776  0.5513 -0.0408 -0.1433
   68MOL   C25519149   1.710   3.126   7.910  0.1285  0.1460  0.0294
   68MOL   C25619150   1.822   3.203   7.945 -0.3559 -0.1010 -0.0481
   68MOL   C25719151   1.878   3.289   7.849 -0.5886  0.2668  0.2551
   68MOL   C25819152   1.976   3.390   7.876 -0.6449 -0.1759 -0.1974
   68MOL   C25919153   2.008   3.496   7.796  0.0036 -0.2985  0.2584
   68MOL   C26019154   1.847   3.265   7.714  0.5626 -0.5998 -0.0477
   68MOL   C26119155   1.734   3.185   7.677  0.6856 -0.4263 -0.1141
   68MOL   H26219156   1.659   3.074   7.991  1.9438  0.7864  1.6098
   68MOL   H26319157   1.854   3.215   8.047  0.3577  0.4517 -0.3322
   68MOL   H26419158   2.033   3.359   7.963 -1.3970 -1.0535 -0.0068
   68MOL   H26519159   2.096   3.540   7.841 -0.4069 -1.1840  2.0082
   68MOL   H26619160   1.900   3.314   7.634  1.6723 -1.4108  0.1814
   68MOL   H26719161   1.700   3.177   7.574  0.4229  1.1289 -0.1580
   68MOL   C26819162   1.948   3.553   7.670 -0.1803 -0.0114  0.2732
   68MOL   C26919163   2.032   3.582   7.559 -0.6300  0.4031  0.4204
   68MOL   C27019164   1.985   3.653   7.449  0.1148  0.2139 -0.1855
   68MOL   C27119165   1.850   3.688   7.435  0.4059  0.0821  0.2768
   68MOL   C27219166   1.797   3.743   7.307 -0.5630 -0.2251 -0.3269
   68MOL   C27319167   1.845   3.728   7.179 -0.1646  0.7847  0.0763
   68MOL   C27419168   1.761   3.654   7.541 -0.5245  0.3992  0.0511
   68MOL   C27519169   1.815   3.595   7.660  0.0272  0.0090  0.4534
   68MOL   H27619170   2.137   3.558   7.567 -0.5918  0.2468 -0.5454
   68MOL   H27719171   2.050   3.664   7.363  0.7671 -1.6184  0.0417
   68MOL   H27819172   1.703   3.796   7.312 -1.0768 -1.1473  0.0650
   68MOL   H27919173   1.935   3.672   7.157  0.8342  0.6951  3.9885
   68MOL   H28019174   1.655   3.672   7.543 -0.1217  3.1179 -0.7345
   68MOL   H28119175   1.749   3.565   7.741 -0.9933  2.0325  0.3880
   68MOL   H28219176   1.803   3.770   7.089  4.2916 -1.6339 -3.3523
   69MOL     C119177   5.204   7.506   1.752  0.3356  0.0383  0.0404
   69MOL     C219178   5.289   7.528   1.643  0.0388  0.1356  0.0268
   69MOL     C319179   5.423   7.488   1.654  0.2564 -0.1819 -0.1639
   69MOL     C419180   5.471   7.428   1.771  0.3925 -0.1738  0.1108
   69MOL     C519181   5.616   7.411   1.787 -0.0056 -0.3567  0.3949
   69MOL     C619182   5.681   7.393   1.902 -0.8910  0.7633 -0.0068
   69MOL     C719183   5.384   7.404   1.879 -0.6566 -1.0551 -0.2491
   69MOL     C819184   5.250   7.443   1.867 -0.2074  0.4005 -0.1601
   69MOL     H919185   5.251   7.576   1.553 -2.5073 -3.8192 -1.1209
   69MOL    H1019186   5.495   7.519   1.579  1.7927 -0.6376  1.0913
   69MOL    H1119187   5.667   7.404   1.692 -0.5665  1.1163 -0.0203
   69MOL    H1219188   5.636   7.411   1.999  0.0961 -1.3487  0.8784
   69MOL    H1319189   5.411   7.350   1.969 -2.0561 -0.6065  0.4564
   69MOL    H1419190   5.187   7.419   1.951  3.3186 -1.4251  2.0737
   69MOL    H1519191   5.101   7.533   1.739  0.3295  0.3827  0.7952
   69MOL    C1619192   5.823   7.360   1.910  0.3921 -0.6285  0.5632
   69MOL    C1719193   5.909   7.388   1.805  0.3457  0.1450  0.1947
   69MOL    C1819194   6.045   7.368   1.825  0.4119  0.1771 -0.1448
   69MOL    C1919195   6.098   7.308   1.944 -0.4239 -0.0570  0.2566
   69MOL    C2019196   6.241   7.291   1.964  0.4106 -0.3171 -0.4652
   69MOL    C2119197   6.307   7.225   2.069  0.7193  0.4402  0.3072
   69MOL    C2219198   6.007   7.268   2.044 -0.1358 -0.4293  0.7986
   69MOL    C2319199   5.872   7.284   2.021  0.2655 -0.0397 -0.2308
   69MOL    H2419200   5.877   7.442   1.717  2.2971  1.8965  0.5299
   69MOL    H2519201   6.101   7.412   1.744  0.5374  0.7152  0.2261
   69MOL    H2619202   6.304   7.330   1.885  2.6383  2.2452  2.4332
   69MOL    H2719203   6.251   7.169   2.142  0.5141  0.9519  0.5426
   69MOL    H2819204   6.048   7.226   2.135  0.9616 -2.2144 -0.4693
   69MOL    H2919205   5.802   7.253   2.098  0.3398 -3.0289 -1.3290
   69MOL    C3019206   6.459   7.220   2.079 -0.4721  0.5651 -0.6688
   69MOL    C3119207   6.507   7.160   2.198 -0.2096 -0.1418  0.2999
   69MOL    C3219208   6.646   7.144   2.218  0.1012 -0.0912  0.1785
   69MOL    C3319209   6.735   7.183   2.116  0.0329  0.3148  0.1174
   69MOL    C3419210   6.889   7.173   2.134 -0.6980 -0.5070 -0.1546
   69MOL    C3519211   6.951   7.154   2.253 -0.1963  0.5831 -0.5029
   69MOL    C3619212   6.688   7.245   1.998  0.2256  0.9877 -0.2276
   69MOL    C3719213   6.552   7.267   1.977 -0.0818 -0.7149 -0.9513
   69MOL    H3819214   6.445   7.122   2.277 -0.1198 -0.2905  0.2989
   69MOL    H3919215   6.673   7.099   2.312  1.0442 -2.8565 -1.3728
   69MOL    H4019216   6.946   7.180   2.043 -2.4124 -2.0979 -1.3592
   69MOL    H4119217   6.902   7.145   2.349 -1.0025 -0.4437 -0.9990
   69MOL    H4219218   6.755   7.277   1.919  0.1998 -1.4816 -1.2864
   69MOL    H4319219   6.517   7.317   1.887 -1.2216  0.1965 -0.0325
   69MOL    C4419220   7.097   7.148   2.264  0.0212 -0.5872 -0.3165
   69MOL    C4519221   7.189   7.173   2.159  0.0738  0.0660  0.4069
   69MOL    C4619222   7.326   7.143   2.181 -0.7802  0.3472 -0.0619
   69MOL    C4719223   7.374   7.084   2.295  0.5481  0.2420 -0.6959
   69MOL    C4819224   7.518   7.056   2.304  0.6213 -0.6074  0.2899
   69MOL    C4919225   7.577   7.019   2.419 -0.2303  0.4301  0.1832
   69MOL    C5019226   7.283   7.058   2.396  0.0918  0.2345 -0.1773
   69MOL    C5119227   7.148   7.094   2.384  0.1604 -0.2174  0.3825
   69MOL    H5219228   7.156   7.202   2.060 -2.2248 -1.3975  0.7116
   69MOL    H5319229   7.397   7.164   2.102 -0.4011 -0.9720 -0.0800
   69MOL    H5419230   7.578   7.080   2.218 -1.4953  0.2905 -0.9856
   69MOL    H5519231   7.514   7.015   2.507 -0.1545  1.3767  0.2889
   69MOL    H5619232   7.304   7.011   2.490  0.8102  0.9573  0.0329
   69MOL    H5719233   7.082   7.067   2.465  0.3588  1.6140  1.1986
   69MOL    C5819234   7.708   6.978   2.442  0.0897  0.4195 -0.1736
   69MOL    C5919235   7.805   7.002   2.342  0.0778 -1.1327  0.4217
   69MOL    C6019236   7.939   6.956   2.356  0.0214 -0.4268  0.8990
   69MOL    C6119237   7.979   6.898   2.475 -0.1646 -0.4065 -0.1057
   69MOL    C6219238   8.121   6.850   2.489  0.2789 -0.0791  0.0886
   69MOL    C6319239   0.036   6.786   2.595  0.6422  0.4438  0.5533
   69MOL    C6419240   7.884   6.887   2.577  0.5672 -0.7416 -0.6054
   69MOL    C6519241   7.752   6.933   2.567  0.1503  0.3027 -0.2991
   69MOL    H6619242   7.780   7.061   2.255 -0.2746 -0.4686  0.9686
   69MOL    H6719243   8.012   6.976   2.280 -2.9220  0.1255 -1.9067
   69MOL    H6819244   0.040   6.882   2.408  0.8810 -1.4728 -0.0159
   69MOL    H6919245   8.131   6.749   2.684  1.4745 -2.5352 -0.1446
   69MOL    H7019246   7.918   6.856   2.675 -0.6375 -0.1030  0.0353
   69MOL    H7119247   7.691   6.924   2.656  1.6645  1.4439  0.8991
   69MOL    C7219248   0.178   6.747   2.602  0.2604  0.3072 -0.9540
   69MOL    C7319249   0.272   6.767   2.500  0.2077 -0.4928 -0.7099
   69MOL    C7419250   0.410   6.735   2.524  1.0812 -0.2357 -0.1878
   69MOL    C7519251   0.451   6.666   2.637 -0.8832  0.4147 -0.0991
   69MOL    C7619252   0.592   6.644   2.659 -0.2206  0.8209  0.0991
   69MOL    C7719253   0.650   6.581   2.766 -0.0330  0.1907  0.5392
   69MOL    C7819254   0.352   6.641   2.730  0.2290  0.3509 -0.2957
   69MOL    C7919255   0.217   6.681   2.714  0.1280  0.3237  0.2281
   69MOL    H8019256   0.258   6.824   2.410  0.0571  1.3205  0.4511
   69MOL    H8119257   0.489   6.762   2.454  0.7488  0.7941 -0.1781
   69MOL    H8219258   0.649   6.678   2.574 -2.0318 -1.0461 -1.9250
   69MOL    H8319259   0.594   6.538   2.848 -0.2981 -0.0324  0.2427
   69MOL    H8419260   0.374   6.592   2.825  0.0727  0.3243 -0.2724
   69MOL    H8519261   0.141   6.671   2.790 -0.3035  0.0743 -0.2381
   69MOL    C8619262   0.795   6.552   2.775  0.0237 -0.7660 -0.7942
   69MOL    C8719263   0.881   6.568   2.669 -0.0342 -0.3275 -0.4527
   69MOL    C8819264   1.013   6.513   2.675 -0.1071  0.5820 -0.6089
   69MOL    C8919265   1.066   6.464   2.794 -0.7293 -0.4494  0.0751
   69MOL    C9019266   1.206   6.431   2.808  0.2173 -0.2543  0.7013
   69MOL    C9119267   1.263   6.359   2.910 -0.0629 -0.0527 -0.2143
   69MOL    C9219268   0.978   6.454   2.907 -0.7647 -0.4355  0.5074
   69MOL    C9319269   0.849   6.500   2.891  0.2683  0.0684  1.0845
   69MOL    H9419270   0.864   6.609   2.570  2.5126 -0.4014 -0.9613
   69MOL    H9519271   1.078   6.521   2.589 -0.5987  4.2421 -0.7549
   69MOL    H9619272   1.273   6.470   2.732  0.2888 -1.5347  0.0962
   69MOL    H9719273   1.203   6.317   2.989 -1.5528  1.2066 -0.6300
   69MOL    H9819274   1.006   6.404   2.999  0.1260 -0.1862  0.3734
   69MOL    H9919275   0.787   6.483   2.978 -0.4362  0.2142  0.6111
   69MOL   C10019276   1.408   6.328   2.918  0.1110  0.7553 -0.4777
   69MOL   C10119277   1.460   6.281   3.043  0.5485  0.4213 -0.2628
   69MOL   C10219278   1.594   6.236   3.047  0.2929 -0.9464 -0.5820
   69MOL   C10319279   1.677   6.235   2.932 -0.0968  1.0135  0.6663
   69MOL   C10419280   1.805   6.172   2.937  0.1243 -0.1797 -0.1566
   69MOL   C10519281   1.865   6.105   3.041  0.8606 -0.2535 -0.0550
   69MOL   C10619282   1.627   6.288   2.813  0.2798 -0.2320  0.1060
   69MOL   C10719283   1.497   6.340   2.811  0.5969 -0.6536 -0.2047
   69MOL   H10819284   1.407   6.264   3.136  0.0302  1.7831 -0.2908
   69MOL   H10919285   1.618   6.190   3.142 -0.4633 -1.7189 -0.7596
   69MOL   H11019286   1.867   6.176   2.849  0.1444  0.1864 -0.1294
   69MOL   H11119287   1.815   6.092   3.136  0.8806  1.9692  0.2917
   69MOL   H11219288   1.686   6.298   2.723 -0.7845 -0.3454 -0.6214
   69MOL   H11319289   1.464   6.378   2.715 -1.4444 -1.9597 -0.0666
   69MOL   C11419290   1.995   6.043   3.036 -0.3140 -0.1832  0.1844
   69MOL   C11519291   2.054   5.983   3.153 -0.4650  0.6095  0.0770
   69MOL   C11619292   2.183   5.932   3.150 -0.2810 -0.0063 -0.8641
   69MOL   C11719293   2.261   5.928   3.036  0.4182  1.0075  0.1714
   69MOL   C11819294   2.395   5.865   3.033  0.5223  0.0599  1.0972
   69MOL   C11919295   2.468   5.815   3.133 -0.4573  0.3459  0.1668
   69MOL   C12019296   2.203   5.975   2.921  0.1915 -0.5724  0.5298
   69MOL   C12119297   2.078   6.037   2.922 -0.1141  0.1847 -0.1054
   69MOL   H12219298   1.995   5.982   3.243 -1.3338 -0.2214 -0.4843
   69MOL   H12319299   2.222   5.905   3.247 -2.7692 -2.5394 -0.5120
   69MOL   H12419300   2.440   5.854   2.935  0.7084 -0.4036  1.2353
   69MOL   H12519301   2.434   5.807   3.235 -0.1043 -0.3897  0.2331
   69MOL   H12619302   2.262   5.978   2.831  3.6565 -2.0978  2.6427
   69MOL   H12719303   2.042   6.086   2.833  0.9560 -1.3232 -1.4039
   69MOL   C12819304   2.597   5.746   3.115  0.1455 -0.2044 -0.0880
   69MOL   C12919305   2.676   5.718   3.228 -0.1794  0.1823  0.0806
   69MOL   C13019306   2.805   5.659   3.220 -0.0888  0.2318 -0.1325
   69MOL   C13119307   2.857   5.607   3.103  0.0029 -0.1860 -0.7013
   69MOL   C13219308   2.991   5.546   3.099  0.5500 -0.3448  0.1889
   69MOL   C13319309   3.046   5.506   2.986 -0.5240 -1.0698  0.2295
   69MOL   C13419310   2.771   5.623   2.988 -0.6695 -0.9551 -0.1421
   69MOL   C13519311   2.641   5.687   2.996 -0.6429 -0.4356  0.3544
   69MOL   H13619312   2.636   5.740   3.326  1.4742 -2.4182  1.4008
   69MOL   H13719313   2.857   5.627   3.309 -1.4736 -2.2212 -0.1361
   69MOL   H13819314   3.043   5.531   3.192  1.1440  0.4188 -0.0144
   69MOL   H13919315   2.987   5.508   2.895 -0.0285 -0.9630 -0.0930
   69MOL   H14019316   2.798   5.571   2.898 -1.0744  0.2125 -0.9484
   69MOL   H14119317   2.589   5.701   2.902 -2.6977 -0.2218  1.4851
   69MOL   C14219318   3.183   5.449   2.967  0.2478 -0.2671  0.2737
   69MOL   C14319319   3.231   5.428   2.833 -0.0388  0.3371 -0.5170
   69MOL   C14419320   3.362   5.381   2.820  0.4637 -0.4301 -0.4741
   69MOL   C14519321   3.445   5.359   2.940  0.3614 -0.1530 -0.1863
   69MOL   C14619322   3.582   5.313   2.922  0.0856  0.6000  0.0503
   69MOL   C14719323   3.643   5.261   2.814  0.6048  0.0829  0.2660
   69MOL   C14819324   3.386   5.367   3.070  0.4037 -0.2402 -0.8382
   69MOL   C14919325   3.259   5.422   3.079 -0.4306 -0.2360  0.0822
   69MOL   H15019326   3.167   5.457   2.751 -3.6941 -0.1572  2.0943
   69MOL   H15119327   3.399   5.359   2.721  0.2505  1.6517 -1.0446
   69MOL   H15219328   3.647   5.326   3.007 -0.9214 -4.0146  1.6772
   69MOL   H15319329   3.582   5.244   2.727  0.4265  1.1444  0.1683
   69MOL   H15419330   3.453   5.346   3.152  0.7454  0.6002 -0.8939
   69MOL   H15519331   3.217   5.426   3.179 -0.3108  0.3680  0.1086
   69MOL   C15619332   3.782   5.223   2.796  0.1058 -0.4451  0.8524
   69MOL   C15719333   3.880   5.312   2.848 -0.1085 -0.4800  0.0635
   69MOL   C15819334   4.015   5.278   2.842 -0.4381 -0.2005  0.3387
   69MOL   C15919335   4.056   5.146   2.804  0.9714 -0.5956 -0.0316
   69MOL   C16019336   4.190   5.103   2.830  0.1665 -0.4465  0.4127
   69MOL   C16119337   4.258   5.154   2.937 -0.0709 -0.0192 -0.2407
   69MOL   C16219338   3.962   5.059   2.745  0.2065 -0.0177 -0.1854
   69MOL   C16319339   3.827   5.096   2.747 -0.2973  0.1582  0.0481
   69MOL   H16419340   3.846   5.408   2.886  0.7469 -0.7642  1.5898
   69MOL   H16519341   4.092   5.346   2.875  1.5957 -1.9901 -0.5862
   69MOL   H16619342   4.232   5.025   2.769  0.8147 -0.6439  1.0976
   69MOL   H16719343   4.213   5.222   3.008  0.4820 -0.7667  0.8347
   69MOL   H16819344   3.991   4.960   2.713  0.6210 -0.0190  0.1880
   69MOL   H16919345   3.750   5.029   2.712 -0.8765  0.0700  1.4815
   69MOL   C17019346   4.386   5.109   2.992  0.1741 -0.5711  0.1310
   69MOL   C17119347   4.469   5.020   2.918  0.3593 -0.0224  0.1492
   69MOL   C17219348   4.589   4.979   2.970  0.4442  0.6084  0.0540
   69MOL   C17319349   4.642   5.032   3.086  0.4070  0.2682  0.6087
   69MOL   C17419350   4.768   4.984   3.128  0.4749  0.0920 -0.0011
   69MOL   C17519351   4.823   4.998   3.250  0.5361  0.0907 -0.7226
   69MOL   C17619352   4.567   5.130   3.160  0.4311 -0.8570 -0.1028
   69MOL   C17719353   4.438   5.165   3.109  0.0467 -0.7495 -0.5941
   69MOL   H17819354   4.443   4.975   2.823  0.2638  1.4125 -0.5268
   69MOL   H17919355   4.641   4.897   2.923 -0.9382  1.4115 -3.0091
   69MOL   H18019356   4.827   4.934   3.053  0.7380 -0.9372  0.8765
   69MOL   H18119357   4.763   5.048   3.325  0.6642 -0.2308 -0.4019
   69MOL   H18219358   4.602   5.177   3.250  0.8394  0.3040 -0.8555
   69MOL   H18319359   4.378   5.236   3.165 -0.2489 -1.0876 -0.4844
   69MOL   C18419360   4.951   4.955   3.303 -0.1865 -0.7385  0.3441
   69MOL   C18519361   4.979   4.985   3.439  0.0875  0.1311  0.4072
   69MOL   C18619362   5.100   4.945   3.499  0.8683  0.1448  0.4523
   69MOL   C18719363   5.192   4.867   3.421  0.5197 -0.2996 -0.5160
   69MOL   C18819364   5.315   4.809   3.474  0.7719 -0.0445  0.0200
   69MOL   C18919365   5.333   4.748   3.594  0.8664 -0.3345 -0.3263
   69MOL   C19019366   5.164   4.851   3.283 -0.0316 -0.7938 -0.1899
   69MOL   C19119367   5.042   4.881   3.233 -0.1198 -0.0293  0.2140
   69MOL   H19219368   4.905   5.037   3.498  0.7464 -0.0441  1.4055
   69MOL   H19319369   5.123   4.961   3.603  2.2939  2.4499 -0.1720
   69MOL   H19419370   5.399   4.829   3.409 -0.7838  0.9799 -1.7024
   69MOL   H19519371   5.246   4.730   3.655  0.3469 -2.2472 -1.6135
   69MOL   H19619372   5.239   4.808   3.218  3.7062  1.2858  2.4915
   69MOL   H19719373   5.019   4.856   3.131  1.1600 -0.2017 -0.0409
   69MOL   C19819374   5.465   4.697   3.633 -0.2968  0.9068 -0.3140
   69MOL   C19919375   5.578   4.785   3.630  0.0508 -0.5480 -0.1893
   69MOL   C20019376   5.707   4.734   3.658 -0.8092  0.5759  0.1775
   69MOL   C20119377   5.723   4.599   3.689  0.3141 -0.3274  0.3209
   69MOL   C20219378   5.852   4.538   3.716 -0.2277  0.5549 -0.1731
   69MOL   C20319379   5.969   4.585   3.674 -0.3527 -0.1516  0.0425
   69MOL   C20419380   5.611   4.512   3.684  1.0011 -0.2011  0.0776
   69MOL   C20519381   5.481   4.559   3.655 -0.1266 -0.6284 -0.4743
   69MOL   H20619382   5.545   4.887   3.618  1.1539  0.0374  1.5200
   69MOL   H20719383   5.793   4.799   3.664  0.9026 -1.6225 -0.0157
   69MOL   H20819384   5.852   4.445   3.772  0.1906  0.2443 -0.6794
   69MOL   H20919385   5.982   4.676   3.618  0.6516 -2.1016 -2.9906
   69MOL   H21019386   5.638   4.409   3.703 -0.1976 -0.6294 -0.5021
   69MOL   H21119387   5.398   4.490   3.649 -0.4449 -0.2275 -0.7114
   69MOL   C21219388   6.100   4.523   3.712  0.1610 -0.0598  0.1006
   69MOL   C21319389   6.114   4.405   3.791  0.2016  0.3151  0.0787
   69MOL   C21419390   6.241   4.370   3.835 -0.0078 -0.3476 -0.3617
   69MOL   C21519391   6.358   4.441   3.810 -0.3891 -0.2483  0.9349
   69MOL   C21619392   6.486   4.386   3.858  0.7670  0.3840  0.2072
   69MOL   C21719393   6.599   4.453   3.870 -0.8502  0.8192  0.0586
   69MOL   C21819394   6.342   4.570   3.752  0.5876 -0.4442  0.1081
   69MOL   C21919395   6.213   4.610   3.706 -0.3013  0.0394 -0.8224
   69MOL   H22019396   6.028   4.345   3.818  1.2137 -0.6634  1.1926
   69MOL   H22119397   6.247   4.274   3.883 -0.0972  0.1170  0.5848
   69MOL   H22219398   6.482   4.283   3.891  0.6056  0.5480  0.6941
   69MOL   H22319399   6.595   4.556   3.838  1.5513  1.0309  0.3634
   69MOL   H22419400   6.423   4.636   3.723  0.0381 -0.3293 -1.2137
   69MOL   H22519401   6.209   4.707   3.658 -2.8428  0.2839 -0.1935
   69MOL   C22619402   6.729   4.406   3.925 -1.1121  0.1065  0.8931
   69MOL   C22719403   6.845   4.488   3.902  0.5347  0.3227  0.2152
   69MOL   C22819404   6.968   4.450   3.952 -0.5761 -0.3171 -0.2956
   69MOL   C22919405   6.979   4.322   4.007  0.1621  0.6720 -0.4954
   69MOL   C23019406   7.111   4.282   4.053  0.5419  0.5195  0.2808
   69MOL   C23119407   7.209   4.364   4.097 -0.1003  0.9781 -0.5613
   69MOL   C23219408   6.867   4.231   4.013 -0.2801  0.4673 -0.5679
   69MOL   C23319409   6.744   4.278   3.978 -0.1070 -0.5505 -0.3246
   69MOL   H23419410   6.841   4.583   3.850 -2.0512 -0.0820 -0.3747
   69MOL   H23519411   7.056   4.513   3.943  0.5611 -1.8062  0.3153
   69MOL   H23619412   7.126   4.175   4.048  0.0329  0.5502 -2.8033
   69MOL   H23719413   7.202   4.472   4.103 -0.1333  0.9230  0.4773
   69MOL   H23819414   6.870   4.128   4.046 -0.0254  0.8662  0.6750
   69MOL   H23919415   6.653   4.221   3.985 -0.5401  0.0900 -0.6270
   69MOL   C24019416   7.335   4.312   4.144 -0.3339  0.2365  1.3010
   69MOL   C24119417   7.365   4.173   4.151  1.1075  0.1076  1.2467
   69MOL   C24219418   7.496   4.136   4.186 -0.0655  0.0920  0.5526
   69MOL   C24319419   7.596   4.230   4.230 -0.2625 -0.2283 -0.3462
   69MOL   C24419420   7.735   4.180   4.235 -0.3739 -0.0407  0.4921
   69MOL   C24519421   7.843   4.258   4.239 -0.0443 -0.0098  0.6873
   69MOL   C24619422   7.554   4.367   4.244 -0.7611  0.1146  0.3597
   69MOL   C24719423   7.427   4.401   4.205 -0.1849 -0.3885  0.3702
   69MOL   H24819424   7.297   4.094   4.126  2.8716 -1.6327  1.8275
   69MOL   H24919425   7.520   4.033   4.166  0.4731 -0.1478  2.3498
   69MOL   H25019426   7.741   4.072   4.233 -0.5194 -0.0364 -0.7197
   69MOL   H25119427   7.823   4.364   4.236  2.0184  0.4217  1.4387
   69MOL   H25219428   7.624   4.447   4.261 -0.0218 -0.8750  2.1671
   69MOL   H25319429   7.408   4.507   4.213 -0.3149 -0.4905  1.5657
   69MOL   C25419430   7.977   4.210   4.253 -0.2891 -0.0212 -0.5429
   69MOL   C25519431   8.034   4.106   4.178  0.4259  0.5845 -0.2509
   69MOL   C25619432   0.024   4.059   4.204 -1.0863  0.4725 -1.1888
   69MOL   C25719433   0.105   4.126   4.300  0.0229  0.5549  0.0418
   69MOL   C25819434   0.249   4.091   4.317 -0.2641 -1.0111 -0.7088
   69MOL   C25919435   0.338   4.049   4.226  0.2875 -0.4495 -0.1461
   69MOL   C26019436   0.052   4.226   4.380 -0.2794 -0.1846  0.7607
   69MOL   C26119437   8.062   4.268   4.353 -0.0861  0.4765 -1.2757
   69MOL   H26219438   7.970   4.057   4.105 -2.2939  2.9768  0.4306
   69MOL   H26319439   0.072   3.983   4.143  0.1652 -0.7869  1.2803
   69MOL   H26419440   0.286   4.088   4.419 -1.1254 -0.0096 -0.3574
   69MOL   H26519441   0.425   3.997   4.264 -2.2101 -3.3969  1.8206
   69MOL   H26619442   0.105   4.261   4.467 -0.9897  0.4865  0.9260
   69MOL   H26719443   8.024   4.346   4.417  2.0014 -0.3910  1.1220
   69MOL   C26819444   0.332   4.055   4.079 -0.4518 -0.3989  0.5073
   69MOL   C26919445   0.265   4.167   4.021 -0.2444 -0.2964 -0.0351
   69MOL   C27019446   0.262   4.183   3.879  0.1727  0.0329  0.1380
   69MOL   C27119447   0.316   4.082   3.794 -0.0899  0.5444  0.6965
   69MOL   C27219448   0.316   4.100   3.652 -0.3210  0.6720 -0.1763
   69MOL   C27319449   0.291   4.219   3.593  0.0806  0.1152 -0.5261
   69MOL   C27419450   0.384   3.975   3.852 -0.7841  0.3597  0.1187
   69MOL   C27519451   0.397   3.959   3.996  0.6066 -0.0791  0.1088
   69MOL   H27619452   0.212   4.235   4.085  0.0995  0.9808 -1.0723
   69MOL   H27719453   0.193   4.255   3.838  0.7330 -0.5725 -1.9225
   69MOL   H27819454   0.345   4.015   3.592  0.9085  1.3199 -0.5216
   69MOL   H27919455   0.265   4.310   3.645 -1.5006 -1.2147  1.0539
   69MOL   H28019456   0.423   3.892   3.796 -2.1985  0.2884 -0.7838
   69MOL   H28119457   0.444   3.868   4.030 -2.4538 -1.8040 -0.0262
   69MOL   H28219458   0.292   4.235   3.486 -0.5387  1.2422 -0.3764
   70MOL     C119459   6.402   5.054   5.299  0.7558 -0.2410 -0.2265
   70MOL     C219460   6.306   4.955   5.315  0.5207  0.6428 -0.1176
   70MOL     C319461   6.178   4.979   5.271 -0.4409 -0.1557  0.1100
   70MOL     C419462   6.137   5.103   5.222 -0.5739  0.2372 -0.1410
   70MOL     C519463   6.002   5.114   5.172  0.4847  0.0755 -0.1139
   70MOL     C619464   5.955   5.215   5.095  0.5574  0.3647  0.0562
   70MOL     C719465   6.228   5.206   5.231 -0.0329  0.6588 -0.1377
   70MOL     C819466   6.358   5.181   5.264  0.3138 -0.5464 -0.2050
   70MOL     H919467   6.341   4.859   5.351  2.2650  2.3256  2.8802
   70MOL    H1019468   6.103   4.903   5.288  0.0280 -0.8263 -0.8200
   70MOL    H1119469   5.933   5.036   5.202  0.8481 -0.0943  0.2713
   70MOL    H1219470   6.018   5.292   5.052  1.5151 -0.3503  0.1444
   70MOL    H1319471   6.205   5.308   5.206 -1.5240  0.2500 -0.4728
   70MOL    H1419472   6.431   5.258   5.243 -1.1558  0.4790 -1.7294
   70MOL    H1519473   6.504   5.027   5.319  0.2927 -1.4634  0.4733
   70MOL    C1619474   5.811   5.212   5.050 -0.3417  0.2667  0.0417
   70MOL    C1719475   5.733   5.333   5.044 -0.3965  0.7634  0.2805
   70MOL    C1819476   5.593   5.331   5.011  0.1593  0.1418 -0.2740
   70MOL    C1919477   5.527   5.208   4.983  0.5607 -0.2626 -0.0873
   70MOL    C2019478   5.383   5.199   4.960 -0.2428  0.0216  1.2678
   70MOL    C2119479   5.306   5.094   4.913 -0.4438  0.7214 -0.2074
   70MOL    C2219480   5.609   5.094   4.973  0.2318 -0.2415 -0.0695
   70MOL    C2319481   5.747   5.094   5.007  0.5649  0.3194 -0.3642
   70MOL    H2419482   5.770   5.426   5.086 -1.8042  0.1739  2.9677
   70MOL    H2519483   5.533   5.420   5.022 -1.1595 -0.6010 -1.3040
   70MOL    H2619484   5.329   5.290   4.984  0.7185  0.9354 -0.0145
   70MOL    H2719485   5.358   5.001   4.895 -0.2228  0.8842 -0.4169
   70MOL    H2819486   5.561   5.000   4.953 -2.4644  1.0914 -0.0181
   70MOL    H2919487   5.811   5.007   5.004  0.9931  0.6564 -2.1417
   70MOL    C3019488   5.167   5.099   4.877  0.2181 -0.1293 -0.0083
   70MOL    C3119489   5.108   4.981   4.835  0.5630  0.0063  0.2954
   70MOL    C3219490   4.972   4.971   4.809 -0.1850  0.0113  0.8015
   70MOL    C3319491   4.895   5.088   4.815 -0.2074  0.3140 -0.9284
   70MOL    C3419492   4.749   5.086   4.790 -0.0331 -0.0777  0.7277
   70MOL    C3519493   4.676   4.983   4.753  0.1930  0.5732 -0.1798
   70MOL    C3619494   4.957   5.205   4.864 -0.0706  0.2598 -0.1852
   70MOL    C3719495   5.092   5.218   4.886  0.1281 -0.5394 -0.4868
   70MOL    H3819496   5.166   4.890   4.844 -0.0826 -0.3461  0.8854
   70MOL    H3919497   4.929   4.879   4.773 -0.2222 -0.0362  0.9659
   70MOL    H4019498   4.694   5.179   4.802 -3.0795 -1.6001 -0.9342
   70MOL    H4119499   4.722   4.885   4.746 -1.9137 -0.3676 -1.1921
   70MOL    H4219500   4.892   5.291   4.873  0.4711  0.6813 -0.2956
   70MOL    H4319501   5.137   5.311   4.916 -0.1811 -0.9931  1.4513
   70MOL    C4419502   4.542   4.984   4.718  0.3157  0.2937  0.2934
   70MOL    C4519503   4.460   4.879   4.751 -0.0848 -0.7710 -0.6843
   70MOL    C4619504   4.324   4.887   4.725  0.0370  0.1200 -0.3401
   70MOL    C4719505   4.268   5.001   4.668  0.7234 -0.2631  0.1524
   70MOL    C4819506   4.120   5.013   4.640 -0.0398 -0.2988  0.7112
   70MOL    C4919507   4.032   4.909   4.664 -0.1910 -0.3591 -0.5353
   70MOL    C5019508   4.352   5.112   4.630  0.9321  0.2581  0.1055
   70MOL    C5119509   4.487   5.101   4.661 -0.1256 -0.4079 -0.1906
   70MOL    H5219510   4.495   4.787   4.795 -0.8167  0.4535  2.5398
   70MOL    H5319511   4.257   4.809   4.760  0.6809 -0.3439 -0.1202
   70MOL    H5419512   4.088   5.111   4.610  0.6349 -0.5927 -1.0636
   70MOL    H5519513   4.063   4.809   4.689 -1.6796 -0.2436  1.9603
   70MOL    H5619514   4.308   5.197   4.581  0.5386 -1.3297 -2.4041
   70MOL    H5719515   4.550   5.184   4.632  0.5570  0.1295  2.6608
   70MOL    C5819516   3.888   4.932   4.667  0.5453 -0.4912 -0.2008
   70MOL    C5919517   3.807   4.819   4.651 -0.0180  0.5679 -0.5831
   70MOL    C6019518   3.664   4.826   4.650  0.1507 -0.6855 -0.1330
   70MOL    C6119519   3.598   4.948   4.675 -0.0050 -0.1463 -0.2088
   70MOL    C6219520   3.449   4.947   4.683 -0.7084 -0.1502  0.3630
   70MOL    C6319521   3.373   5.055   4.704  0.3355  0.2132  0.5422
   70MOL    C6419522   3.684   5.061   4.691  0.5378  0.3808  0.0027
   70MOL    C6519523   3.825   5.058   4.694 -0.9865 -0.5701  0.2904
   70MOL    H6619524   3.853   4.722   4.645  2.7581  1.5950  2.5073
   70MOL    H6719525   3.600   4.741   4.636 -0.8195 -0.4287  2.3532
   70MOL    H6819526   3.399   4.854   4.658  3.3446 -2.4808  0.4418
   70MOL    H6919527   3.416   5.152   4.725  0.0826  0.4652 -0.1010
   70MOL    H7019528   3.636   5.158   4.700 -0.7843 -0.3344  0.7904
   70MOL    H7119529   3.882   5.148   4.709 -0.7440 -0.4096 -1.4990
   70MOL    C7219530   3.224   5.051   4.695  0.2111 -0.2221 -0.4846
   70MOL    C7319531   3.152   4.933   4.661  0.2637  0.7262 -0.4410
   70MOL    C7419532   3.020   4.939   4.629  0.1935  0.2906 -0.1470
   70MOL    C7519533   2.941   5.055   4.645 -0.8033 -0.2961  0.3868
   70MOL    C7619534   2.798   5.050   4.600 -0.3980 -0.1896 -0.2078
   70MOL    C7719535   2.705   5.146   4.599  0.1863  0.5620 -0.1263
   70MOL    C7819536   3.011   5.170   4.679  0.3342 -0.7233 -0.2024
   70MOL    C7919537   3.153   5.171   4.695 -0.5697 -0.1208 -0.0762
   70MOL    H8019538   3.202   4.840   4.644 -2.2272 -1.5621  3.7820
   70MOL    H8119539   2.967   4.851   4.595  1.4434 -0.4327 -0.2573
   70MOL    H8219540   2.767   4.953   4.564  0.8436 -0.6561 -0.0465
   70MOL    H8319541   2.725   5.237   4.653 -0.4019  0.7656 -0.2489
   70MOL    H8419542   2.972   5.271   4.682 -0.5735 -1.0062 -1.9559
   70MOL    H8519543   3.207   5.263   4.712 -0.2625 -0.4165  0.5962
   70MOL    C8619544   2.575   5.131   4.533 -0.0030  0.0860 -0.1581
   70MOL    C8719545   2.523   5.018   4.459 -0.4374  0.0017  0.2639
   70MOL    C8819546   2.399   5.018   4.394  0.6387 -0.2504  0.2349
   70MOL    C8919547   2.320   5.140   4.398 -0.5699 -0.1273 -0.0095
   70MOL    C9019548   2.192   5.139   4.324  0.6161 -0.2238  0.3204
   70MOL    C9119549   2.111   5.240   4.300  0.0776 -0.3782  0.5041
   70MOL    C9219550   2.373   5.254   4.469 -0.3904 -0.3083  0.9531
   70MOL    C9319551   2.498   5.252   4.539 -0.5027  0.3540  0.0780
   70MOL    H9419552   2.581   4.928   4.445  0.3575  0.6299 -0.5028
   70MOL    H9519553   2.359   4.936   4.337 -0.3543  0.4252 -0.0543
   70MOL    H9619554   2.159   5.046   4.279  0.6660 -1.0357  1.9144
   70MOL    H9719555   2.136   5.341   4.331 -0.8562 -0.1849  0.6469
   70MOL    H9819556   2.323   5.350   4.467  0.2331  0.0340  1.5284
   70MOL    H9919557   2.527   5.340   4.593  0.2690  1.0853 -1.4922
   70MOL   C10019558   1.981   5.234   4.228  1.0494  0.2386  0.4263
   70MOL   C10119559   1.907   5.351   4.204  0.1069  0.2859  0.3542
   70MOL   C10219560   1.783   5.353   4.130 -0.4055  0.7513 -0.3535
   70MOL   C10319561   1.719   5.233   4.102  0.3065 -0.2207  0.1655
   70MOL   C10419562   1.596   5.233   4.022  0.2874  0.2394 -0.1685
   70MOL   C10519563   1.538   5.338   3.954  0.1285 -0.6117 -0.7436
   70MOL   C10619564   1.793   5.112   4.120 -0.1224 -0.1602  0.0678
   70MOL   C10719565   1.920   5.113   4.187 -0.1252 -0.0443  0.8557
   70MOL   H10819566   1.952   5.447   4.225 -0.7338  0.5811  0.8396
   70MOL   H10919567   1.748   5.453   4.110 -1.3621  0.5921  0.4233
   70MOL   H11019568   1.562   5.131   4.026  1.5637 -0.2160 -0.6597
   70MOL   H11119569   1.583   5.436   3.961  0.2900 -0.7678  0.4391
   70MOL   H11219570   1.753   5.013   4.111 -0.5856 -0.0874  1.1680
   70MOL   H11319571   1.965   5.019   4.216  0.0760 -0.0187  0.6272
   70MOL   C11419572   1.422   5.336   3.864 -0.9078 -0.5130 -1.0666
   70MOL   C11519573   1.365   5.219   3.811  0.0686  0.8583  0.3430
   70MOL   C11619574   1.242   5.220   3.741 -0.0819  0.1022 -0.1819
   70MOL   C11719575   1.180   5.346   3.706  0.6079 -0.3531 -1.3374
   70MOL   C11819576   1.061   5.351   3.623  0.0037  0.0680 -0.2552
   70MOL   C11919577   1.009   5.258   3.541 -0.5110 -0.2603  0.1100
   70MOL   C12019578   1.249   5.459   3.745  0.4475 -0.6548 -0.9682
   70MOL   C12119579   1.362   5.457   3.829  0.0632 -0.6837 -0.0682
   70MOL   H12219580   1.400   5.123   3.846 -0.5442  0.1921 -0.8807
   70MOL   H12319581   1.193   5.127   3.718  1.2152 -0.6580  0.0743
   70MOL   H12419582   1.006   5.444   3.620  1.7173  1.1942  1.7478
   70MOL   H12519583   1.064   5.165   3.535  0.0604 -0.0075  1.4063
   70MOL   H12619584   1.204   5.555   3.723 -0.4785 -1.1677 -1.3349
   70MOL   H12719585   1.396   5.551   3.869  3.1238 -0.8844 -1.9662
   70MOL   C12819586   0.905   5.267   3.441 -0.4086 -0.9466  0.0092
   70MOL   C12919587   0.886   5.148   3.365  0.0932  0.0338  0.1656
   70MOL   C13019588   0.789   5.139   3.265  0.1728 -0.2990 -0.2788
   70MOL   C13119589   0.708   5.258   3.238 -0.4145  0.3273  0.4782
   70MOL   C13219590   0.596   5.243   3.147  0.5533  0.5255 -0.1388
   70MOL   C13319591   0.528   5.128   3.117 -0.2794  0.0895  0.3706
   70MOL   C13419592   0.733   5.374   3.309  0.3617  0.5325  0.0679
   70MOL   C13519593   0.824   5.378   3.412  0.2240  0.0975  1.0997
   70MOL   H13619594   0.952   5.064   3.379 -0.1654  0.1076  1.9233
   70MOL   H13719595   0.765   5.039   3.232  0.1321 -0.8680  1.3977
   70MOL   H13819596   0.570   5.341   3.108 -1.4533  0.5901  1.2837
   70MOL   H13919597   0.560   5.035   3.161 -1.8270  0.0108  1.3905
   70MOL   H14019598   0.668   5.457   3.290  1.0300  1.0796  0.1530
   70MOL   H14119599   0.830   5.467   3.473 -0.0814 -0.1461  1.4926
   70MOL   C14219600   0.421   5.118   3.019 -0.1766  0.2132 -1.1053
   70MOL   C14319601   0.364   5.232   2.953  0.2562  0.2802 -0.4992
   70MOL   C14419602   0.266   5.226   2.853  0.5130 -0.5169 -0.2344
   70MOL   C14519603   0.210   5.100   2.832  0.5205 -0.2849  0.1877
   70MOL   C14619604   0.097   5.093   2.734 -0.7094 -0.6234  0.1381
   70MOL   C14719605   0.038   4.986   2.674  0.4316 -0.2715 -0.1869
   70MOL   C14819606   0.259   4.984   2.902 -0.3983  0.2444 -0.0764
   70MOL   C14919607   0.370   4.990   2.992  0.9074  0.3065  0.8064
   70MOL   H15019608   0.405   5.328   2.977 -0.3286  0.8515 -1.7156
   70MOL   H15119609   0.221   5.315   2.811  0.0795 -0.3787  0.5159
   70MOL   H15219610   0.054   5.188   2.706  1.9989  0.2275 -1.3855
   70MOL   H15319611   0.086   4.892   2.697  0.9730 -0.1505 -0.7981
   70MOL   H15419612   0.231   4.885   2.868 -1.2877  0.7761 -0.8974
   70MOL   H15519613   0.414   4.908   3.049  0.3677  1.5869  3.1431
   70MOL   C15619614   8.077   4.977   2.574  0.4602  0.3219 -0.4836
   70MOL   C15719615   7.984   5.078   2.553  0.2099  0.4404  0.2520
   70MOL   C15819616   7.896   5.072   2.444  0.2824  0.3367  0.4789
   70MOL   C15919617   7.903   4.960   2.360  0.2244  1.1379  0.3192
   70MOL   C16019618   7.812   4.941   2.250  0.2212  0.1065  0.6837
   70MOL   C16119619   7.710   5.019   2.208 -0.4098  0.4873  0.0270
   70MOL   C16219620   7.996   4.859   2.373  0.9132  0.2831  0.1034
   70MOL   C16319621   8.083   4.865   2.482 -0.0210 -0.2134  0.3377
   70MOL   H16419622   7.979   5.170   2.609 -0.8341  0.8419 -0.4845
   70MOL   H16519623   7.828   5.155   2.432 -0.2585  0.3427  3.2447
   70MOL   H16619624   7.823   4.849   2.193  2.7297  0.2159  0.9614
   70MOL   H16719625   7.696   5.112   2.261  0.9061  0.7225 -0.0174
   70MOL   H16819626   8.013   4.777   2.305 -0.8195  1.4946 -1.8713
   70MOL   H16919627   0.023   4.799   2.496  0.6727  0.6876  0.5051
   70MOL   C17019628   7.608   4.985   2.100 -0.5679  0.5869  1.4776
   70MOL   C17119629   7.594   4.852   2.056  0.4456  0.2623  0.6529
   70MOL   C17219630   7.486   4.816   1.964  0.4965  0.2599 -0.1614
   70MOL   C17319631   7.396   4.918   1.912  0.0212 -0.2346 -0.6963
   70MOL   C17419632   7.281   4.884   1.823  0.2394 -0.5545  0.2092
   70MOL   C17519633   7.290   4.780   1.731 -0.1576  0.2559  0.0582
   70MOL   C17619634   7.423   5.049   1.954  0.5335  0.6392  0.3663
   70MOL   C17719635   7.528   5.088   2.044 -0.0839 -0.0082  0.0224
   70MOL   H17819636   7.658   4.769   2.082 -0.2671 -0.1250  1.1997
   70MOL   H17919637   7.484   4.713   1.934  3.2159 -0.0492  0.6099
   70MOL   H18019638   7.188   4.936   1.835 -0.4811 -1.3056 -1.8734
   70MOL   H18119639   7.385   4.731   1.720  0.1421  0.2140  2.5673
   70MOL   H18219640   7.364   5.131   1.916  1.9198  1.2790 -0.4560
   70MOL   H18319641   7.546   5.190   2.073 -1.1592  0.2728 -0.2611
   70MOL   C18419642   7.179   4.733   1.641 -0.0263 -0.5769  0.0714
   70MOL   C18519643   7.040   4.762   1.645  0.2988 -0.2847 -0.7287
   70MOL   C18619644   6.951   4.693   1.564 -0.1319 -0.3698  0.6518
   70MOL   C18719645   7.006   4.610   1.464  0.2697 -0.1835  0.2929
   70MOL   C18819646   6.914   4.551   1.364 -0.0609  0.1297 -0.2177
   70MOL   C18919647   6.949   4.502   1.247  0.5203  0.1018 -0.2228
   70MOL   C19019648   7.145   4.591   1.447  0.0394 -0.0200 -0.1370
   70MOL   C19119649   7.232   4.655   1.536  0.7681  0.1636 -0.0629
   70MOL   H19219650   7.010   4.834   1.720  0.6007  0.8521 -1.6803
   70MOL   H19319651   6.845   4.707   1.577  0.0317  0.1563  1.4707
   70MOL   H19419652   6.806   4.545   1.372 -0.1383 -1.1197 -1.9423
   70MOL   H19519653   7.053   4.486   1.225  0.0917  1.0453 -3.1917
   70MOL   H19619654   7.187   4.523   1.374  0.8504 -0.4194  0.6899
   70MOL   H19719655   7.338   4.632   1.529  0.6195  0.0151 -2.0338
   70MOL   C19819656   6.866   4.478   1.127  0.1744  0.1735  0.2099
   70MOL   C19919657   6.729   4.510   1.116 -0.0265 -0.1331  0.7041
   70MOL   C20019658   6.649   4.465   1.000  0.3588  0.5845 -0.2645
   70MOL   C20119659   6.708   4.404   0.889  0.0654  0.2065 -0.1303
   70MOL   C20219660   6.625   4.352   0.781  0.1154  0.1791  0.2687
   70MOL   C20319661   6.661   4.285   0.670 -0.3890 -0.0754  0.1872
   70MOL   C20419662   6.846   4.388   0.900 -0.4511 -1.0514 -0.3384
   70MOL   C20519663   6.921   4.423   1.014  0.2958 -0.2803  0.2778
   70MOL   H20619664   6.679   4.566   1.193  1.0909  1.6012  0.1961
   70MOL   H20719665   6.551   4.509   0.997  0.9466  2.0553  1.3053
   70MOL   H20819666   6.522   4.378   0.797 -0.2260 -0.9985  0.0875
   70MOL   H20919667   6.766   4.258   0.662 -0.4712 -0.0845 -1.0877
   70MOL   H21019668   6.904   4.337   0.825  0.4182  0.0507 -0.4294
   70MOL   H21119669   7.027   4.400   1.012  0.5269  0.8021 -1.0900
   70MOL   C21219670   6.581   4.240   0.557 -0.1292 -0.4423  0.2311
   70MOL   C21319671   6.633   4.158   0.456  0.1975  0.7005 -0.8347
   70MOL   C21419672   6.557   4.111   0.349  0.3746 -0.3699 -0.8619
   70MOL   C21519673   6.420   4.147   0.339  0.0459  0.1046  0.0729
   70MOL   C21619674   6.330   4.105   0.231 -0.0103 -0.1162 -0.2104
   70MOL   C21719675   6.371   4.038   0.119 -0.2546  0.0970 -0.0055
   70MOL   C21819676   6.372   4.239   0.434 -0.5561  0.2812  0.8375
   70MOL   C21919677   6.446   4.281   0.548 -0.4317  0.2036  0.1774
   70MOL   H22019678   6.739   4.136   0.453  0.1409  0.4214 -0.7803
   70MOL   H22119679   6.601   4.050   0.271  1.0331  1.4002 -1.8876
   70MOL   H22219680   6.225   4.124   0.245  0.1224  0.3899  0.1217
   70MOL   H22319681   6.478   4.020   0.115  0.0105  1.2804  1.5209
   70MOL   H22419682   6.271   4.276   0.428 -1.1617 -1.6350 -1.2103
   70MOL   H22519683   6.398   4.357   0.609 -3.4239  0.0944 -1.9079
   70MOL   C22619684   6.285   3.993   0.004 -0.1346  0.0029 -0.1746
   70MOL   C22719685   6.325   3.895   8.052 -0.7445 -0.9492 -0.0738
   70MOL   C22819686   6.242   3.851   7.956  0.4140 -0.2977 -0.1058
   70MOL   C22919687   6.109   3.895   7.950  0.2330 -0.4364  1.1589
   70MOL   C23019688   6.012   3.845   7.848  0.9274 -0.6008  0.4268
   70MOL   C23119689   6.033   3.742   7.768 -0.1862 -0.0559 -0.7832
   70MOL   C23219690   6.066   3.996   8.041 -0.5530 -0.1601 -0.2003
   70MOL   C23319691   6.154   4.048   8.133 -0.0257 -0.0386  0.6209
   70MOL   H23419692   6.426   3.856   8.054 -0.3100  0.0622 -1.2699
   70MOL   H23519693   6.278   3.794   7.872 -0.7257 -1.1806 -0.0140
   70MOL   H23619694   5.918   3.896   7.833  1.4534 -0.2773 -1.9994
   70MOL   H23719695   6.118   3.682   7.795 -0.1731  1.1980  2.0982
   70MOL   H23819696   5.971   4.046   8.033 -0.1615  0.6915  0.4591
   70MOL   H23919697   6.113   4.123   0.055 -2.8098 -2.2925  1.5490
   70MOL   C24019698   5.944   3.687   7.666 -0.3307  0.2897  0.0339
   70MOL   C24119699   6.000   3.633   7.549 -0.1757  0.6787 -1.3123
   70MOL   C24219700   5.916   3.581   7.448 -0.7692  0.1076 -0.3997
   70MOL   C24319701   5.776   3.577   7.460  1.4074 -0.2878 -0.4408
   70MOL   C24419702   5.701   3.532   7.343  0.0584  0.9770  0.0563
   70MOL   C24519703   5.569   3.496   7.344 -0.1322  0.3591 -0.1697
   70MOL   C24619704   5.719   3.626   7.581 -0.0689 -0.2812  0.1972
   70MOL   C24719705   5.804   3.686   7.682 -0.3265  0.1215  0.2913
   70MOL   H24819706   6.106   3.639   7.535  0.2527  2.0823  1.9343
   70MOL   H24919707   5.955   3.534   7.360 -2.6376  0.1836 -1.2818
   70MOL   H25019708   5.751   3.523   7.248  0.3862  0.1261  0.3117
   70MOL   H25119709   5.509   3.503   7.434  2.7108 -0.0133  1.8003
   70MOL   H25219710   5.613   3.633   7.601  0.1123 -1.6628  1.6485
   70MOL   H25319711   5.757   3.727   7.770  0.2264  1.0671  0.1441
   70MOL   C25419712   5.485   3.453   7.231 -0.7645 -0.6499  0.2297
   70MOL   C25519713   5.511   3.491   7.099  0.7676 -0.8071  0.3164
   70MOL   C25619714   5.423   3.450   6.996 -0.1893  0.0319 -0.1085
   70MOL   C25719715   5.313   3.370   7.023  0.1381 -0.0137  0.0471
   70MOL   C25819716   5.221   3.338   6.911 -0.9238 -0.2928  0.4927
   70MOL   C25919717   5.088   3.336   6.913 -0.5961 -0.4398 -0.1658
   70MOL   C26019718   5.294   3.324   7.154  0.3931  0.2926  0.0885
   70MOL   C26119719   5.376   3.370   7.259 -0.3058 -0.1658  0.3039
   70MOL   H26219720   5.595   3.550   7.064  0.9055 -0.1454  1.7308
   70MOL   H26319721   5.441   3.490   6.897  0.9248 -2.5418 -0.9675
   70MOL   H26419722   5.286   3.308   6.830  1.6796 -0.3061  2.4928
   70MOL   H26519723   5.040   3.303   6.823 -3.2733  2.4022  0.1374
   70MOL   H26619724   5.208   3.263   7.179  0.1713  1.7609  3.1103
   70MOL   H26719725   5.359   3.333   7.359  1.2725 -1.5311  0.0752
   70MOL   C26819726   4.999   3.369   7.022 -0.5116 -0.3290 -0.4960
   70MOL   C26919727   4.892   3.291   7.063 -0.0482 -0.9070  0.1424
   70MOL   C27019728   4.806   3.333   7.166 -0.4455  0.2687  0.1838
   70MOL   C27119729   4.836   3.449   7.240 -0.3234  0.0905  0.2687
   70MOL   C27219730   4.749   3.482   7.353 -0.0547 -0.1445 -0.0641
   70MOL   C27319731   4.748   3.592   7.441 -0.5272  0.9362  0.8871
   70MOL   C27419732   4.953   3.522   7.198 -0.7610 -0.0635 -0.6839
   70MOL   C27519733   5.030   3.491   7.086 -0.0787  0.4327  0.0768
   70MOL   H27619734   4.878   3.201   7.005  2.0550 -1.6968  0.8009
   70MOL   H27719735   4.728   3.263   7.191  1.7546 -2.1043  0.6827
   70MOL   H27819736   4.668   3.411   7.362 -0.8350  0.5472 -1.5089
   70MOL   H27919737   4.821   3.672   7.444  0.7333 -0.1811  0.2545
   70MOL   H28019738   4.988   3.607   7.254 -0.8062  0.5086 -1.5231
   70MOL   H28119739   5.112   3.559   7.071  0.3517 -0.3286 -1.1083
   70MOL   H28219740   4.666   3.596   7.511 -0.9363  0.1665  0.4502
   71MOL     C119741   2.235   2.686   0.887  0.4623  0.1298 -0.2886
   71MOL     C219742   2.106   2.706   0.945 -0.1202 -0.1344  0.1118
   71MOL     C319743   1.997   2.654   0.881  0.6424  0.9015 -0.5351
   71MOL     C419744   2.009   2.561   0.775 -0.7947 -0.0021  0.0962
   71MOL     C519745   1.888   2.502   0.716  0.2087 -0.1501  0.1339
   71MOL     C619746   1.766   2.560   0.705 -0.3943 -0.2908 -0.1230
   71MOL     C719747   2.135   2.529   0.724  0.0552  0.1028 -0.0019
   71MOL     C819748   2.247   2.602   0.777  0.6009 -0.5334 -0.5742
   71MOL     H919749   2.090   2.768   1.031 -0.7142 -0.2725  0.0991
   71MOL    H1019750   1.898   2.684   0.913  0.6323 -1.7110  2.0102
   71MOL    H1119751   1.904   2.403   0.676  0.3523 -0.4114  0.8216
   71MOL    H1219752   1.764   2.660   0.746 -2.4263 -0.1281 -0.5405
   71MOL    H1319753   2.152   2.458   0.645  1.3959  0.6496 -0.2145
   71MOL    H1419754   2.337   2.595   0.718 -0.0449 -1.2512 -1.5020
   71MOL    H1519755   2.323   2.735   0.924  0.4779 -0.8620  1.0416
   71MOL    C1619756   1.641   2.517   0.643 -0.0319  0.8866  0.0396
   71MOL    C1719757   1.552   2.616   0.600  0.0812  0.1065 -0.3499
   71MOL    C1819758   1.424   2.579   0.546  0.2602 -0.2415  0.5705
   71MOL    C1919759   1.385   2.443   0.522 -0.1464 -0.5425 -0.2733
   71MOL    C2019760   1.259   2.400   0.454  0.1069  0.3305 -0.4049
   71MOL    C2119761   1.169   2.481   0.398  0.2507 -0.3817 -0.0764
   71MOL    C2219762   1.492   2.353   0.547 -0.2804  0.1173  0.7614
   71MOL    C2319763   1.619   2.384   0.605  0.2647  0.1594 -0.0435
   71MOL    H2419764   1.569   2.720   0.620 -0.5160  0.0219  0.6040
   71MOL    H2519765   1.359   2.657   0.509  0.6282  0.3330  1.1267
   71MOL    H2619766   1.249   2.293   0.440 -1.6093  0.4655 -0.3656
   71MOL    H2719767   1.178   2.588   0.405  0.0614 -0.4223  1.0046
   71MOL    H2819768   1.478   2.248   0.529  0.5767 -0.2517  2.1413
   71MOL    H2919769   1.694   2.306   0.615  0.6358  0.4023 -0.8767
   71MOL    C3019770   1.055   2.425   0.326  0.4035 -0.1561 -0.2738
   71MOL    C3119771   0.991   2.303   0.357  0.5871  0.1797  0.0798
   71MOL    C3219772   0.888   2.254   0.276 -0.5627  0.1428  0.1849
   71MOL    C3319773   0.850   2.323   0.159  0.6328 -0.5875  0.4491
   71MOL    C3419774   0.747   2.280   0.069  0.5981  0.6602 -0.0379
   71MOL    C3519775   0.660   2.176   0.096  0.3193  0.4991  0.5120
   71MOL    C3619776   0.904   2.448   0.135  0.1224  0.0319  0.2597
   71MOL    C3719777   1.008   2.499   0.215  0.6986  0.3943  0.3836
   71MOL    H3819778   1.022   2.246   0.444 -2.3449 -0.3071  0.8701
   71MOL    H3919779   0.853   2.157   0.305  0.0797 -0.8933 -2.3350
   71MOL    H4019780   0.742   2.339   8.123  1.6888  2.8489  1.2894
   71MOL    H4119781   0.674   2.127   0.192 -0.2329 -2.1263 -0.7165
   71MOL    H4219782   0.870   2.503   0.048  2.9636  1.0003 -0.3055
   71MOL    H4319783   1.051   2.585   0.166 -0.6614  2.4274  2.6620
   71MOL    C4419784   0.551   2.121   0.009 -0.1174  0.3174  0.0449
   71MOL    C4519785   0.445   2.051   0.069 -0.0781 -0.5337  1.0037
   71MOL    C4619786   0.345   2.005   8.132  0.2375 -0.3309  0.6117
   71MOL    C4719787   0.339   2.028   7.995  0.3460  0.5240  0.6851
   71MOL    C4819788   0.237   1.973   7.906 -0.0052 -0.1570 -0.5038
   71MOL    C4919789   0.118   1.917   7.944 -0.3662  0.0174 -1.1122
   71MOL    C5019790   0.445   2.100   7.934  0.2853  0.8071 -0.1226
   71MOL    C5119791   0.553   2.138   8.011 -0.5116 -0.2857  0.5202
   71MOL    H5219792   0.445   2.036   0.176  1.6873 -2.2024  0.8058
   71MOL    H5319793   0.268   1.950   0.040 -0.4689  0.3163  0.2680
   71MOL    H5419794   0.253   1.977   7.800  2.3105 -4.5857 -0.4242
   71MOL    H5519795   0.090   1.912   8.048  2.3483 -0.5617 -0.3650
   71MOL    H5619796   0.445   2.109   7.826 -1.5995 -0.2502 -0.2385
   71MOL    H5719797   0.643   2.174   7.964  0.0245 -0.8876  1.0667
   71MOL    C5819798   0.027   1.848   7.851  0.8265  0.2240  0.5309
   71MOL    C5919799   8.034   1.837   7.876  0.1000  0.4337  0.3182
   71MOL    C6019800   7.952   1.773   7.775  0.2919  0.2991 -0.8298
   71MOL    C6119801   8.005   1.729   7.653 -0.3588  0.2638  0.4958
   71MOL    C6219802   7.932   1.665   7.543 -0.0979 -0.5055 -0.2629
   71MOL    C6319803   7.802   1.642   7.545  1.0895  0.0108 -0.2270
   71MOL    C6419804   8.143   1.731   7.636 -0.2454  0.0910  0.5791
   71MOL    C6519805   0.080   1.793   7.729 -0.7958  1.2337  0.8338
   71MOL    H6619806   7.989   1.878   7.965  1.1906  1.0290  0.5909
   71MOL    H6719807   7.846   1.762   7.795 -0.2265  2.9723 -1.8397
   71MOL    H6819808   7.990   1.636   7.457  1.0754 -0.6019  0.5492
   71MOL    H6919809   7.742   1.667   7.631 -0.7609  1.6617 -1.9393
   71MOL    H7019810   0.058   1.693   7.555 -0.5531  0.7801  0.0229
   71MOL    H7119811   0.185   1.771   7.712 -0.6355 -0.0258  3.1330
   71MOL    C7219812   7.723   1.576   7.439 -0.1488 -0.0865  0.4567
   71MOL    C7319813   7.795   1.546   7.314  0.2724 -1.1796  0.5149
   71MOL    C7419814   7.720   1.481   7.213  0.6826  0.2797 -0.0365
   71MOL    C7519815   7.586   1.445   7.232  0.4925 -0.4638 -0.1535
   71MOL    C7619816   7.514   1.368   7.131 -0.2898 -0.0027  0.2292
   71MOL    C7719817   7.525   1.374   6.994  0.2470  0.5252 -0.0389
   71MOL    C7819818   7.514   1.475   7.357  0.1755 -0.2390  0.5304
   71MOL    C7919819   7.585   1.546   7.455 -0.1505 -0.5646 -0.2263
   71MOL    H8019820   7.900   1.558   7.294  0.1432 -1.4638 -0.3279
   71MOL    H8119821   7.779   1.467   7.123 -0.7645 -2.9971 -0.5307
   71MOL    H8219822   7.441   1.301   7.173  0.3758 -0.3480  0.8570
   71MOL    H8319823   7.601   1.438   6.951  0.2731 -0.2068 -1.0727
   71MOL    H8419824   7.410   1.447   7.356 -0.3021  1.4625 -0.1375
   71MOL    H8519825   7.534   1.579   7.544 -0.8307  0.7871 -1.1094
   71MOL    C8619826   7.441   1.308   6.893 -1.2115  0.4797  0.4491
   71MOL    C8719827   7.457   1.340   6.754  0.0395  0.9233  0.1757
   71MOL    C8819828   7.383   1.283   6.647  0.7575 -0.5977  0.0251
   71MOL    C8919829   7.281   1.194   6.684  0.0919  0.2178 -0.2496
   71MOL    C9019830   7.199   1.125   6.584  0.3351 -0.5694  0.2431
   71MOL    C9119831   7.216   1.128   6.451  0.3823 -0.4579 -0.6396
   71MOL    C9219832   7.261   1.162   6.822 -0.2719  0.2658 -0.4576
   71MOL    C9319833   7.336   1.222   6.928  1.2928  0.4385 -0.0669
   71MOL    H9419834   7.525   1.419   6.727  1.8362 -0.7088 -0.2112
   71MOL    H9519835   7.383   1.322   6.547 -0.5708  1.2436  0.7002
   71MOL    H9619836   7.113   1.072   6.623 -1.3356  1.8348 -0.0810
   71MOL    H9719837   7.291   1.189   6.401 -0.8540  1.1460 -0.5458
   71MOL    H9819838   7.179   1.095   6.844 -1.4239  1.6997 -0.2667
   71MOL    H9919839   7.323   1.190   7.030  2.4399 -0.5326 -0.2035
   71MOL   C10019840   7.128   1.049   6.358  0.1219 -0.0107  0.1087
   71MOL   C10119841   6.994   1.019   6.399  0.3111  0.1151  0.4217
   71MOL   C10219842   6.919   0.928   6.325 -1.0667 -0.4370  0.8078
   71MOL   C10319843   6.965   0.879   6.197 -0.2437 -0.3336  0.3823
   71MOL   C10419844   6.900   0.769   6.129 -0.2946  0.5356  0.4233
   71MOL   C10519845   6.811   0.675   6.173  0.6708  0.4795 -0.3808
   71MOL   C10619846   7.102   0.913   6.165  0.4678  0.0125  0.1637
   71MOL   C10719847   7.183   1.008   6.235  0.0872 -0.1279 -0.0302
   71MOL   H10819848   6.946   1.063   6.486 -2.2213  1.9591 -1.8135
   71MOL   H10919849   6.822   0.897   6.360 -1.6027 -1.1064 -1.1943
   71MOL   H11019850   6.941   0.769   6.029  0.3243  3.5448  0.6148
   71MOL   H11119851   6.774   0.684   6.274 -0.3601  1.0527 -0.8006
   71MOL   H11219852   7.136   0.871   6.072 -0.6897 -1.5514  0.4290
   71MOL   H11319853   7.281   1.039   6.202  1.1160  0.0345  3.0312
   71MOL   C11419854   6.776   0.555   6.094 -0.0938 -0.7063 -0.4024
   71MOL   C11519855   6.762   0.429   6.158  0.3556  0.2166  0.2656
   71MOL   C11619856   6.774   0.308   6.087  0.4548  0.5408 -0.6725
   71MOL   C11719857   6.808   0.310   5.949  0.7260  0.3941 -0.3314
   71MOL   C11819858   6.851   0.184   5.881 -0.3283  0.8791  0.6835
   71MOL   C11919859   6.858   0.160   5.752  1.1822 -0.0906  0.0525
   71MOL   C12019860   6.814   0.428   5.882 -0.3626 -0.3142  0.3372
   71MOL   C12119861   6.810   0.550   5.957  0.1328  0.8369  0.8341
   71MOL   H12219862   6.738   0.421   6.263  0.7340  1.6598  0.4791
   71MOL   H12319863   6.767   0.211   6.135  1.2412  2.3568  3.3378
   71MOL   H12419864   6.883   0.113   5.956  0.6378  1.4757  0.8452
   71MOL   H12519865   6.821   0.234   5.683 -0.1314 -0.9926 -0.2190
   71MOL   H12619866   6.846   0.422   5.778 -0.9248 -0.3628  0.1645
   71MOL   H12719867   6.829   0.641   5.902 -0.9535  0.8139  0.4249
   71MOL   C12819868   6.929   0.050   5.689 -0.1405 -0.3447 -0.2268
   71MOL   C12919869   6.975   8.090   5.774  0.5662  1.0622 -0.0589
   71MOL   C13019870   7.080   8.014   5.723 -0.3572 -0.0047 -0.4791
   71MOL   C13119871   7.120   8.024   5.583 -0.3650 -0.4516  0.3028
   71MOL   C13219872   7.230   7.941   5.531  0.0266  0.2051 -0.3035
   71MOL   C13319873   7.295   7.841   5.600  0.7029  0.3156 -0.4988
   71MOL   C13419874   7.049   8.106   5.498  0.4820  0.3407  0.6933
   71MOL   C13519875   6.965   0.060   5.553 -0.4249  0.0681  0.0105
   71MOL   H13619876   6.946   8.086   5.877 -1.0740  0.3604 -0.5276
   71MOL   H13719877   7.134   7.943   5.785 -0.1765 -0.2338 -0.8969
   71MOL   H13819878   7.265   7.966   5.433  1.3262  0.0999  0.1248
   71MOL   H13919879   7.269   7.807   5.699  3.0043  1.2218  0.4572
   71MOL   H14019880   7.072   8.107   5.392 -1.3370 -2.2518  0.2203
   71MOL   H14119881   6.926   0.140   5.491 -0.9083 -0.0841  0.1172
   71MOL   C14219882   7.411   7.769   5.543  0.6642 -0.2712  0.3130
   71MOL   C14319883   7.464   7.802   5.420  0.5090 -0.2224 -0.4505
   71MOL   C14419884   7.574   7.733   5.369 -0.6445 -0.7381 -0.2391
   71MOL   C14519885   7.645   7.634   5.443  0.2289 -0.7057  0.4573
   71MOL   C14619886   7.768   7.569   5.394 -0.6806 -0.4934  0.1942
   71MOL   C14719887   7.790   7.541   5.262  0.2266 -0.4756  0.7718
   71MOL   C14819888   7.593   7.606   5.566 -0.0566  0.1489 -0.3642
   71MOL   C14919889   7.483   7.671   5.619  0.6095 -0.5647  0.0799
   71MOL   H15019890   7.414   7.864   5.348 -1.3296 -1.4861 -0.3054
   71MOL   H15119891   7.621   7.760   5.275  0.3338 -2.2827 -0.2176
   71MOL   H15219892   7.836   7.534   5.470 -0.3815  0.9859  0.6224
   71MOL   H15319893   7.716   7.575   5.191  0.6804  2.9548  1.8538
   71MOL   H15419894   7.631   7.525   5.627  0.3512  1.4780  1.1845
   71MOL   H15519895   7.448   7.653   5.720  1.8082  1.1383  0.8064
   71MOL   C15619896   7.905   7.469   5.203 -0.2657  0.1226 -0.6539
   71MOL   C15719897   7.890   7.374   5.110 -0.0917  0.3474  0.1738
   71MOL   C15819898   7.992   7.306   5.052 -0.3743 -0.2404  0.0258
   71MOL   C15919899   8.118   7.338   5.098 -0.1192 -0.0127 -0.2109
   71MOL   C16019900   0.094   7.264   5.047  0.2357  0.0016  0.6604
   71MOL   C16119901   0.221   7.290   5.071 -0.3927 -0.7459 -0.3823
   71MOL   C16219902   8.142   7.432   5.202 -0.9299  0.2164 -0.0848
   71MOL   C16319903   8.032   7.489   5.266 -0.3446 -0.4985  0.0115
   71MOL   H16419904   7.790   7.344   5.083  0.1878 -1.1212  0.7065
   71MOL   H16519905   7.962   7.230   4.982 -0.2851 -0.8077  0.5969
   71MOL   H16619906   0.073   7.178   4.986  0.7417  0.6656 -0.4672
   71MOL   H16719907   0.242   7.377   5.132 -0.2114 -0.8661 -0.2743
   71MOL   H16819908   0.095   7.457   5.242 -0.2881  0.6842 -1.8667
   71MOL   H16919909   8.046   7.569   5.337 -0.3560 -0.0276 -0.5128
   71MOL   C17019910   0.331   7.220   5.031  0.0073  0.0483 -0.0522
   71MOL   C17119911   0.334   7.095   4.955  0.1055  0.1097  0.5914
   71MOL   C17219912   0.459   7.034   4.926 -0.3503 -0.1049 -0.2090
   71MOL   C17319913   0.576   7.091   4.972 -0.0189  0.6750  0.3724
   71MOL   C17419914   0.702   7.025   4.928  0.6923  0.0102  0.1378
   71MOL   C17519915   0.823   7.084   4.921  0.4740 -0.0059 -0.2215
   71MOL   C17619916   0.578   7.214   5.041  0.4790 -0.1723  0.0794
   71MOL   C17719917   0.454   7.280   5.064  0.0101 -0.4225 -0.9113
   71MOL   H17819918   0.247   7.052   4.909 -0.0796  0.0735  0.9774
   71MOL   H17919919   0.471   6.943   4.869  2.7333  0.8983 -1.2627
   71MOL   H18019920   0.698   6.924   4.890  2.1826 -0.4115  1.0607
   71MOL   H18119921   0.837   7.188   4.947  0.7266  1.1233 -4.4921
   71MOL   H18219922   0.671   7.261   5.070  0.7324 -1.0766  0.7312
   71MOL   H18319923   0.447   7.378   5.110  1.1230 -1.8128  2.4136
   71MOL   C18419924   0.946   7.016   4.877  0.1743  0.1031 -0.4247
   71MOL   C18519925   1.062   7.091   4.855 -0.4599 -0.2577  0.6403
   71MOL   C18619926   1.187   7.033   4.834  0.2267  0.4875 -0.0671
   71MOL   C18719927   1.198   6.895   4.828  0.2966  1.0816  0.3197
   71MOL   C18819928   1.331   6.831   4.814 -0.2878  0.1952  0.0752
   71MOL   C18919929   1.362   6.704   4.828  0.0980  0.2554  0.0019
   71MOL   C19019930   1.079   6.819   4.822  1.6476  0.2992 -0.3734
   71MOL   C19119931   0.954   6.883   4.844 -0.5398  0.6808 -0.1201
   71MOL   H19219932   1.051   7.199   4.861 -0.5753 -0.1358 -1.5333
   71MOL   H19319933   1.279   7.090   4.828 -0.2718  1.8632  4.2951
   71MOL   H19419934   1.411   6.898   4.788  1.5357 -0.9450  2.4977
   71MOL   H19519935   1.284   6.633   4.853  1.2667 -0.9838  0.1832
   71MOL   H19619936   1.078   6.712   4.807  1.3929  0.0409  1.3162
   71MOL   H19719937   0.871   6.815   4.845 -0.1679  0.2227  0.5176
   71MOL   C19819938   1.496   6.646   4.812  0.5092 -0.3791  0.1072
   71MOL   C19919939   1.513   6.511   4.838  0.3597 -0.4225 -0.3160
   71MOL   C20019940   1.631   6.445   4.818  0.2079  0.4640  0.2045
   71MOL   C20119941   1.749   6.526   4.783 -0.9856 -0.4602 -0.1552
   71MOL   C20219942   1.884   6.462   4.785 -0.5630  0.1689 -0.8975
   71MOL   C20319943   1.911   6.336   4.832 -0.6534  0.1181 -0.3333
   71MOL   C20419944   1.733   6.665   4.772  0.5136  0.3337 -0.4131
   71MOL   C20519945   1.608   6.723   4.771  0.2560 -0.0310  0.6064
   71MOL   H20619946   1.424   6.454   4.861  0.3142  0.0265  0.6345
   71MOL   H20719947   1.636   6.337   4.825  0.8803  0.5607  1.5186
   71MOL   H20819948   1.964   6.524   4.747 -0.7506  0.4451 -0.8467
   71MOL   H20919949   1.832   6.274   4.873  0.6394 -1.3613 -0.0005
   71MOL   H21019950   1.814   6.723   4.729 -0.6921  1.2359 -1.5226
   71MOL   H21119951   1.599   6.825   4.736  2.0615  0.1706  0.6784
   71MOL   C21219952   2.046   6.266   4.821 -0.3136 -0.3275  0.2193
   71MOL   C21319953   2.075   6.152   4.898  0.2242  0.2190 -0.0123
   71MOL   C21419954   2.196   6.083   4.899 -0.4949 -0.1125  0.7263
   71MOL   C21519955   2.302   6.133   4.829 -0.8019 -0.5133 -0.7688
   71MOL   C21619956   2.424   6.051   4.835  0.4549 -0.6280 -0.1330
   71MOL   C21719957   2.516   6.057   4.740  0.1015  0.0942  0.0604
   71MOL   C21819958   2.281   6.248   4.750  0.1153  0.1627  0.0992
   71MOL   C21919959   2.157   6.316   4.746  0.8044  1.0464  0.7344
   71MOL   H22019960   1.996   6.108   4.957 -0.8243 -0.8312 -2.1662
   71MOL   H22119961   2.203   5.990   4.953 -1.0840 -0.6029 -0.0333
   71MOL   H22219962   2.437   5.984   4.919 -2.5145 -1.0150  0.0526
   71MOL   H22319963   2.502   6.125   4.658 -1.5985 -1.3412 -0.8624
   71MOL   H22419964   2.358   6.278   4.680  0.4447 -0.8212  0.0397
   71MOL   H22519965   2.140   6.397   4.677  0.9166  0.2797 -0.2090
   71MOL   C22619966   2.640   5.978   4.743 -0.5846 -0.4801  0.5729
   71MOL   C22719967   2.704   5.950   4.621 -0.2259  0.3331  0.3580
   71MOL   C22819968   2.820   5.865   4.613  0.1321 -0.6010 -0.1142
   71MOL   C22919969   2.872   5.801   4.734 -0.3073  0.1242  0.0327
   71MOL   C23019970   2.998   5.724   4.734  0.1881  0.1559  0.9006
   71MOL   C23119971   3.079   5.703   4.625 -0.0079  0.3528  0.0512
   71MOL   C23219972   2.804   5.821   4.853  0.4915  0.2649 -0.4836
   71MOL   C23319973   2.692   5.909   4.859 -0.1451 -0.2107 -0.5857
   71MOL   H23419974   2.672   5.981   4.523 -0.0197 -4.3097 -1.3128
   71MOL   H23519975   2.865   5.843   4.517 -1.0348  1.0018 -1.0539
   71MOL   H23619976   3.023   5.690   4.833 -1.3655 -1.3711  0.7862
   71MOL   H23719977   3.052   5.746   4.529  0.1946 -0.9603 -0.6127
   71MOL   H23819978   2.835   5.768   4.942 -3.2212  2.8810  2.5596
   71MOL   H23919979   2.646   5.917   4.956  2.1282 -2.7015  0.7503
   71MOL   C24019980   3.209   5.642   4.627 -0.4114 -0.4081  0.4057
   71MOL   C24119981   3.270   5.609   4.505  0.2911 -0.1890  0.2887
   71MOL   C24219982   3.398   5.560   4.506 -0.2651  0.0609  0.1985
   71MOL   C24319983   3.475   5.548   4.622 -0.9031 -0.4755 -0.2166
   71MOL   C24419984   3.617   5.506   4.620 -0.7713 -0.2177 -0.4007
   71MOL   C24519985   3.706   5.536   4.722  0.4379  0.0217 -0.2424
   71MOL   C24619986   3.414   5.586   4.747 -0.0703 -0.3517  0.7001
   71MOL   C24719987   3.278   5.624   4.745  0.3740 -0.0880  0.4142
   71MOL   H24819988   3.222   5.634   4.412  0.0820 -0.8516  0.2104
   71MOL   H24919989   3.458   5.537   4.419  1.5028 -1.1525  1.6927
   71MOL   H25019990   3.650   5.459   4.529 -0.0971  2.0248 -1.3654
   71MOL   H25119991   3.674   5.572   4.818 -1.3002 -1.2772 -0.3091
   71MOL   H25219992   3.465   5.574   4.841  1.0277 -2.2001 -0.1001
   71MOL   H25319993   3.229   5.645   4.838 -0.8833 -0.0831 -0.2390
   71MOL   C25419994   3.847   5.515   4.708  0.2655  0.5207 -0.2585
   71MOL   C25519995   3.930   5.579   4.800 -0.0640 -0.0479 -0.1274
   71MOL   C25619996   4.068   5.572   4.789 -0.1812 -0.4340 -0.3836
   71MOL   C25719997   4.124   5.502   4.680  0.3431  0.2719 -0.0026
   71MOL   C25819998   4.268   5.494   4.661 -0.5478  0.2555 -0.8280
   71MOL   C25919999   4.362   5.472   4.759 -0.3610  0.8484 -1.5088
   71MOL   C26020000   4.042   5.437   4.590 -0.0954  0.1802  0.4777
   71MOL   C26120001   3.907   5.446   4.605 -0.1408  0.7192  1.0489
   71MOL   H26220002   3.889   5.636   4.882 -0.5823  0.8408 -1.0013
   71MOL   H26320003   4.137   5.621   4.855 -0.7625 -0.3730  0.1900
   71MOL   H26420004   4.309   5.517   4.564  2.5023  0.9540  0.5595
   71MOL   H26520005   4.464   5.490   4.728 -0.4174 -1.2959 -3.0371
   71MOL   H26620006   4.092   5.378   4.515 -0.8271  0.9104 -0.6016
   71MOL   H26720007   3.852   5.386   4.533 -0.1913  1.6619  0.2888
   71MOL   C26820008   4.340   5.401   4.889  0.3271  0.1451  0.2449
   71MOL   C26920009   4.408   5.447   5.008  0.3599  0.0627  0.0438
   71MOL   C27020010   4.368   5.398   5.137 -0.0082 -0.2659 -0.8029
   71MOL   C27120011   4.256   5.312   5.141  0.2309 -0.5156 -0.5113
   71MOL   C27220012   4.216   5.263   5.271  0.3095 -0.5754  1.1614
   71MOL   C27320013   4.302   5.232   5.370  0.4829  0.3350  0.2701
   71MOL   C27420014   4.182   5.267   5.025 -0.4517  0.2736 -0.2565
   71MOL   C27520015   4.226   5.312   4.899 -0.1006 -0.6111  0.1765
   71MOL   H27620016   4.498   5.508   5.005  2.0934 -2.4760 -1.4697
   71MOL   H27720017   4.429   5.432   5.220 -0.6743  0.2779 -0.5330
   71MOL   H27820018   4.110   5.252   5.293  0.3372  1.1592  2.2607
   71MOL   H27920019   4.409   5.248   5.364  0.4422  0.1608 -1.1958
   71MOL   H28020020   4.090   5.212   5.036  0.7578 -1.1679  3.2341
   71MOL   H28120021   4.161   5.283   4.817 -1.2977  0.8970  0.5704
   71MOL   H28220022   4.280   5.190   5.467 -0.4322  0.1396 -0.0192
   72MOL     C120023   6.155   5.931   4.631  0.5226 -0.0201  0.5099
   72MOL     C220024   6.170   5.924   4.772  0.8527  0.5286 -0.8140
   72MOL     C320025   6.113   6.026   4.852  0.0612  0.6202  0.1318
   72MOL     C420026   6.056   6.140   4.796 -0.3735  0.1719  0.4513
   72MOL     C520027   6.029   6.253   4.890  0.4436 -0.4338 -0.2960
   72MOL     C620028   5.974   6.373   4.856 -0.1098  0.5046 -0.2153
   72MOL     C720029   6.029   6.140   4.654 -0.0116  0.1262 -0.8542
   72MOL     C820030   6.079   6.036   4.573  0.0694 -0.8825  0.8173
   72MOL     H920031   6.224   5.837   4.807 -1.5296 -0.4231  0.5789
   72MOL    H1020032   6.140   6.031   4.957 -0.3308 -0.0357  0.2695
   72MOL    H1120033   6.055   6.232   4.993  0.1159  0.2910 -0.0681
   72MOL    H1220034   5.961   6.395   4.751  0.7608 -1.1089 -0.6762
   72MOL    H1320035   5.975   6.226   4.618 -0.0871 -0.3208 -1.8251
   72MOL    H1420036   6.067   6.038   4.465 -3.1218 -0.1330  1.1449
   72MOL    H1520037   6.192   5.850   4.569  0.2124 -0.6853  1.1901
   72MOL    C1620038   5.927   6.475   4.952  0.5540 -0.1540  0.0728
   72MOL    C1720039   5.887   6.605   4.906 -0.0915 -0.5420 -0.2979
   72MOL    C1820040   5.835   6.697   4.999 -0.1807 -0.2648  1.1791
   72MOL    C1920041   5.830   6.671   5.137  0.6465 -0.8041  0.2634
   72MOL    C2020042   5.786   6.784   5.222 -0.4734 -0.6642  0.7805
   72MOL    C2120043   5.743   6.771   5.350  0.2842 -0.0251 -0.8980
   72MOL    C2220044   5.868   6.543   5.178 -0.2372  1.1717 -0.0394
   72MOL    C2320045   5.922   6.450   5.089  0.2821  0.4243 -0.6024
   72MOL    H2420046   5.874   6.637   4.804 -1.7456  0.0143  0.0835
   72MOL    H2520047   5.802   6.796   4.973  0.1452  0.4194  3.2123
   72MOL    H2620048   5.798   6.881   5.174  1.9851 -1.8778 -1.1720
   72MOL    H2720049   5.743   6.672   5.395 -0.4454  0.5015  0.2720
   72MOL    H2820050   5.861   6.516   5.282  0.4007  4.1961  0.8238
   72MOL    H2920051   5.944   6.350   5.125  0.5570  0.3860 -0.8695
   72MOL    C3020052   5.687   6.878   5.435 -0.4896  1.1138  0.1642
   72MOL    C3120053   5.654   7.006   5.394  0.7992  0.0839 -0.2529
   72MOL    C3220054   5.596   7.099   5.480  0.5043 -0.2818 -0.2003
   72MOL    C3320055   5.571   7.065   5.613 -1.2110  0.3702 -0.0910
   72MOL    C3420056   5.511   7.156   5.721 -0.7681 -0.0707  0.1052
   72MOL    C3520057   5.479   7.284   5.712 -0.3667 -0.5208 -0.3132
   72MOL    C3620058   5.605   6.933   5.656  0.4739 -0.5309  0.6328
   72MOL    C3720059   5.664   6.844   5.571 -0.2392  0.2053 -0.6008
   72MOL    H3820060   5.684   7.028   5.292  1.4830 -1.4307 -0.4010
   72MOL    H3920061   5.575   7.199   5.445  0.6023  0.1091  0.8412
   72MOL    H4020062   5.487   7.111   5.816  1.6543  3.2671  2.4443
   72MOL    H4120063   5.489   7.328   5.614 -1.5392  1.2551  0.3479
   72MOL    H4220064   5.566   6.895   5.749 -0.9989 -0.3324  0.1235
   72MOL    H4320065   5.690   6.748   5.612 -1.3696  0.1844  0.0842
   72MOL    C4420066   5.424   7.368   5.816 -0.0293  1.0602 -0.3633
   72MOL    C4520067   5.346   7.312   5.926  0.6172  0.1261 -0.2955
   72MOL    C4620068   5.291   7.390   6.027  0.1301  0.1325  0.1587
   72MOL    C4720069   5.321   7.529   6.030 -0.2279  0.5328  0.1386
   72MOL    C4820070   5.291   7.625   6.139  0.1074 -0.6112  0.0621
   72MOL    C4920071   5.219   7.600   6.250 -0.4646 -0.1663 -0.3302
   72MOL    C5020072   5.397   7.581   5.923 -0.6075 -0.6709 -0.1042
   72MOL    C5120073   5.444   7.507   5.814 -0.3871  0.1123  0.0026
   72MOL    H5220074   5.336   7.206   5.945  0.6287  0.6942  3.2078
   72MOL    H5320075   5.244   7.346   6.113  0.8619 -0.5096  0.2265
   72MOL    H5420076   5.334   7.724   6.132 -0.9388 -0.2416 -1.2290
   72MOL    H5520077   5.184   7.498   6.263 -2.1378  0.4166 -0.1552
   72MOL    H5620078   5.406   7.689   5.927  1.7787 -0.8573  0.5612
   72MOL    H5720079   5.512   7.555   5.746  0.3401 -0.1707  0.5165
   72MOL    C5820080   5.198   7.688   6.373  0.2797 -0.4322  0.9757
   72MOL    C5920081   5.299   7.785   6.400  0.1867 -0.5522 -0.5086
   72MOL    C6020082   5.285   7.875   6.514  0.1055  0.2267  0.6765
   72MOL    C6120083   5.177   7.857   6.603 -0.8782 -0.5198  0.5390
   72MOL    C6220084   5.180   7.947   6.719 -0.6555 -0.3898  0.6633
   72MOL    C6320085   5.079   7.966   6.807 -0.0253 -0.3994  0.0318
   72MOL    C6420086   5.082   7.750   6.576  0.1551 -0.3839  0.2081
   72MOL    C6520087   5.089   7.666   6.462  0.3443 -0.7164 -0.1523
   72MOL    H6620088   5.386   7.788   6.337 -0.2786  0.6649 -1.0958
   72MOL    H6720089   5.354   7.957   6.519  0.8008 -0.2011 -1.2333
   72MOL    H6820090   5.275   7.999   6.728 -1.4354  1.2995 -0.6525
   72MOL    H6920091   4.981   7.921   6.792  0.5587 -1.6501 -0.1261
   72MOL    H7020092   5.004   7.738   6.650  0.9700 -1.7972  0.8606
   72MOL    H7120093   5.017   7.586   6.448 -0.5531 -0.0613  0.6614
   72MOL    C7220094   5.081   8.050   6.926  0.0564  0.3845  0.3343
   72MOL    C7320095   4.963   8.079   6.991  0.7325 -0.4026 -0.0362
   72MOL    C7420096   4.964   0.027   7.100  0.1751 -0.1249 -0.0537
   72MOL    C7520097   5.082   0.083   7.145  0.4417  0.1542 -0.6591
   72MOL    C7620098   5.084   0.184   7.251 -0.1818 -0.1006 -0.5045
   72MOL    C7720099   4.981   0.257   7.295 -0.2040 -0.7511 -0.3048
   72MOL    C7820100   5.200   0.066   7.075 -0.0632 -0.5164 -0.5011
   72MOL    C7920101   5.199   8.119   6.965 -1.1163  0.0533 -0.0483
   72MOL    H8020102   4.873   8.026   6.963 -0.7459  2.9159 -1.8392
   72MOL    H8120103   4.867   0.039   7.145  0.7740 -0.6050  1.3849
   72MOL    H8220104   5.180   0.197   7.299 -0.5164 -1.1251  0.4497
   72MOL    H8320105   4.882   0.246   7.255 -1.3917  0.5755  2.1325
   72MOL    H8420106   5.288   0.124   7.100 -0.0583 -0.5490 -0.4434
   72MOL    H8520107   5.290   8.103   6.908  0.8064  3.3050  1.9500
   72MOL    C8620108   4.996   0.363   7.395  0.1092 -0.9018 -0.2349
   72MOL    C8720109   5.103   0.362   7.484 -0.0127 -0.2385  0.0840
   72MOL    C8820110   5.140   0.477   7.558 -0.3070 -0.1009  0.3555
   72MOL    C8920111   5.060   0.597   7.537  0.0935 -0.0818  0.1891
   72MOL    C9020112   5.105   0.738   7.584  0.3909  0.1892  0.5069
   72MOL    C9120113   5.235   0.760   7.607 -0.0706 -0.0993 -0.1945
   72MOL    C9220114   4.947   0.595   7.451 -0.1513  0.6345 -0.2119
   72MOL    C9320115   4.908   0.474   7.394 -0.1823  0.1055  0.7857
   72MOL    H9420116   5.156   0.269   7.499  1.5525  0.6962  0.6156
   72MOL    H9520117   5.231   0.478   7.616  0.3522  1.5848 -0.6739
   72MOL    H9620118   5.032   0.817   7.596 -1.8958 -1.3894 -2.1616
   72MOL    H9720119   5.299   0.673   7.603 -0.5164 -0.4940  0.8937
   72MOL    H9820120   4.904   0.690   7.423  0.9650  1.4545  0.8351
   72MOL    H9920121   4.825   0.468   7.324  0.2398  1.0001  0.2018
   72MOL   C10020122   5.303   0.883   7.642 -0.0816 -0.6200  0.5481
   72MOL   C10120123   5.246   1.017   7.654  0.3545  1.0433 -0.8320
   72MOL   C10220124   5.328   1.126   7.683  0.1660 -0.4302  0.2329
   72MOL   C10320125   5.471   1.113   7.691  0.2945  0.1222 -0.6682
   72MOL   C10420126   5.549   1.242   7.705 -0.2313 -0.0495 -0.1703
   72MOL   C10520127   5.686   1.234   7.711  0.0057  0.3365  0.4753
   72MOL   C10620128   5.526   0.984   7.678 -0.3968  0.0584 -0.4233
   72MOL   C10720129   5.443   0.872   7.652 -0.6220 -0.6233  0.6860
   72MOL   H10820130   5.144   1.051   7.650 -0.0718  0.1836  1.5173
   72MOL   H10920131   5.279   1.221   7.691 -2.0371 -1.5028 -0.1782
   72MOL   H11020132   5.499   1.337   7.716 -1.2809 -0.7118  0.9395
   72MOL   H11120133   5.741   1.144   7.687 -0.1982  0.3119  0.1051
   72MOL   H11220134   5.630   0.968   7.702 -0.5418 -0.3453 -0.0550
   72MOL   H11320135   5.487   0.774   7.645  0.2196 -0.1770 -0.6893
   72MOL   C11420136   5.776   1.346   7.745  0.3542 -0.2364 -0.1234
   72MOL   C11520137   5.755   1.488   7.721  0.6764  0.1894  0.9004
   72MOL   C11620138   5.856   1.583   7.747  0.3662 -0.4470 -0.1337
   72MOL   C11720139   5.978   1.545   7.811 -0.7277  0.2073 -0.5424
   72MOL   C11820140   6.084   1.643   7.826 -0.6715 -0.3597 -0.3008
   72MOL   C11920141   6.215   1.616   7.829 -0.2183  0.3982 -1.0624
   72MOL   C12020142   5.998   1.406   7.840 -0.2211 -0.4521  0.6796
   72MOL   C12120143   5.897   1.312   7.811 -0.0490 -0.5179  0.2415
   72MOL   H12220144   5.663   1.520   7.673  0.4377 -1.6726  0.0729
   72MOL   H12320145   5.841   1.679   7.699 -1.0167 -0.4801  0.2038
   72MOL   H12420146   6.049   1.745   7.829 -0.7056 -0.3610 -0.6176
   72MOL   H12520147   6.248   1.513   7.827  0.9808  0.7559 -0.4664
   72MOL   H12620148   6.092   1.379   7.885  0.2114  0.1032  0.1091
   72MOL   H12720149   5.910   1.206   7.827  1.6582 -0.1646  1.3320
   72MOL   C12820150   6.322   1.716   7.820  0.0387 -0.4890  0.4650
   72MOL   C12920151   6.295   1.850   7.775  0.1641  0.1014  0.3277
   72MOL   C13020152   6.396   1.947   7.770 -0.0611 -0.1722 -0.4947
   72MOL   C13120153   6.527   1.906   7.811 -0.3711 -0.9364  0.5958
   72MOL   C13220154   6.635   2.008   7.818  0.3169 -0.5122 -0.1911
   72MOL   C13320155   6.741   1.996   7.891 -0.7619 -0.1328 -0.0300
   72MOL   C13420156   6.554   1.771   7.844 -0.2143  0.4584 -0.3002
   72MOL   C13520157   6.451   1.678   7.847  0.2076  0.2106  0.3799
   72MOL   H13620158   6.198   1.893   7.753  0.3482  0.6598  0.6155
   72MOL   H13720159   6.364   2.050   7.768  1.8805  0.4386 -1.5878
   72MOL   H13820160   6.623   2.101   7.764 -1.5049 -1.3575 -1.3045
   72MOL   H13920161   6.755   1.903   7.943  1.5666 -0.3852 -1.0350
   72MOL   H14020162   6.645   1.731   7.886 -1.9947 -0.9485  2.3806
   72MOL   H14120163   6.471   1.584   7.897 -2.2088 -0.0462  0.9055
   72MOL   C14220164   6.851   2.095   7.903  0.4118 -0.4702 -0.5850
   72MOL   C14320165   6.969   2.059   7.972 -0.5155 -0.3247 -0.3649
   72MOL   C14420166   7.079   2.140   7.970  0.4209  0.0955  0.4572
   72MOL   C14520167   7.080   2.265   7.902  0.5934  0.0569 -0.0850
   72MOL   C14620168   7.189   2.362   7.899 -0.4603  0.0186 -0.6735
   72MOL   C14720169   7.314   2.341   7.948 -0.6489 -0.1416  0.9028
   72MOL   C14820170   6.961   2.304   7.836  0.4075 -0.2629  0.3817
   72MOL   C14920171   6.848   2.218   7.835  0.1838 -0.7110  0.3923
   72MOL   H15020172   6.974   1.967   8.027  0.5002 -0.4258 -0.6168
   72MOL   H15120173   7.163   2.093   8.020  0.9875 -0.9916 -1.4732
   72MOL   H15220174   7.181   2.453   7.842 -0.9769  0.2048 -0.2994
   72MOL   H15320175   7.336   2.256   8.010  2.5458  0.1663  0.3328
   72MOL   H15420176   6.957   2.396   7.780  0.5972  0.8302  2.1543
   72MOL   H15520177   6.757   2.255   7.792 -0.0499  0.6130  1.9620
   72MOL   C15620178   7.434   2.433   7.935  1.6259 -0.1365 -0.0270
   72MOL   C15720179   7.414   2.567   7.894  0.3700  0.1157 -0.0297
   72MOL   C15820180   7.524   2.658   7.900 -0.4433 -0.1292 -0.7945
   72MOL   C15920181   7.656   2.611   7.911 -0.4234  0.6586 -0.7929
   72MOL   C16020182   7.769   2.707   7.927  0.0398 -0.3645 -0.4986
   72MOL   C16120183   7.898   2.675   7.950  0.1512  0.2715  0.7310
   72MOL   C16220184   7.676   2.471   7.936 -0.2250  0.2842 -1.1073
   72MOL   C16320185   7.566   2.383   7.943 -0.3111 -0.0548 -0.1926
   72MOL   H16420186   7.311   2.599   7.893  0.0937 -0.7559 -0.5414
   72MOL   H16520187   7.515   2.766   7.895 -3.1760 -0.2331  0.8705
   72MOL   H16620188   7.749   2.811   7.906  1.4479 -0.0192 -0.2252
   72MOL   H16720189   7.926   2.573   7.970 -0.3948 -0.2450 -0.9691
   72MOL   H16820190   7.774   2.429   7.953 -1.1290 -0.0833  3.6614
   72MOL   H16920191   7.580   2.278   7.966  0.3931  0.6503  2.8562
   72MOL   C17020192   8.014   2.768   7.962 -0.5505  0.0771 -0.0081
   72MOL   C17120193   8.137   2.710   7.930 -0.4319  0.0979 -0.6783
   72MOL   C17220194   0.110   2.794   7.935  0.0765 -0.1483  0.5288
   72MOL   C17320195   0.096   2.936   7.950  0.0843  0.8457 -0.3049
   72MOL   C17420196   0.213   3.021   7.947  0.1089 -0.9263  0.2180
   72MOL   C17520197   0.339   2.992   7.902 -0.5825  0.1532  0.1236
   72MOL   C17620198   8.115   2.988   7.972  0.4082  0.1470  0.0681
   72MOL   C17720199   8.001   2.906   7.970  0.6453 -0.4979 -0.3627
   72MOL   H17820200   8.144   2.605   7.904 -0.5447  0.7310 -3.5054
   72MOL   H17920201   0.201   2.742   7.913  0.2371  0.6492 -0.7481
   72MOL   H18020202   0.189   3.122   7.977 -1.7259 -1.1576 -0.3832
   72MOL   H18120203   0.380   2.894   7.881 -1.0503 -0.2516  1.0870
   72MOL   H18220204   8.096   3.094   7.986 -1.6382  0.0069 -1.3920
   72MOL   H18320205   7.911   2.964   7.984  1.2395 -0.0396  1.6424
   72MOL   C18420206   0.450   3.087   7.888 -0.1476 -0.2127  0.1418
   72MOL   C18520207   0.585   3.047   7.898 -0.6745  0.5608  0.0481
   72MOL   C18620208   0.681   3.148   7.898  0.5923 -0.2841 -0.0916
   72MOL   C18720209   0.654   3.284   7.869  0.1111  0.8014 -0.6399
   72MOL   C18820210   0.768   3.374   7.841 -0.5993 -0.0163  0.7699
   72MOL   C18920211   0.760   3.490   7.776  0.2058 -0.3462 -0.2082
   72MOL   C19020212   0.523   3.324   7.849 -0.8142 -0.0620 -0.1683
   72MOL   C19120213   0.421   3.222   7.863 -0.1327 -0.3275 -0.4400
   72MOL   H19220214   0.610   2.946   7.929  0.0476  1.3757  2.2729
   72MOL   H19320215   0.782   3.110   7.911  0.3484  0.3957  4.5386
   72MOL   H19420216   0.870   3.340   7.853  0.0614  1.0926 -1.5140
   72MOL   H19520217   0.663   3.529   7.746 -0.2971 -1.2191  0.2784
   72MOL   H19620218   0.492   3.421   7.813  1.2108  0.8745  0.5237
   72MOL   H19720219   0.317   3.243   7.839 -0.1854  1.1838  1.0886
   72MOL   C19820220   0.867   3.578   7.726 -0.2595 -0.1330  0.1388
   72MOL   C19920221   0.833   3.704   7.665 -0.4091  0.2316 -0.7739
   72MOL   C20020222   0.931   3.786   7.614  0.0588 -1.2355  0.3681
   72MOL   C20120223   1.069   3.750   7.620 -0.3759 -0.3848 -0.2224
   72MOL   C20220224   1.163   3.835   7.549  0.2718 -0.3183 -0.0995
   72MOL   C20320225   1.292   3.864   7.582 -0.3259 -0.2321  0.9811
   72MOL   C20420226   1.107   3.631   7.685 -0.4345 -0.2278 -0.1521
   72MOL   C20520227   1.008   3.547   7.736 -0.2393  0.1322  0.5496
   72MOL   H20620228   0.731   3.738   7.657 -0.7569 -0.8285 -0.8631
   72MOL   H20720229   0.898   3.877   7.564  1.4243 -0.7690  0.2695
   72MOL   H20820230   1.130   3.880   7.456  0.1904  0.8973  0.5054
   72MOL   H20920231   1.330   3.828   7.676  1.0950  0.5759  0.7182
   72MOL   H21020232   1.210   3.599   7.693 -0.2481  0.2922 -0.4944
   72MOL   H21120233   1.035   3.453   7.781 -0.3804 -0.3182 -0.2800
   72MOL   C21220234   1.386   3.939   7.505  0.1948  0.5553 -0.5366
   72MOL   C21320235   1.375   3.950   7.365 -0.6536  0.3680 -0.5719
   72MOL   C21420236   1.456   4.031   7.288 -0.1115  0.7314 -0.4560
   72MOL   C21520237   1.569   4.095   7.346 -0.2934 -0.2854  0.3487
   72MOL   C21620238   1.666   4.173   7.275 -0.0160 -0.5788  0.2319
   72MOL   C21720239   1.672   4.175   7.139  0.4293  0.2978 -0.9322
   72MOL   C21820240   1.594   4.075   7.484  0.2564  0.6473 -0.3053
   72MOL   C21920241   1.500   3.997   7.560 -0.2415  0.1450  0.4259
   72MOL   H22020242   1.297   3.897   7.313 -1.5220 -0.7216  1.7576
   72MOL   H22120243   1.426   4.046   7.185 -0.8353  0.5656 -0.2715
   72MOL   H22220244   1.739   4.229   7.332  0.2043 -0.6064 -0.0196
   72MOL   H22320245   1.598   4.118   7.085  1.5024 -0.5272 -1.5654
   72MOL   H22420246   1.677   4.125   7.531  1.7492  1.0917 -3.2790
   72MOL   H22520247   1.511   3.972   7.664  0.7634 -0.8101  0.1129
   72MOL   C22620248   1.758   4.255   7.061 -0.4643  0.0363  0.1917
   72MOL   C22720249   1.821   4.366   7.117  0.8717  0.1591  0.2924
   72MOL   C22820250   1.902   4.443   7.036  0.5495 -0.4861 -0.7165
   72MOL   C22920251   1.926   4.410   6.903  0.1914 -0.1455  0.2308
   72MOL   C23020252   2.013   4.496   6.822  0.0172 -0.1460 -0.1066
   72MOL   C23120253   2.062   4.620   6.840  0.1500  0.1233  0.2212
   72MOL   C23220254   1.889   4.282   6.861 -0.2258 -0.3478  0.2462
   72MOL   C23320255   1.805   4.205   6.940 -0.6806 -0.1019 -0.1563
   72MOL   H23420256   1.800   4.383   7.222  0.6290  0.3897  0.2105
   72MOL   H23520257   1.942   4.532   7.082  1.2100 -0.7240 -0.8355
   72MOL   H23620258   2.051   4.453   6.730 -0.2845 -2.7118  0.9372
   72MOL   H23720259   2.038   4.676   6.929  1.2266  0.8429  0.0690
   72MOL   H23820260   1.919   4.248   6.763 -1.5096  0.1270 -0.3226
   72MOL   H23920261   1.774   4.107   6.906  0.4110 -0.4240 -0.2354
   72MOL   C24020262   2.149   4.692   6.745 -0.0563  0.4473 -1.2333
   72MOL   C24120263   2.153   4.832   6.743 -0.1686  0.0011  0.0096
   72MOL   C24220264   2.227   4.909   6.647 -0.5360  0.0056 -0.0976
   72MOL   C24320265   2.305   4.839   6.555 -0.0047  0.1845 -0.2940
   72MOL   C24420266   2.386   4.918   6.466 -0.2022 -0.5977  0.0233
   72MOL   C24520267   2.482   4.883   6.376 -0.0636 -1.2061  0.4353
   72MOL   C24620268   2.306   4.699   6.551 -0.0359  0.2133  0.4359
   72MOL   C24720269   2.222   4.629   6.644 -0.0751 -0.3672 -0.2008
   72MOL   H24820270   2.094   4.889   6.813 -1.8774 -0.8042 -0.7410
   72MOL   H24920271   2.221   5.017   6.645 -0.5325  0.0501  1.3422
   72MOL   H25020272   2.386   5.025   6.477  2.6947 -0.4359 -1.1600
   72MOL   H25120273   2.502   4.779   6.356 -1.9820 -1.1289 -2.1791
   72MOL   H25220274   2.362   4.651   6.472  2.2499  0.6382  1.7369
   72MOL   H25320275   2.228   4.521   6.644 -1.9166 -0.5007  0.4393
   72MOL   C25420276   2.569   4.975   6.302  0.5898 -0.4438 -0.2280
   72MOL   C25520277   2.691   4.922   6.262  0.4070 -0.1857 -0.2679
   72MOL   C25620278   2.775   5.005   6.186  0.2907  0.2902 -0.4183
   72MOL   C25720279   2.743   5.133   6.148  0.2391  0.5317 -0.1190
   72MOL   C25820280   2.834   5.226   6.087 -0.9758  0.1247  0.9259
   72MOL   C25920281   2.926   5.215   5.987  0.0639  0.4254  0.2646
   72MOL   C26020282   2.622   5.183   6.191  0.5035  0.2003  0.0889
   72MOL   C26120283   2.537   5.109   6.272  0.3414  0.1693 -0.0784
   72MOL   H26220284   2.721   4.819   6.278  0.8960  0.1360  0.9515
   72MOL   H26320285   2.868   4.957   6.157  0.4431  0.7184 -0.6394
   72MOL   H26420286   2.839   5.323   6.134  0.2751  1.3336 -1.5806
   72MOL   H26520287   2.978   5.309   5.972 -0.9566  1.4066  2.6361
   72MOL   H26620288   2.584   5.281   6.167 -3.8415 -1.9133 -2.2093
   72MOL   H26720289   2.442   5.146   6.307  0.4969  0.8394 -0.3653
   72MOL   C26820290   2.952   5.100   5.899  0.6978 -0.0599 -0.4000
   72MOL   C26920291   2.844   5.023   5.859 -0.5962 -0.5713  0.7764
   72MOL   C27020292   2.867   4.897   5.796 -0.0130 -0.4302 -0.7448
   72MOL   C27120293   2.997   4.858   5.760 -0.1644 -0.0782  0.1990
   72MOL   C27220294   3.002   4.727   5.689 -0.6593  0.6246  0.3201
   72MOL   C27320295   3.112   4.666   5.662 -0.0731  0.8060 -0.7264
   72MOL   C27420296   3.113   4.943   5.786 -0.3056  0.3832 -0.2165
   72MOL   C27520297   3.088   5.063   5.862  0.4940 -0.6236 -0.5320
   72MOL   H27620298   2.744   5.049   5.889 -0.8064 -0.1979 -0.2438
   72MOL   H27720299   2.787   4.833   5.763  1.2718 -1.8410 -1.1928
   72MOL   H27820300   2.908   4.690   5.650  0.6061 -1.2623 -0.9801
   72MOL   H27920301   3.209   4.701   5.696  0.3987 -2.3934  1.4711
   72MOL   H28020302   3.210   4.918   5.745 -0.4677  2.3557 -1.8839
   72MOL   H28120303   3.167   5.134   5.883 -1.4467  1.3127  0.4341
   72MOL   H28220304   3.109   4.574   5.605 -0.5503 -0.5987  1.4798
   73MOL     C120305   0.731   3.510   3.282 -0.3908  0.5170 -0.0929
   73MOL     C220306   0.668   3.454   3.171 -0.0049  0.0926 -0.2726
   73MOL     C320307   0.534   3.472   3.151 -0.6306  0.5675 -0.2157
   73MOL     C420308   0.463   3.564   3.234 -0.6037  0.5489 -0.1574
   73MOL     C520309   0.315   3.587   3.211 -0.5894  0.2669  0.4007
   73MOL     C620310   0.229   3.506   3.145 -1.1288  0.1685 -0.0201
   73MOL     C720311   0.533   3.632   3.332 -0.0701 -0.6374 -0.1821
   73MOL     C820312   0.669   3.601   3.364  0.4860  0.6518  0.0401
   73MOL     H920313   0.724   3.377   3.120 -0.1270 -0.4517  0.4114
   73MOL    H1020314   0.491   3.414   3.070 -0.2018  1.4307 -1.0706
   73MOL    H1120315   0.267   3.678   3.241 -2.3106 -0.5106  0.0679
   73MOL    H1220316   0.262   3.410   3.109  0.0147 -0.1019  1.6805
   73MOL    H1320317   0.483   3.700   3.400 -0.3411 -2.1770  1.1869
   73MOL    H1420318   0.716   3.640   3.453  0.1876 -0.7719  0.8348
   73MOL    H1520319   0.829   3.477   3.314  0.5097  2.8944 -0.2800
   73MOL    C1620320   0.090   3.535   3.123 -0.6990  0.8995  0.3761
   73MOL    C1720321   0.004   3.428   3.076 -0.2173  0.1477 -0.1342
   73MOL    C1820322   8.009   3.455   3.066 -0.6472  0.4437 -0.2297
   73MOL    C1920323   7.957   3.581   3.080  0.0108 -0.2518  0.1336
   73MOL    C2020324   7.813   3.606   3.072 -0.3386  0.1685 -0.3411
   73MOL    C2120325   7.720   3.508   3.055 -0.4495  0.5050 -0.4956
   73MOL    C2220326   8.045   3.685   3.119 -0.0206  0.3234  0.3350
   73MOL    C2320327   0.035   3.663   3.148  0.6999 -0.4101  0.0211
   73MOL    H2420328   0.041   3.328   3.056 -4.0232 -0.9551 -2.1207
   73MOL    H2520329   7.948   3.367   3.052 -1.2029  0.9819 -1.2856
   73MOL    H2620330   7.780   3.709   3.075 -0.2098  0.2151 -0.4668
   73MOL    H2720331   7.761   3.409   3.044  3.0077  1.6848  0.9150
   73MOL    H2820332   8.013   3.787   3.135 -1.3785  0.3356 -2.3294
   73MOL    H2920333   0.098   3.749   3.164 -0.7206  0.8682 -1.1800
   73MOL    C3020334   7.567   3.509   3.056 -0.2027 -0.3311 -0.0954
   73MOL    C3120335   7.495   3.392   3.043 -0.0082  0.2005 -0.3346
   73MOL    C3220336   7.359   3.393   3.025 -0.7155  0.0436  0.6527
   73MOL    C3320337   7.290   3.518   3.029  0.2218 -0.2067 -0.4034
   73MOL    C3420338   7.143   3.531   3.015  0.2243 -0.4915 -0.1462
   73MOL    C3520339   7.059   3.429   3.029 -0.3905 -0.4606  0.6925
   73MOL    C3620340   7.364   3.638   3.058 -0.0098  0.0496  0.5534
   73MOL    C3720341   7.499   3.635   3.060 -0.3131 -0.2984 -0.4085
   73MOL    H3820342   7.550   3.300   3.042 -1.4606 -0.6866 -0.3531
   73MOL    H3920343   7.308   3.301   3.002 -0.0186  0.0442 -0.9834
   73MOL    H4020344   7.103   3.626   2.985 -3.8859 -2.1042 -0.0594
   73MOL    H4120345   7.099   3.333   3.057 -1.4465 -1.4146 -0.9600
   73MOL    H4220346   7.317   3.735   3.062  0.6874  0.4417 -0.5368
   73MOL    H4320347   7.552   3.729   3.071 -0.0823 -0.7997  3.2333
   73MOL    C4420348   6.907   3.431   3.012  0.5162 -0.2819 -0.3028
   73MOL    C4520349   6.836   3.315   2.983 -0.6446  0.3651 -0.1737
   73MOL    C4620350   6.698   3.308   2.965  0.1646  0.3827 -0.2910
   73MOL    C4720351   6.625   3.427   2.984 -0.2725  0.4765 -0.1656
   73MOL    C4820352   6.481   3.435   2.978 -0.3625  0.8306 -0.8966
   73MOL    C4920353   6.404   3.334   2.943  0.4016  0.0267 -0.5915
   73MOL    C5020354   6.697   3.545   3.007 -0.4147  0.8663 -0.0489
   73MOL    C5120355   6.833   3.549   3.015 -0.3925 -0.3310 -0.5183
   73MOL    H5220356   6.890   3.221   2.982 -0.2328  0.6024 -0.5990
   73MOL    H5320357   6.644   3.219   2.936 -0.4436  0.3344  0.9673
   73MOL    H5420358   6.445   3.534   3.003 -2.0797 -0.1775  0.7082
   73MOL    H5520359   6.451   3.238   2.929  0.0558 -0.3666  0.8321
   73MOL    H5620360   6.636   3.635   3.009 -1.8952 -0.1348  2.3503
   73MOL    H5720361   6.889   3.637   3.042  0.0662 -0.6217 -0.5261
   73MOL    C5820362   6.263   3.346   2.917 -0.0677  0.1542 -0.0748
   73MOL    C5920363   6.191   3.469   2.899  0.1046  0.1032  0.8528
   73MOL    C6020364   6.056   3.464   2.869  0.4056  0.0092  0.2821
   73MOL    C6120365   5.988   3.336   2.847  0.3351  0.0757  0.6030
   73MOL    C6220366   5.848   3.325   2.799 -0.2889 -0.2470 -0.5629
   73MOL    C6320367   5.759   3.421   2.766  0.9752  0.5072  0.2101
   73MOL    C6420368   6.061   3.218   2.859 -0.2908 -0.1398 -0.5607
   73MOL    C6520369   6.201   3.224   2.883  0.2105  0.3161  0.1516
   73MOL    H6620370   6.242   3.563   2.916  0.6663 -0.2039  0.8472
   73MOL    H6720371   6.005   3.558   2.849 -1.1558 -1.1409 -1.2960
   73MOL    H6820372   5.812   3.224   2.793  1.3561 -0.7563 -2.2183
   73MOL    H6920373   5.783   3.526   2.761 -1.3200  1.0603  0.2624
   73MOL    H7020374   6.010   3.128   2.828 -1.0326 -0.1913  0.7927
   73MOL    H7120375   6.266   3.138   2.885  0.5443  0.5852  1.1242
   73MOL    C7220376   5.626   3.387   2.702 -0.9095 -0.0691  0.5830
   73MOL    C7320377   5.515   3.464   2.732  0.2433 -0.0541 -0.2371
   73MOL    C7420378   5.393   3.435   2.674  0.9195 -0.0938  0.6339
   73MOL    C7520379   5.368   3.329   2.587  0.0716 -0.7320 -0.5995
   73MOL    C7620380   5.234   3.307   2.519  0.3820 -0.5195  0.5253
   73MOL    C7720381   5.123   3.377   2.537 -0.7035  0.1941 -0.6163
   73MOL    C7820382   5.479   3.238   2.568 -0.0762 -0.2747 -0.4748
   73MOL    C7920383   5.605   3.273   2.619 -0.1304  0.2782  1.2250
   73MOL    H8020384   5.521   3.553   2.793 -1.1643 -1.0706  1.4146
   73MOL    H8120385   5.310   3.498   2.702  1.0696  0.9558 -1.1818
   73MOL    H8220386   5.235   3.227   2.446 -0.0725  0.3057 -0.3903
   73MOL    H8320387   5.115   3.461   2.604  2.8604  1.4544 -1.6643
   73MOL    H8420388   5.470   3.150   2.506 -2.4186 -2.5092  2.8476
   73MOL    H8520389   5.691   3.210   2.606 -0.6445  0.1169 -1.8288
   73MOL    C8620390   4.995   3.335   2.486  0.5115  0.2905 -0.5787
   73MOL    C8720391   4.976   3.239   2.389  0.6822  0.0685  0.1010
   73MOL    C8820392   4.846   3.201   2.338  0.0942  0.0392 -0.3787
   73MOL    C8920393   4.737   3.261   2.392 -0.4022  1.0174  0.0236
   73MOL    C9020394   4.607   3.235   2.338  0.1247  0.5644  0.0619
   73MOL    C9120395   4.487   3.282   2.385  0.4084  0.2493  0.5270
   73MOL    C9220396   4.749   3.352   2.501  0.6469  0.1443 -0.1448
   73MOL    C9320397   4.878   3.390   2.549 -0.2019 -0.5596  0.2472
   73MOL    H9420398   5.068   3.195   2.354  2.2344  3.0991  0.1526
   73MOL    H9520399   4.833   3.140   2.250 -3.3697  0.2563 -0.0870
   73MOL    H9620400   4.603   3.170   2.252 -3.1132  0.9855 -0.1842
   73MOL    H9720401   4.475   3.353   2.466 -1.1666 -1.3650  1.7607
   73MOL    H9820402   4.659   3.392   2.546 -1.3666 -1.7319 -2.3653
   73MOL    H9920403   4.891   3.461   2.630 -2.5417  0.2249 -0.0283
   73MOL   C10020404   4.355   3.236   2.327 -0.2652  0.2899  0.5302
   73MOL   C10120405   4.343   3.140   2.223 -0.2999  0.2458 -0.3966
   73MOL   C10220406   4.219   3.094   2.178  0.0298  0.0562  0.4508
   73MOL   C10320407   4.107   3.147   2.233 -0.1549  0.0670  0.2391
   73MOL   C10420408   3.974   3.102   2.184 -0.2329  0.1461 -0.2505
   73MOL   C10520409   3.948   3.006   2.097 -0.1973  0.2368  0.3549
   73MOL   C10620410   4.110   3.247   2.326  0.1737 -0.4583 -0.8071
   73MOL   C10720411   4.232   3.286   2.376  0.7839 -0.0865 -0.2275
   73MOL   H10820412   4.429   3.097   2.174 -1.2343  0.3057 -2.1261
   73MOL   H10920413   4.223   3.011   2.109 -0.1181 -0.6273  1.2588
   73MOL   H11020414   3.891   3.155   2.229  0.5860  2.6359 -1.5845
   73MOL   H11120415   4.024   2.944   2.053 -0.5450 -0.6272  0.9458
   73MOL   H11220416   4.022   3.298   2.363  0.3828 -1.2801  0.8843
   73MOL   H11320417   4.241   3.356   2.457 -1.0258  1.0972 -0.9900
   73MOL   C11420418   3.822   2.974   2.045  0.3014  0.0923 -0.1128
   73MOL   C11520419   3.715   3.064   2.049  0.9813  0.7793  0.2549
   73MOL   C11620420   3.594   3.033   1.980 -1.2240 -0.2807 -0.2543
   73MOL   C11720421   3.588   2.909   1.910 -0.2104  0.5489  0.1798
   73MOL   C11820422   3.458   2.879   1.843 -0.2252 -0.0694 -0.3094
   73MOL   C11920423   3.439   2.788   1.745  0.3690  0.0632 -0.1532
   73MOL   C12020424   3.693   2.814   1.913 -0.4080 -0.1478 -0.3221
   73MOL   C12120425   3.806   2.842   1.985  0.5344  0.5988 -0.1459
   73MOL   H12220426   3.717   3.166   2.085 -2.1081  0.9566  0.0078
   73MOL   H12320427   3.504   3.091   1.993 -1.0997 -0.1814  0.1490
   73MOL   H12420428   3.379   2.940   1.885  0.0906  1.9336 -2.4753
   73MOL   H12520429   3.519   2.719   1.723  1.5686  1.4471 -0.2125
   73MOL   H12620430   3.679   2.717   1.868 -2.1480 -0.7503  1.4546
   73MOL   H12720431   3.888   2.772   1.987  1.2868  1.4523 -0.3672
   73MOL   C12820432   3.319   2.752   1.659 -0.0929  0.0283  0.1476
   73MOL   C12920433   3.198   2.820   1.687  0.2288  0.6131  0.2024
   73MOL   C13020434   3.081   2.792   1.611 -0.1112 -0.0541 -0.0601
   73MOL   C13120435   3.087   2.696   1.505 -0.5201 -0.0652  0.3426
   73MOL   C13220436   2.969   2.671   1.422  0.1568  0.0142 -0.1533
   73MOL   C13320437   2.968   2.598   1.311 -0.4658 -0.3571  0.4356
   73MOL   C13420438   3.205   2.621   1.482 -0.5184 -0.0726 -0.1515
   73MOL   C13520439   3.320   2.651   1.559 -0.2870  0.5478 -0.6493
   73MOL   H13620440   3.191   2.897   1.762 -1.4441  0.1919  0.5052
   73MOL   H13720441   2.995   2.853   1.635  0.5610  1.3266 -1.0893
   73MOL   H13820442   2.883   2.722   1.464 -0.7455 -1.3337 -0.3315
   73MOL   H13920443   3.063   2.564   1.273  0.4075  1.3560  1.0498
   73MOL   H14020444   3.225   2.560   1.395 -0.2066  1.6518 -1.3113
   73MOL   H14120445   3.414   2.602   1.536  0.5676  0.7642  2.1595
   73MOL   C14220446   2.860   2.565   1.227 -0.5010  0.0897  0.4728
   73MOL   C14320447   2.878   2.462   1.129 -0.4105 -0.4103 -0.2389
   73MOL   C14420448   2.771   2.411   1.053  0.4200 -0.4549 -0.0461
   73MOL   C14520449   2.638   2.457   1.075  0.1808  0.4056 -0.1541
   73MOL   C14620450   2.523   2.393   1.009 -0.1290 -0.0896  0.0766
   73MOL   C14720451   2.536   2.274   0.936  0.3839  0.4311 -0.1385
   73MOL   C14820452   2.619   2.566   1.157 -0.7758 -0.5743  0.2818
   73MOL   C14920453   2.723   2.612   1.240 -0.2576  0.5299  0.0225
   73MOL   H15020454   2.975   2.423   1.104 -0.5386 -0.2762 -0.9624
   73MOL   H15120455   2.796   2.338   0.978  0.6548  0.3752 -0.7971
   73MOL   H15220456   2.433   2.450   1.022 -1.5338 -3.1006  5.0184
   73MOL   H15320457   2.632   2.224   0.933 -0.3274 -0.9724 -0.0517
   73MOL   H15420458   2.522   2.613   1.169 -0.7334  0.0512 -1.7433
   73MOL   H15520459   2.695   2.687   1.313  1.3393 -0.4204  1.6639
   73MOL   C15620460   2.424   2.209   0.865 -0.1463 -0.7534  0.0890
   73MOL   C15720461   2.289   2.252   0.874 -0.2767  0.3907  0.5139
   73MOL   C15820462   2.185   2.205   0.793  0.2975 -0.0657 -0.6713
   73MOL   C15920463   2.220   2.108   0.695 -0.4007 -0.2367  0.4634
   73MOL   C16020464   2.124   2.047   0.605  0.2328 -0.0948 -0.2172
   73MOL   C16120465   2.026   2.116   0.543 -0.5227  0.4369  0.1632
   73MOL   C16220466   2.351   2.056   0.689 -0.3789  0.0893 -0.7491
   73MOL   C16320467   2.453   2.109   0.775 -1.0384  0.3362  0.0036
   73MOL   H16420468   2.256   2.324   0.947  1.1028 -1.5650  3.1476
   73MOL   H16520469   2.086   2.247   0.799 -0.2069 -1.2107 -0.8969
   73MOL   H16620470   2.131   1.939   0.603 -1.9876 -0.2596 -0.4275
   73MOL   H16720471   2.031   2.222   0.563  0.3545  0.9896 -2.6622
   73MOL   H16820472   2.378   1.987   0.610  0.6849  0.1643 -0.4689
   73MOL   H16920473   2.552   2.071   0.755 -1.5169 -0.7983 -0.3094
   73MOL   C17020474   1.909   2.070   0.467  0.6544  0.3626  0.5349
   73MOL   C17120475   1.814   2.167   0.422  0.0318  0.4771 -0.9952
   73MOL   C17220476   1.686   2.132   0.376 -0.1847  0.3940 -0.8705
   73MOL   C17320477   1.651   1.997   0.360  0.3557  1.3455 -0.3756
   73MOL   C17420478   1.515   1.968   0.319 -0.5276  0.7384  0.1212
   73MOL   C17520479   1.458   1.843   0.291  0.1970 -0.3107 -0.6166
   73MOL   C17620480   1.747   1.894   0.393 -0.1591 -0.1484 -0.0568
   73MOL   C17720481   1.871   1.929   0.453  0.0513  0.1329  0.0156
   73MOL   H17820482   1.839   2.271   0.436  0.5233  0.2652 -0.2620
   73MOL   H17920483   1.606   2.200   0.352  0.1622  0.6552 -1.3055
   73MOL   H18020484   1.455   2.056   0.302  1.5601  2.5859  1.9711
   73MOL   H18120485   1.524   1.758   0.299 -1.0392 -0.9865  3.1789
   73MOL   H18220486   1.711   1.794   0.377  1.4388 -0.7978  0.3521
   73MOL   H18320487   1.942   1.856   0.489  0.3789  0.3505 -0.1856
   73MOL   C18420488   1.322   1.815   0.249 -0.5905  0.2752  0.0625
   73MOL   C18520489   1.278   1.681   0.245  0.6352 -0.2457 -0.3614
   73MOL   C18620490   1.143   1.655   0.215 -0.3707  0.1107  0.1166
   73MOL   C18720491   1.053   1.760   0.184  0.5982  0.2663  0.0518
   73MOL   C18820492   0.918   1.729   0.135  0.0014 -0.3198  0.0661
   73MOL   C18920493   0.871   1.610   0.101  0.1111 -0.4650  0.2642
   73MOL   C19020494   1.099   1.893   0.193 -0.1579  0.2882 -0.1756
   73MOL   C19120495   1.230   1.922   0.228 -0.1022 -0.2652 -0.0570
   73MOL   H19220496   1.344   1.600   0.269  0.1185 -0.4566  0.3821
   73MOL   H19320497   1.113   1.552   0.210  1.5792 -0.5136  0.8493
   73MOL   H19420498   0.853   1.815   0.121  1.9740  0.9950 -1.2761
   73MOL   H19520499   0.917   1.515   0.122  0.1873 -0.0328  2.0993
   73MOL   H19620500   1.034   1.976   0.171  0.0173  0.7523  1.0230
   73MOL   H19720501   1.262   2.024   0.221 -2.7888  0.7362  1.5482
   73MOL   C19820502   0.738   1.586   0.033  0.2648 -0.2619 -1.3653
   73MOL   C19920503   0.665   1.687   8.108 -0.9979  0.3944 -0.4837
   73MOL   C20020504   0.532   1.665   8.065 -0.0452  0.2870 -0.3182
   73MOL   C20120505   0.475   1.536   8.076  0.2008  0.6874 -0.4430
   73MOL   C20220506   0.344   1.507   8.002 -0.3341  1.1493  0.4159
   73MOL   C20320507   0.295   1.392   7.957 -0.6104  0.8555 -0.3087
   73MOL   C20420508   0.544   1.431   8.139 -0.5242 -0.4155  0.7297
   73MOL   C20520509   0.673   1.458   0.051  0.2408  0.3021  0.0085
   73MOL   H20620510   0.696   1.789   8.092 -0.6729  0.0350 -2.2341
   73MOL   H20720511   0.474   1.751   8.033  0.5695  0.7249 -0.2656
   73MOL   H20820512   0.280   1.591   7.984 -0.9488 -0.1431 -3.9400
   73MOL   H20920513   0.348   1.299   7.973 -2.3006 -0.3454 -1.4318
   73MOL   H21020514   0.494   1.338   0.013  0.6440 -1.3412 -0.6439
   73MOL   H21120515   0.716   1.384   0.117  0.4252 -1.1945 -1.7794
   73MOL   C21220516   0.165   1.381   7.897 -0.2695  0.5351 -0.2763
   73MOL   C21320517   0.134   1.261   7.832 -0.2279 -0.0610  0.7823
   73MOL   C21420518   0.003   1.240   7.790  0.4950  0.7741  0.0904
   73MOL   C21520519   8.045   1.329   7.812  0.0910 -0.5479  0.2085
   73MOL   C21620520   7.898   1.307   7.783 -0.1376 -0.1907 -0.5365
   73MOL   C21720521   7.851   1.188   7.747 -0.4948  0.2894 -0.3630
   73MOL   C21820522   8.081   1.454   7.863 -0.0453  0.5074  0.5850
   73MOL   C21920523   0.065   1.475   7.904  0.0382 -1.1499 -0.1829
   73MOL   H22020524   0.209   1.183   7.832  1.3797  1.4609 -0.0756
   73MOL   H22120525   8.117   1.142   7.755  0.2471  0.3422  1.4729
   73MOL   H22220526   7.831   1.390   7.793  0.9975  0.5566  1.1959
   73MOL   H22320527   7.914   1.101   7.737 -1.1538 -0.1572 -0.6698
   73MOL   H22420528   8.007   1.533   7.868 -4.0324 -3.0051  0.1388
   73MOL   H22520529   0.080   1.574   7.945  0.9476 -1.0442 -0.7401
   73MOL   C22620530   7.708   1.159   7.722 -1.0717  0.2962 -0.4593
   73MOL   C22720531   7.660   1.027   7.742  0.0981  0.0698 -0.0103
   73MOL   C22820532   7.524   1.002   7.726  0.1277 -0.1081 -0.3241
   73MOL   C22920533   7.431   1.099   7.684  0.2238  0.2931  0.4509
   73MOL   C23020534   7.291   1.066   7.665  0.4005 -0.0683 -0.4980
   73MOL   C23120535   7.187   1.153   7.671 -0.3139  0.1702 -0.5930
   73MOL   C23220536   7.475   1.231   7.670 -0.3033 -0.2285  0.9017
   73MOL   C23320537   7.614   1.257   7.696  0.5429  0.4400 -0.1040
   73MOL   H23420538   7.727   0.947   7.770 -0.6529 -1.2516 -1.8379
   73MOL   H23520539   7.482   0.903   7.740 -0.1334 -0.1547 -1.3509
   73MOL   H23620540   7.268   0.964   7.637 -0.9124  0.4163 -1.2062
   73MOL   H23720541   7.210   1.256   7.692 -0.3966  0.4087 -1.6475
   73MOL   H23820542   7.411   1.314   7.647  1.0155  1.0897  1.8713
   73MOL   H23920543   7.648   1.359   7.682  1.3526  0.2742  0.6136
   73MOL   C24020544   7.047   1.125   7.650  0.0709 -0.4979 -0.5848
   73MOL   C24120545   6.954   1.213   7.711 -0.5729  0.8756  1.0676
   73MOL   C24220546   6.817   1.189   7.688  0.1883  0.2363  0.1209
   73MOL   C24320547   6.766   1.085   7.608  0.4029 -0.5660  0.3342
   73MOL   C24420548   6.631   1.065   7.577  0.3294  0.0490 -0.2457
   73MOL   C24520549   6.529   1.153   7.609 -0.1207 -0.0726  0.1902
   73MOL   C24620550   6.863   1.013   7.537 -0.0978  0.0532 -0.0989
   73MOL   C24720551   6.998   1.030   7.561  0.2317  0.5017  0.0967
   73MOL   H24820552   6.978   1.287   7.786 -0.8382  0.4857  1.5377
   73MOL   H24920553   6.738   1.244   7.739 -2.2268 -2.3051 -0.7484
   73MOL   H25020554   6.601   0.971   7.534 -0.2540 -0.5845  1.4866
   73MOL   H25120555   6.561   1.245   7.655  0.7044 -0.1384 -0.2304
   73MOL   H25220556   6.832   0.938   7.466  0.6216  1.6123 -2.1147
   73MOL   H25320557   7.065   0.967   7.505  3.0419  3.0895  0.4144
   73MOL   C25420558   6.385   1.133   7.587 -0.0873 -0.0961  0.5561
   73MOL   C25520559   6.331   1.008   7.544  0.0871 -0.0483 -0.0973
   73MOL   C25620560   6.193   1.000   7.515 -0.1982  0.3113  0.8908
   73MOL   C25720561   6.109   1.113   7.525  0.0441  0.9415 -0.6399
   73MOL   C25820562   5.969   1.117   7.479  0.1427 -0.3351 -0.5553
   73MOL   C25920563   5.876   1.023   7.497 -0.0017 -0.4042 -0.1379
   73MOL   C26020564   6.166   1.233   7.576  0.0293 -0.0990  0.0329
   73MOL   C26120565   6.302   1.244   7.609  0.1051 -0.3753 -0.0714
   73MOL   H26220566   6.390   0.918   7.536 -2.1508 -1.6129  0.5764
   73MOL   H26320567   6.156   0.907   7.474 -0.4554  0.4536  0.7954
   73MOL   H26420568   5.933   1.205   7.428 -4.1368 -2.9895 -2.4409
   73MOL   H26520569   5.780   1.056   7.460  0.4888 -0.2151 -1.2619
   73MOL   H26620570   6.096   1.315   7.584 -1.2498 -1.1308 -0.6470
   73MOL   H26720571   6.347   1.336   7.644 -1.8981  0.6705 -0.1611
   73MOL   C26820572   5.888   0.901   7.574  0.6907 -0.0018  0.2073
   73MOL   C26920573   5.974   0.872   7.680  0.8945 -0.2475 -0.3795
   73MOL   C27020574   5.967   0.754   7.747 -0.5802  0.4395  0.4915
   73MOL   C27120575   5.882   0.651   7.706  0.6563 -0.4144  0.1734
   73MOL   C27220576   5.869   0.534   7.794  0.0884  0.7721 -0.1663
   73MOL   C27320577   5.768   0.445   7.771  0.5573  0.3869 -0.0097
   73MOL   C27420578   5.807   0.675   7.587  0.0689 -0.8560  0.0283
   73MOL   C27520579   5.809   0.801   7.523 -0.0595 -0.1809  0.0721
   73MOL   H27620580   6.046   0.943   7.720  2.0968  0.0087 -2.8703
   73MOL   H27720581   6.039   0.739   7.827  1.8534 -1.4328 -1.9649
   73MOL   H27820582   5.935   0.524   7.879 -0.4208  1.8676  0.3724
   73MOL   H27920583   5.698   0.454   7.689  0.4074  0.5770  0.1378
   73MOL   H28020584   5.741   0.603   7.542 -0.5193 -0.6311  0.5294
   73MOL   H28120585   5.740   0.805   7.440 -0.0432 -0.2788  0.0546
   73MOL   H28220586   5.742   0.362   7.834 -1.5515 -1.0335 -2.6317
   74MOL     C120587   7.981   7.699   6.849  0.2187 -0.2046  0.0332
   74MOL     C220588   7.919   7.774   6.746 -0.4131 -0.5672 -0.3552
   74MOL     C320589   7.960   7.902   6.708 -0.6357  0.2721  0.5638
   74MOL     C420590   8.069   7.962   6.772 -0.0377 -0.4824  0.2219
   74MOL     C520591   8.116   8.093   6.721 -0.6937 -0.4318 -0.5471
   74MOL     C620592   0.053   0.024   6.796 -0.6161 -0.0253 -0.0478
   74MOL     C720593   8.125   7.893   6.888  0.3315  0.5891 -0.8837
   74MOL     C820594   8.074   7.763   6.923  1.0040 -0.6676  0.0849
   74MOL     H920595   7.830   7.727   6.708 -0.9599  0.1121  0.0829
   74MOL    H1020596   7.907   7.951   6.628 -1.3571 -0.5448  0.5352
   74MOL    H1120597   8.087   8.113   6.619 -2.4674 -0.8498 -0.1315
   74MOL    H1220598   0.076   8.132   6.895 -1.0427 -3.0861 -1.0200
   74MOL    H1320599   0.063   7.937   6.943  0.0859 -0.4750  0.3465
   74MOL    H1420600   8.112   7.706   7.006  0.7937 -4.0146 -2.0361
   74MOL    H1520601   7.940   7.601   6.867  0.0442 -0.0027  0.7501
   74MOL    C1620602   0.122   0.154   6.764  0.4373  0.1669  0.3082
   74MOL    C1720603   0.114   0.209   6.634 -0.9030 -0.3072  0.0217
   74MOL    C1820604   0.174   0.333   6.603 -0.5636  0.3019 -0.1237
   74MOL    C1920605   0.239   0.403   6.700 -0.5921  0.7349  0.2085
   74MOL    C2020606   0.322   0.523   6.679  0.6596 -0.3100 -0.1829
   74MOL    C2120607   0.341   0.585   6.560 -0.2800 -0.0581  0.0984
   74MOL    C2220608   0.236   0.352   6.834 -0.6575  0.5784  0.7020
   74MOL    C2320609   0.179   0.226   6.866  0.0523 -0.8858 -0.2640
   74MOL    H2420610   0.054   0.159   6.560  1.0973 -0.3803 -1.5843
   74MOL    H2520611   0.166   0.365   6.500  0.4896 -0.2674 -0.3918
   74MOL    H2620612   0.371   0.564   6.766 -1.6172  0.9159  0.5708
   74MOL    H2720613   0.302   0.541   6.470 -0.6816 -0.8593  0.6506
   74MOL    H2820614   0.282   0.402   6.918 -1.2018  0.6402  0.9586
   74MOL    H2920615   0.181   0.187   6.967 -0.3594  0.4826  0.2908
   74MOL    C3020616   0.423   0.702   6.541 -0.6484  0.0220 -0.1321
   74MOL    C3120617   0.505   0.756   6.637  0.0739  0.1592 -0.1696
   74MOL    C3220618   0.592   0.859   6.596  0.5615 -0.1859 -0.1501
   74MOL    C3320619   0.591   0.920   6.470 -0.2653  0.6203  0.3768
   74MOL    C3420620   0.679   1.027   6.423 -0.3602 -0.1422  0.6482
   74MOL    C3520621   0.762   1.092   6.499  0.1880  0.2438 -0.0623
   74MOL    C3620622   0.503   0.862   6.378  0.5889 -0.6093  0.2747
   74MOL    C3720623   0.420   0.758   6.413  0.1094 -0.3949  0.3308
   74MOL    H3820624   0.513   0.716   6.737 -3.9219 -0.7445 -0.1075
   74MOL    H3920625   0.659   0.900   6.670 -0.3272  0.9110  0.0708
   74MOL    H4020626   0.671   1.038   6.316 -0.8359 -0.6496  0.6328
   74MOL    H4120627   0.767   1.072   6.605 -0.3179 -1.9354 -0.4323
   74MOL    H4220628   0.493   0.901   6.278 -1.1383 -1.9071 -0.0851
   74MOL    H4320629   0.363   0.721   6.330  0.3018  2.6745 -1.2645
   74MOL    C4420630   0.851   1.205   6.459  0.8968  0.3406  0.0304
   74MOL    C4520631   0.831   1.270   6.336 -0.2760 -0.1460  0.5518
   74MOL    C4620632   0.927   1.364   6.296  0.0772 -0.4111 -0.7127
   74MOL    C4720633   1.037   1.400   6.377  0.1673 -0.0947 -0.4164
   74MOL    C4820634   1.104   1.526   6.340 -0.2642  0.0239  0.4003
   74MOL    C4920635   1.190   1.601   6.416  0.5780  0.1601  0.0195
   74MOL    C5020636   1.058   1.332   6.501 -0.5864 -1.0385 -0.2476
   74MOL    C5120637   0.973   1.228   6.535 -0.1666 -0.3897 -0.7719
   74MOL    H5220638   0.745   1.251   6.273 -0.2747  1.9768 -0.1256
   74MOL    H5320639   0.903   1.414   6.204  2.0995 -0.7859 -1.4713
   74MOL    H5420640   1.073   1.564   6.244 -0.0797 -2.4796 -0.6934
   74MOL    H5520641   1.208   1.573   6.519 -0.8982  0.2674  0.3200
   74MOL    H5620642   1.141   1.361   6.565 -1.9503  0.3388  0.9600
   74MOL    H5720643   0.999   1.162   6.616  3.5919  1.8109 -0.0423
   74MOL    C5820644   1.252   1.729   6.378 -0.0120 -0.2668  0.7734
   74MOL    C5920645   1.339   1.787   6.476  0.4113 -0.4132  0.1922
   74MOL    C6020646   1.419   1.894   6.448 -0.3876  0.6166 -0.3380
   74MOL    C6120647   1.429   1.942   6.317  1.2233  0.7689  0.2881
   74MOL    C6220648   1.516   2.048   6.276 -0.2692 -0.4663 -0.0847
   74MOL    C6320649   1.639   2.057   6.324  0.1660 -0.0732  0.4015
   74MOL    C6420650   1.335   1.893   6.224 -0.2998 -0.6105  0.3683
   74MOL    C6520651   1.248   1.789   6.249 -0.1771  0.8965 -0.4404
   74MOL    H6620652   1.344   1.742   6.574  0.3062 -0.3227  0.2390
   74MOL    H6720653   1.479   1.932   6.529 -0.7701 -1.5277  0.9992
   74MOL    H6820654   1.467   2.116   6.208  0.4272  0.0596 -0.0628
   74MOL    H6920655   1.664   1.984   6.399 -0.6784  0.1113  0.8675
   74MOL    H7020656   1.327   1.939   6.126 -0.5055  0.7495  1.0165
   74MOL    H7120657   1.186   1.758   6.167 -1.1878  0.5164  0.4485
   74MOL    C7220658   1.740   2.156   6.295 -0.3997 -0.5521  0.1585
   74MOL    C7320659   1.875   2.119   6.310 -0.0212 -0.7223  0.3396
   74MOL    C7420660   1.976   2.216   6.300 -0.0121 -0.0179  0.6020
   74MOL    C7520661   1.946   2.344   6.242 -0.5112  0.3312 -0.4047
   74MOL    C7620662   2.055   2.427   6.201  0.4531  0.0427 -0.6495
   74MOL    C7720663   2.040   2.559   6.181  0.0825  0.0115  0.0169
   74MOL    C7820664   1.808   2.379   6.225  0.1315 -0.3750 -0.1235
   74MOL    C7920665   1.704   2.289   6.262 -0.3202 -0.7137  0.1959
   74MOL    H8020666   1.900   2.015   6.327 -1.6729 -1.2216 -0.2698
   74MOL    H8120667   2.080   2.187   6.313  0.2416  0.0209 -1.2710
   74MOL    H8220668   2.155   2.390   6.187  0.2747 -0.3822 -0.7899
   74MOL    H8320669   1.944   2.606   6.192  0.3476  0.4333  0.5862
   74MOL    H8420670   1.779   2.478   6.193  0.7846 -0.7302 -1.8309
   74MOL    H8520671   1.599   2.315   6.264 -0.2420 -0.2437 -1.2546
   74MOL    C8620672   2.140   2.658   6.143 -0.3252  0.1177  0.0859
   74MOL    C8720673   2.105   2.779   6.077 -0.1470  0.6511  0.0829
   74MOL    C8820674   2.205   2.866   6.038 -0.0051 -0.1488 -0.4075
   74MOL    C8920675   2.343   2.838   6.052 -0.2689  0.2848  0.3151
   74MOL    C9020676   2.436   2.941   6.016  0.1002 -0.4109  0.3407
   74MOL    C9120677   2.567   2.943   6.033  0.1464  0.4779  0.2879
   74MOL    C9220678   2.376   2.712   6.106 -0.5816 -0.0142 -0.9373
   74MOL    C9320679   2.274   2.621   6.147  0.5046  0.7261 -0.1422
   74MOL    H9420680   2.003   2.808   6.061  0.0818 -0.1294 -3.0562
   74MOL    H9520681   2.178   2.962   5.997  1.4057  0.4738  0.0657
   74MOL    H9620682   2.393   3.032   5.977 -0.6224 -1.4104 -1.2327
   74MOL    H9720683   2.616   2.860   6.081  0.3850 -0.1830 -1.0603
   74MOL    H9820684   2.478   2.684   6.126 -0.0758  1.8890 -0.6958
   74MOL    H9920685   2.304   2.523   6.182 -0.1500  0.7097  0.3802
   74MOL   C10020686   2.668   3.042   5.988  0.6790 -0.0237 -0.3281
   74MOL   C10120687   2.801   3.022   6.029  0.3270  0.9164 -0.1146
   74MOL   C10220688   2.901   3.116   5.989  0.1762 -0.1528 -0.0035
   74MOL   C10320689   2.876   3.228   5.912  0.5398 -0.8092 -0.7385
   74MOL   C10420690   2.974   3.335   5.882  0.6300 -0.8147  0.5443
   74MOL   C10520691   3.089   3.354   5.949  0.3174 -0.7633 -0.1523
   74MOL   C10620692   2.740   3.238   5.863 -0.5634 -0.4420  0.2497
   74MOL   C10720693   2.638   3.153   5.909  0.0068 -0.2194  0.0130
   74MOL   H10820694   2.828   2.930   6.077  2.1564  0.8672 -1.1864
   74MOL   H10920695   3.005   3.107   6.017  0.5902  0.7458 -1.2193
   74MOL   H11020696   2.952   3.397   5.796  0.9844 -3.0177 -1.1577
   74MOL   H11120697   3.106   3.288   6.033  0.3453 -1.3955 -0.6566
   74MOL   H11220698   2.711   3.319   5.798  2.0920  2.0143  2.0037
   74MOL   H11320699   2.534   3.167   5.882  0.2162 -0.0101 -0.6788
   74MOL   C11420700   3.191   3.458   5.918  0.1548 -0.7821  0.4884
   74MOL   C11520701   3.169   3.563   5.824 -0.0595 -0.2455  0.0273
   74MOL   C11620702   3.259   3.670   5.818  0.6183 -0.5264 -0.1948
   74MOL   C11720703   3.383   3.668   5.882 -0.2546 -0.2971 -0.0575
   74MOL   C11820704   3.480   3.777   5.873  0.2965 -0.0535  0.2444
   74MOL   C11920705   3.570   3.818   5.965  0.6613  0.0878 -0.5501
   74MOL   C12020706   3.412   3.552   5.964 -0.5458  0.0223  0.4797
   74MOL   C12120707   3.313   3.456   5.985  0.0327  0.2164 -0.0409
   74MOL   H12220708   3.073   3.574   5.776  0.0481  2.0479  0.3175
   74MOL   H12320709   3.242   3.733   5.732 -0.8095  1.3729  1.4407
   74MOL   H12420710   3.476   3.831   5.779 -0.1156  1.3116  1.0309
   74MOL   H12520711   3.582   3.764   6.059  2.8146 -0.9290 -1.3762
   74MOL   H12620712   3.504   3.539   6.019 -1.0647 -1.7068  0.9731
   74MOL   H12720713   3.335   3.372   6.049  3.4661  2.1108  1.4199
   74MOL   C12820714   3.661   3.933   5.948  0.2038  0.4869 -0.3812
   74MOL   C12920715   3.725   3.960   5.827  0.3251  0.2569 -0.2569
   74MOL   C13020716   3.783   4.081   5.800  0.2381  0.5430 -0.1987
   74MOL   C13120717   3.777   4.190   5.888 -0.3534  0.2667  0.4175
   74MOL   C13220718   3.818   4.325   5.850  1.1587  0.1113 -1.0415
   74MOL   C13320719   3.802   4.374   5.722  0.3097 -0.1143 -0.1220
   74MOL   C13420720   3.716   4.163   6.012 -0.0230  0.5662  0.5625
   74MOL   C13520721   3.656   4.039   6.045  0.4343 -0.0904  0.3159
   74MOL   H13620722   3.731   3.874   5.763 -3.1112 -1.9931  2.2475
   74MOL   H13720723   3.820   4.090   5.699 -1.2192 -1.6670 -0.9535
   74MOL   H13820724   3.857   4.390   5.927  1.5295  0.4095 -1.4765
   74MOL   H13920725   3.785   4.314   5.634  0.9303 -1.5581  0.7244
   74MOL   H14020726   3.699   4.239   6.087 -0.9748  1.7029 -0.7793
   74MOL   H14120727   3.599   4.021   6.135  0.6402  1.9221  0.8522
   74MOL   C14220728   3.805   4.516   5.690  0.7853 -0.6054 -1.2533
   74MOL   C14320729   3.736   4.558   5.579 -0.1514 -0.1597 -1.7256
   74MOL   C14420730   3.707   4.691   5.552  0.3319 -0.3179  0.7755
   74MOL   C14520731   3.740   4.788   5.647  1.0651 -0.1058  0.8920
   74MOL   C14620732   3.699   4.929   5.635 -0.2830  1.0739  0.1527
   74MOL   C14720733   3.579   4.971   5.590  0.6210  0.1219 -0.4501
   74MOL   C14820734   3.810   4.747   5.763 -0.2477  0.4959  0.1583
   74MOL   C14920735   3.849   4.615   5.781  0.1568 -0.0553 -0.4553
   74MOL   H15020736   3.683   4.503   5.503 -3.2677  0.7359 -0.2941
   74MOL   H15120737   3.641   4.719   5.471  0.4290 -1.5405  0.2764
   74MOL   H15220738   3.769   5.005   5.667 -0.1723  0.3805  1.5663
   74MOL   H15320739   3.501   4.902   5.562  1.4129 -0.1297 -2.0981
   74MOL   H15420740   3.830   4.817   5.843 -2.2131 -0.8051  1.8344
   74MOL   H15520741   3.890   4.589   5.877 -0.4726 -3.2176 -0.9813
   74MOL   C15620742   3.543   5.110   5.584  0.4598  0.6626  0.1129
   74MOL   C15720743   3.406   5.136   5.565  0.2056  0.4769 -0.4508
   74MOL   C15820744   3.355   5.266   5.570  0.5831  0.2579  0.7066
   74MOL   C15920745   3.440   5.375   5.593  0.3445  0.1038  0.4388
   74MOL   C16020746   3.397   5.518   5.598  0.5515 -0.0778  0.0472
   74MOL   C16120747   3.268   5.557   5.600 -0.3400  0.0212  0.1381
   74MOL   C16220748   3.579   5.350   5.606  0.1293  0.0833  0.0487
   74MOL   C16320749   3.627   5.221   5.598 -0.8293 -0.4157  0.1060
   74MOL   H16420750   3.333   5.057   5.553 -0.4334  0.8639  0.8168
   74MOL   H16520751   3.250   5.284   5.558  0.6771 -0.4130 -1.3430
   74MOL   H16620752   3.478   5.589   5.594 -0.1940  0.7261 -0.9600
   74MOL   H16720753   3.204   5.471   5.613  1.2838 -0.8249  2.9448
   74MOL   H16820754   3.653   5.429   5.608  0.9037 -0.6052 -0.7782
   74MOL   H16920755   3.734   5.204   5.592 -0.5640 -0.6882  4.1615
   74MOL   C17020756   3.222   5.692   5.584  0.3143 -0.0330 -0.3813
   74MOL   C17120757   3.303   5.808   5.565  0.3988 -0.3227 -0.3715
   74MOL   C17220758   3.243   5.934   5.550  0.1161 -0.6297  0.0085
   74MOL   C17320759   3.105   5.945   5.531  0.5469 -0.0057 -0.0258
   74MOL   C17420760   3.055   6.076   5.503  0.6822 -0.2862 -0.6943
   74MOL   C17520761   2.921   6.110   5.512 -0.2442  0.3740 -0.2296
   74MOL   C17620762   3.025   5.828   5.543  0.2937  0.0083 -0.4036
   74MOL   C17720763   3.085   5.704   5.573  0.0484  0.7585 -0.1884
   74MOL   H17820764   3.409   5.790   5.576  0.0156 -3.0728 -0.8103
   74MOL   H17920765   3.305   6.022   5.547 -1.4947  0.5386  0.6636
   74MOL   H18020766   3.129   6.153   5.491  2.1407 -1.4172  0.8825
   74MOL   H18120767   2.837   6.043   5.523 -0.6408  0.6714 -1.3296
   74MOL   H18220768   2.917   5.831   5.535  0.0864 -2.6009  0.8843
   74MOL   H18320769   3.018   5.620   5.584 -0.0366  0.5848 -1.8706
   74MOL   C18420770   2.872   6.251   5.506  0.0242  0.4923  0.1610
   74MOL   C18520771   2.924   6.331   5.402  0.4641  0.1975  0.2452
   74MOL   C18620772   2.908   6.472   5.409  0.1198  0.9178  0.2016
   74MOL   C18720773   2.833   6.534   5.510  0.0895 -0.8781  0.0656
   74MOL   C18820774   2.814   6.679   5.507 -0.3206  1.2768  0.0568
   74MOL   C18920775   2.715   6.739   5.575  0.2985  0.2472  0.0388
   74MOL   C19020776   2.766   6.445   5.601  0.4411 -0.4136  0.1455
   74MOL   C19120777   2.777   6.305   5.596 -0.2138  0.0545 -0.9069
   74MOL   H19220778   2.999   6.297   5.333 -2.0072  1.5813 -3.2455
   74MOL   H19320779   2.955   6.530   5.330  0.0971  0.6292 -0.0246
   74MOL   H19420780   2.876   6.737   5.441 -0.5051  1.2204 -0.1636
   74MOL   H19520781   2.651   6.687   5.645 -1.2489  1.4248 -0.4811
   74MOL   H19620782   2.713   6.477   5.690  1.0706 -1.4602  0.8977
   74MOL   H19720783   2.739   6.244   5.676  3.2042  1.3133  1.8332
   74MOL   C19820784   2.678   6.883   5.574  0.1616  0.2100 -0.0219
   74MOL   C19920785   2.568   6.915   5.661  0.6399 -0.7797 -0.0748
   74MOL   C20020786   2.533   7.051   5.682  0.4949 -0.3323 -0.2475
   74MOL   C20120787   2.595   7.149   5.606 -0.8309 -0.5485  0.3293
   74MOL   C20220788   2.545   7.289   5.603 -0.1757 -0.0049  0.5991
   74MOL   C20320789   2.468   7.348   5.698  0.4979 -0.2277 -0.9139
   74MOL   C20420790   2.704   7.117   5.520  0.3581 -0.1153  0.0038
   74MOL   C20520791   2.738   6.984   5.496  0.2150  0.2803 -0.2204
   74MOL   H20620792   2.514   6.848   5.727 -1.4950  0.4081 -0.5907
   74MOL   H20720793   2.458   7.078   5.755 -1.1296  0.5641 -2.2005
   74MOL   H20820794   2.572   7.345   5.515 -0.7906 -1.3241 -0.4406
   74MOL   H20920795   2.439   7.289   5.784  0.1731  2.2907  0.7708
   74MOL   H21020796   2.770   7.188   5.471  0.0434 -0.1066 -0.4129
   74MOL   H21120797   2.818   6.964   5.426 -0.1764 -0.3939 -0.4798
   74MOL   C21220798   2.425   7.487   5.714 -0.5092  0.1703 -0.5081
   74MOL   C21320799   2.494   7.595   5.650 -0.0783  0.2554 -0.0347
   74MOL   C21420800   2.465   7.727   5.689 -0.7981 -0.6965 -0.3620
   74MOL   C21520801   2.378   7.764   5.788  0.9706  0.3438  0.2438
   74MOL   C21620802   2.368   7.904   5.831 -0.7373 -0.1268 -0.3745
   74MOL   C21720803   2.298   7.946   5.938 -0.6132  0.1473  0.1262
   74MOL   C21820804   2.306   7.657   5.845 -0.1669  0.1669  0.0589
   74MOL   C21920805   2.325   7.522   5.810 -0.2315  0.3085 -0.2006
   74MOL   H22020806   2.577   7.580   5.582  0.6416  3.2750  0.1302
   74MOL   H22120807   2.534   7.799   5.648 -0.6483 -0.0396  0.9991
   74MOL   H22220808   2.432   7.973   5.777  1.3598 -0.5620  1.4885
   74MOL   H22320809   2.236   7.876   5.991 -0.9191  0.7349  0.5435
   74MOL   H22420810   2.229   7.682   5.916 -1.0632 -3.1609  0.3607
   74MOL   H22520811   2.267   7.452   5.868  1.4353 -0.6897  0.3192
   74MOL   C22620812   2.303   8.079   5.988  0.1476  0.0957  0.7019
   74MOL   C22720813   2.397   0.026   5.943 -0.2785 -0.5999 -0.2258
   74MOL   C22820814   2.396   0.152   6.008  0.0352  0.2519  0.5846
   74MOL   C22920815   2.296   0.189   6.103  0.4415 -0.5580 -0.2052
   74MOL   C23020816   2.287   0.323   6.165  0.3086 -0.6994 -0.2311
   74MOL   C23120817   2.374   0.426   6.138 -0.5803 -0.1191  0.4536
   74MOL   C23220818   2.189   0.095   6.134 -0.2456 -0.6917  0.1070
   74MOL   C23320819   2.195   8.116   6.073 -0.4436 -0.0565 -0.4699
   74MOL   H23420820   2.472   0.006   5.869 -0.7684  0.6538 -1.0716
   74MOL   H23520821   2.470   0.223   5.974 -0.2108  1.1056  1.8079
   74MOL   H23620822   2.204   0.339   6.232  1.1265  0.3934  0.5405
   74MOL   H23720823   2.455   0.416   6.067  0.0816 -0.4024  1.2368
   74MOL   H23820824   2.113   0.109   6.208 -1.1310  0.7519 -1.0373
   74MOL   H23920825   2.119   8.047   6.104 -2.2636  2.3775  0.6204
   74MOL   C24020826   2.373   0.567   6.190 -0.1616  0.5293 -0.6871
   74MOL   C24120827   2.475   0.658   6.154 -0.2783 -0.3226  0.9799
   74MOL   C24220828   2.474   0.796   6.192 -0.8152 -0.5262 -1.1228
   74MOL   C24320829   2.373   0.845   6.276 -0.2116  0.5696 -0.4241
   74MOL   C24420830   2.383   0.981   6.333 -0.6789  0.5668 -0.1432
   74MOL   C24520831   2.491   1.066   6.335  0.0127  0.1110  0.1503
   74MOL   C24620832   2.277   0.750   6.326  0.1017  0.1011 -0.1408
   74MOL   C24720833   2.272   0.614   6.280  0.4155  0.0619 -0.5651
   74MOL   H24820834   2.556   0.628   6.088 -1.0834  0.3312 -0.3181
   74MOL   H24920835   2.561   0.850   6.156 -1.7577  1.6485 -0.2123
   74MOL   H25020836   2.296   1.018   6.386 -0.3994 -1.2646  1.6548
   74MOL   H25120837   2.581   1.041   6.280  0.8111 -0.1320  1.5542
   74MOL   H25220838   2.201   0.783   6.395  0.5250  1.8842 -0.4939
   74MOL   H25320839   2.188   0.552   6.308  0.7333  0.3919  1.1467
   74MOL   C25420840   2.489   1.201   6.395 -0.6065 -0.2088  0.3120
   74MOL   C25520841   2.612   1.264   6.425  0.4541  0.3633  0.6250
   74MOL   C25620842   2.610   1.394   6.479 -0.2373 -1.1681 -0.4801
   74MOL   C25720843   2.489   1.465   6.498 -0.2992  0.1937  0.7778
   74MOL   C25820844   2.499   1.599   6.556 -0.2416  0.1430 -0.1552
   74MOL   C25920845   2.403   1.663   6.631 -0.2332  0.6793 -0.0858
   74MOL   C26020846   2.371   1.409   6.450  0.0073 -0.0842  0.4507
   74MOL   C26120847   2.368   1.277   6.407 -0.5660 -0.8479 -0.6800
   74MOL   H26220848   2.704   1.209   6.418 -0.1245 -0.3535 -1.9205
   74MOL   H26320849   2.704   1.432   6.517  0.3138 -2.2700 -0.7406
   74MOL   H26420850   2.591   1.647   6.529  0.2475 -0.1619  0.9454
   74MOL   H26520851   2.425   1.765   6.659 -0.8705  0.1984  2.2795
   74MOL   H26620852   2.289   1.478   6.463 -0.0670 -0.0349 -0.2591
   74MOL   H26720853   2.272   1.233   6.384 -1.1844 -0.5215  1.2452
   74MOL   C26820854   2.279   1.621   6.697 -0.1878 -0.7553 -0.4197
   74MOL   C26920855   2.179   1.718   6.723 -0.3547 -0.6720 -0.3535
   74MOL   C27020856   2.054   1.687   6.777 -0.7757 -0.3151 -0.4200
   74MOL   C27120857   2.030   1.550   6.810  0.8267  0.2631  1.0837
   74MOL   C27220858   1.894   1.523   6.860 -0.5849 -0.1346 -0.3278
   74MOL   C27320859   1.848   1.398   6.899 -0.0429 -0.7344  0.0248
   74MOL   C27420860   2.136   1.450   6.790 -0.7392 -0.1244  0.4199
   74MOL   C27520861   2.258   1.488   6.729 -0.5521  0.0516 -0.4983
   74MOL   H27620862   2.194   1.817   6.684 -0.4284 -0.7960 -0.7012
   74MOL   H27720863   1.981   1.766   6.772 -1.2118 -0.8263 -2.5185
   74MOL   H27820864   1.832   1.609   6.875  1.4460  1.6315 -1.6528
   74MOL   H27920865   1.912   1.312   6.887  0.4235 -0.1117 -2.4055
   74MOL   H28020866   2.114   1.348   6.814  0.1587 -1.2001 -3.0135
   74MOL   H28120867   2.333   1.411   6.715 -0.4533 -0.1899  1.1988
   74MOL   H28220868   1.749   1.390   6.941  0.8005 -0.1435  2.2091
   75MOL     C120869   3.319   7.939   5.157  0.4741 -0.2068 -0.4929
   75MOL     C220870   3.398   7.882   5.263  0.0031 -0.1864 -0.1098
   75MOL     C320871   3.503   7.960   5.320  0.2587 -0.2296  0.2301
   75MOL     C420872   3.516   8.095   5.288  0.6420 -0.1012 -0.4854
   75MOL     C520873   3.619   0.039   5.349  0.3833 -0.2344 -0.4963
   75MOL     C620874   3.728   8.140   5.424  0.1366 -0.6189 -0.2687
   75MOL     C720875   3.430   0.004   5.189  0.0649 -0.1301  0.3825
   75MOL     C820876   3.329   8.072   5.125  0.4340  0.1554  0.7487
   75MOL     H920877   3.392   7.777   5.287 -2.9160  0.0898  0.5031
   75MOL    H1020878   3.560   7.915   5.400  0.0463 -0.4954  0.2310
   75MOL    H1120879   3.598   0.143   5.330  0.5497 -0.4150 -1.7162
   75MOL    H1220880   3.743   8.034   5.439  0.5315 -0.6206 -0.6914
   75MOL    H1320881   3.440   0.110   5.169  1.1422 -0.4879 -1.0521
   75MOL    H1420882   3.263   8.124   5.058 -0.0033 -0.8689  0.3615
   75MOL    H1520883   3.251   7.876   5.101 -1.5963  0.8631  0.7349
   75MOL    C1620884   3.836   0.078   5.486 -0.2478  0.8363 -0.7372
   75MOL    C1720885   3.845   0.217   5.467 -0.0294  1.3171  0.0258
   75MOL    C1820886   3.949   0.287   5.534  0.4345  0.1453  0.2649
   75MOL    C1920887   4.050   0.214   5.600  0.0595  0.3720  0.3241
   75MOL    C2020888   4.167   0.291   5.652 -0.0347  0.1157  0.2267
   75MOL    C2120889   4.182   0.427   5.645  0.5025  0.8576  0.9300
   75MOL    C2220890   4.047   0.079   5.621 -0.2838  0.0976 -0.3564
   75MOL    C2320891   3.934   0.013   5.569  0.6103  0.2509  0.7833
   75MOL    H2420892   3.774   0.267   5.403 -3.0910 -0.3677  1.9728
   75MOL    H2520893   3.951   0.395   5.537 -3.5897  0.4492 -2.9910
   75MOL    H2620894   4.240   0.231   5.704 -1.0665 -0.2371  1.3025
   75MOL    H2720895   4.110   0.499   5.609  0.4616 -0.0234 -0.7918
   75MOL    H2820896   4.120   0.021   5.675 -0.7904  0.4997  0.7815
   75MOL    H2920897   3.916   8.051   5.576 -0.4935  0.3225 -0.6076
   75MOL    C3020898   4.302   0.503   5.674 -0.7649  0.2413  0.0561
   75MOL    C3120899   4.289   0.646   5.691  0.0756  0.3348  0.1279
   75MOL    C3220900   4.392   0.735   5.731  0.6203  0.2151  0.2220
   75MOL    C3320901   4.525   0.679   5.731  0.0249  0.4716  0.5550
   75MOL    C3420902   4.657   0.755   5.750  0.5056 -0.6383 -0.6432
   75MOL    C3520903   4.668   0.887   5.767  0.0839  0.1325  0.1464
   75MOL    C3620904   4.545   0.539   5.705 -0.1082 -0.6171 -0.3700
   75MOL    C3720905   4.434   0.453   5.679  0.0021  0.1201 -0.4065
   75MOL    H3820906   4.194   0.687   5.662  0.1535  1.7755  1.8119
   75MOL    H3920907   4.377   0.841   5.742 -1.3675 -0.0498  0.1704
   75MOL    H4020908   4.743   0.691   5.746  1.3218  0.3351  0.8197
   75MOL    H4120909   4.581   0.950   5.780 -0.9273 -1.7812  3.2523
   75MOL    H4220910   4.642   0.491   5.709  0.3802  0.4538  1.9276
   75MOL    H4320911   4.454   0.347   5.677 -0.9939 -0.1238  1.3818
   75MOL    C4420912   4.803   0.948   5.783  0.3276 -0.3244  0.1391
   75MOL    C4520913   4.819   1.082   5.833  0.7245  0.6891 -0.2895
   75MOL    C4620914   4.942   1.142   5.844  0.2941  0.3261  0.9081
   75MOL    C4720915   5.061   1.068   5.808 -1.1127  0.5725 -0.7278
   75MOL    C4820916   5.204   1.127   5.819  0.7856  0.7283 -0.2355
   75MOL    C4920917   5.233   1.249   5.880 -0.3822 -0.1470 -0.1748
   75MOL    C5020918   5.044   0.936   5.770 -0.6317 -0.0906  0.2651
   75MOL    C5120919   4.924   0.876   5.761  0.5407 -0.1794  0.3895
   75MOL    H5220920   4.744   1.134   5.891 -0.3586 -0.8061 -0.3152
   75MOL    H5320921   4.948   1.244   5.879  2.1715  0.4894  0.1634
   75MOL    H5420922   5.281   1.065   5.778  0.9806  2.3024 -2.2995
   75MOL    H5520923   5.153   1.309   5.920 -0.6927 -1.1988  0.7840
   75MOL    H5620924   5.132   0.878   5.743  1.3154  1.4545  3.0879
   75MOL    H5720925   4.919   0.774   5.726 -0.0367  0.2614 -0.8603
   75MOL    C5820926   5.365   1.309   5.893  0.4361  0.7210  0.4964
   75MOL    C5920927   5.480   1.262   5.826  0.4327 -0.4888  0.2248
   75MOL    C6020928   5.603   1.327   5.846  0.4213  0.0363 -0.8087
   75MOL    C6120929   5.617   1.440   5.930 -0.2145 -0.6968  0.2679
   75MOL    C6220930   5.749   1.504   5.932 -0.3994 -0.3219 -0.1260
   75MOL    C6320931   5.789   1.597   6.021 -0.8245  0.2381  0.2462
   75MOL    C6420932   5.503   1.479   5.998 -0.5481 -0.0535 -0.4790
   75MOL    C6520933   5.379   1.416   5.987  0.1191  0.3802 -0.2253
   75MOL    H6620934   5.469   1.178   5.758  0.5258  0.4468 -0.9669
   75MOL    H6720935   5.694   1.284   5.805 -0.3025 -2.0759 -0.2454
   75MOL    H6820936   5.814   1.468   5.854  0.3228  2.5665 -0.9190
   75MOL    H6920937   5.713   1.627   6.092 -0.3481 -0.9772  1.2712
   75MOL    H7020938   5.498   1.566   6.062 -0.0859 -0.3312 -0.0624
   75MOL    H7120939   5.292   1.449   6.042  1.2528 -0.1829  1.9616
   75MOL    C7220940   5.928   1.657   6.022 -0.3530  0.3716  0.5253
   75MOL    C7320941   5.964   1.753   6.114  0.3136 -0.1533  0.3741
   75MOL    C7420942   6.097   1.799   6.128 -0.1171  0.6819  1.0669
   75MOL    C7520943   6.199   1.753   6.035 -0.2700 -0.0037 -0.3513
   75MOL    C7620944   6.333   1.798   6.034 -0.1981 -0.0028 -0.2157
   75MOL    C7720945   6.371   1.899   6.110  0.1119 -0.4009 -0.1970
   75MOL    C7820946   6.163   1.646   5.951 -0.1416  0.1358 -0.1918
   75MOL    C7920947   6.031   1.597   5.947  0.2131 -0.0516  0.6460
   75MOL    H8020948   5.881   1.786   6.175 -1.8284 -0.7703 -2.1114
   75MOL    H8120949   6.116   1.874   6.204 -2.2658 -0.5531  2.8838
   75MOL    H8220950   6.393   1.727   5.980 -1.3619 -0.8713 -0.3888
   75MOL    H8320951   6.297   1.949   6.171  0.9731  0.1361  0.4181
   75MOL    H8420952   6.246   1.610   5.892  0.5370  3.5278 -1.4193
   75MOL    H8520953   6.013   1.518   5.876  1.9581  1.0203 -1.0078
   75MOL    C8620954   6.501   1.952   6.122 -0.0451  0.2684  0.2941
   75MOL    C8720955   6.612   1.921   6.042 -0.0456  0.2802 -0.2022
   75MOL    C8820956   6.739   1.979   6.061 -0.4102 -0.5658 -0.1982
   75MOL    C8920957   6.761   2.073   6.162 -0.3736 -0.2023  0.0395
   75MOL    C9020958   6.893   2.137   6.176  0.0388  0.3096 -0.3765
   75MOL    C9120959   7.008   2.117   6.107 -0.4678 -0.4292 -0.3010
   75MOL    C9220960   6.648   2.110   6.242 -0.4059  0.1468 -0.0789
   75MOL    C9320961   6.524   2.053   6.220  0.3351  0.7965  0.2889
   75MOL    H9420962   6.601   1.852   5.959  1.6297 -0.1770 -0.0609
   75MOL    H9520963   6.814   1.950   5.990  0.1902 -1.3795  0.7629
   75MOL    H9620964   6.892   2.218   6.248 -1.7770  0.2571 -0.3315
   75MOL    H9720965   7.010   2.045   6.026 -3.2073 -0.9613  0.0622
   75MOL    H9820966   6.670   2.184   6.318  0.8377  0.1246 -0.4009
   75MOL    H9920967   6.438   2.082   6.279  1.8188  1.8994  1.9548
   75MOL   C10020968   7.136   2.186   6.127 -0.3343  0.1676 -0.1575
   75MOL   C10120969   7.150   2.289   6.220  0.4937 -1.1182 -0.2289
   75MOL   C10220970   7.283   2.343   6.235  0.6840 -0.7241  0.7837
   75MOL   C10320971   7.386   2.302   6.149 -0.2639 -0.0546  0.0240
   75MOL   C10420972   7.515   2.362   6.157  0.4154 -0.4611  0.7422
   75MOL   C10520973   7.631   2.298   6.144  0.2599 -0.0435  0.3603
   75MOL   C10620974   7.366   2.194   6.059 -0.0854 -0.8068 -0.2569
   75MOL   C10720975   7.240   2.131   6.051 -0.3022 -0.1138  0.7414
   75MOL   H10820976   7.063   2.317   6.277 -0.6390 -2.6087 -1.2101
   75MOL   H10920977   7.301   2.419   6.310 -1.0393  0.7331 -0.2293
   75MOL   H11020978   7.506   2.466   6.184  0.2334 -1.0720  3.1460
   75MOL   H11120979   7.631   2.191   6.128 -0.8498 -0.0361  0.2641
   75MOL   H11220980   7.444   2.161   5.992  0.2519 -0.2391 -0.1524
   75MOL   H11320981   7.216   2.045   5.990  0.0438 -1.4484  2.4352
   75MOL   C11420982   7.763   2.359   6.156  0.3699 -0.5431 -0.3691
   75MOL   C11520983   7.874   2.273   6.187  0.1665  0.4495  0.0451
   75MOL   C11620984   7.998   2.334   6.183 -0.0164 -0.6492  0.4860
   75MOL   C11720985   8.020   2.474   6.161  0.3521 -0.7489 -0.4231
   75MOL   C11820986   0.017   2.540   6.150  0.5590  0.0642  0.0355
   75MOL   C11920987   0.126   2.464   6.139  0.9213  0.2369 -0.6270
   75MOL   C12020988   7.907   2.550   6.126 -0.2135  0.0165 -0.1593
   75MOL   C12120989   7.777   2.495   6.121 -0.0459 -0.1794  0.6557
   75MOL   H12220990   7.866   2.167   6.206 -1.4565  0.6072  0.2832
   75MOL   H12320991   8.086   2.278   6.211  1.3947  1.1403 -0.2472
   75MOL   H12420992   0.025   2.647   6.153 -0.3563  0.1312  0.3393
   75MOL   H12520993   0.115   2.357   6.135  0.4922  0.1725  1.8150
   75MOL   H12620994   7.914   2.651   6.089 -0.3035  0.1238  0.1097
   75MOL   H12720995   7.695   2.555   6.086  0.0127 -1.2037 -1.2993
   75MOL   C12820996   0.265   2.514   6.152  0.0458  0.0202 -0.4657
   75MOL   C12920997   0.305   2.651   6.166 -0.1991  0.0401  0.0367
   75MOL   C13020998   0.439   2.691   6.192  0.1516  0.6315 -0.0881
   75MOL   C13120999   0.543   2.588   6.192 -0.5984 -0.2935 -0.0916
   75MOL   C13221000   0.681   2.621   6.212 -0.3478  0.5696 -0.0121
   75MOL   C13321001   0.770   2.545   6.279  0.2256 -0.3589 -0.5341
   75MOL   C13421002   0.501   2.461   6.182 -0.1542  0.1308  0.4998
   75MOL   C13521003   0.368   2.421   6.159  1.1350  0.4673 -0.2758
   75MOL   H13621004   0.231   2.728   6.149 -0.6580 -0.2573  0.6307
   75MOL   H13721005   0.456   2.798   6.200 -0.1125  0.8397 -2.1252
   75MOL   H13821006   0.712   2.714   6.166 -0.2539  0.2403 -0.6290
   75MOL   H13921007   0.736   2.451   6.320 -0.8681 -0.1223 -0.8686
   75MOL   H14021008   0.571   2.380   6.199 -1.1866 -0.6669  0.9750
   75MOL   H14121009   0.334   2.319   6.152 -0.2878  0.8430  1.0740
   75MOL   C14221010   0.906   2.584   6.301 -0.0224 -0.3783 -0.2212
   75MOL   C14321011   0.977   2.512   6.402  0.2117 -0.7025  0.1911
   75MOL   C14421012   1.112   2.559   6.441 -0.0032 -0.4474 -1.4026
   75MOL   C14521013   1.167   2.667   6.380  0.5278 -0.0889  0.4492
   75MOL   C14621014   1.297   2.717   6.410  0.1107  0.1299 -0.0185
   75MOL   C14721015   1.401   2.630   6.431 -0.0674  0.2941  0.6878
   75MOL   C14821016   1.093   2.734   6.279 -0.4942 -1.1754 -0.6078
   75MOL   C14921017   0.963   2.695   6.242 -0.0036 -0.0861 -0.3084
   75MOL   H15021018   0.932   2.427   6.451  0.0202 -1.4241 -1.2228
   75MOL   H15121019   1.162   2.512   6.524 -0.0059 -1.0259 -1.7259
   75MOL   H15221020   1.298   2.825   6.405  2.6975  0.1617  0.8447
   75MOL   H15321021   1.381   2.525   6.444 -2.1310  0.4329 -1.1483
   75MOL   H15421022   1.138   2.820   6.232 -1.6186  0.7822  1.8054
   75MOL   H15521023   0.926   2.751   6.158 -0.3915 -2.5405 -1.8400
   75MOL   C15621024   1.545   2.662   6.452 -0.4754 -0.0137  0.4009
   75MOL   C15721025   1.637   2.556   6.471  0.0059  0.1858 -0.5989
   75MOL   C15821026   1.775   2.574   6.496  0.9172  0.2463 -0.0968
   75MOL   C15921027   1.820   2.706   6.493 -0.6751  0.2450 -0.0404
   75MOL   C16021028   1.962   2.727   6.495  0.4347  0.0137 -0.3846
   75MOL   C16121029   2.029   2.835   6.445 -0.2567  0.0103 -0.3508
   75MOL   C16221030   1.730   2.816   6.477 -0.0560 -0.2624 -0.0853
   75MOL   C16321031   1.594   2.794   6.465  1.1160  1.0007  0.0152
   75MOL   H16421032   1.603   2.454   6.461 -1.6147  0.8538 -2.1917
   75MOL   H16521033   1.847   2.494   6.501 -0.1167 -0.8866 -2.4494
   75MOL   H16621034   2.012   2.646   6.546  1.9308  0.1687 -1.5646
   75MOL   H16721035   1.965   2.913   6.408 -1.4726  0.5677  2.8395
   75MOL   H16821036   1.767   2.917   6.488  0.8855 -0.7057  0.7999
   75MOL   H16921037   1.526   2.876   6.448  0.3535  0.4502  0.3783
   75MOL   C17021038   2.173   2.848   6.438 -0.4451 -0.3192 -0.1820
   75MOL   C17121039   2.254   2.750   6.497  0.0394  0.4710 -0.1754
   75MOL   C17221040   2.391   2.769   6.502  0.2370  0.0578  0.0889
   75MOL   C17321041   2.451   2.881   6.445 -0.0711  0.0721  0.2025
   75MOL   C17421042   2.595   2.889   6.456 -0.3259 -0.0849  0.8412
   75MOL   C17521043   2.676   2.968   6.384 -0.6870  0.4606  0.3357
   75MOL   C17621044   2.369   2.965   6.365 -0.4267 -0.2513  0.0351
   75MOL   C17721045   2.227   2.950   6.370 -0.0388  0.2096  0.7682
   75MOL   H17821046   2.216   2.656   6.536  1.4224 -0.1264 -0.2515
   75MOL   H17921047   2.458   2.692   6.538 -0.6504 -1.6520 -1.7950
   75MOL   H18021048   2.626   2.824   6.536 -0.8861 -1.5548 -0.1175
   75MOL   H18121049   2.631   3.043   6.321 -1.0063 -0.8332 -1.0317
   75MOL   H18221050   2.423   3.037   6.306  2.5948 -2.3510  0.1485
   75MOL   H18321051   2.171   3.024   6.315  3.3599  0.5612 -2.4471
   75MOL   C18421052   2.820   2.977   6.376  0.1103 -0.1887  0.3594
   75MOL   C18521053   2.874   3.095   6.328  0.2607 -0.3294  0.2894
   75MOL   C18621054   3.015   3.106   6.326 -0.0987  0.1717 -0.5276
   75MOL   C18721055   3.097   3.001   6.383  0.5696 -0.5691  0.4801
   75MOL   C18821056   3.241   3.007   6.409  0.0184 -0.3197 -0.2024
   75MOL   C18921057   3.318   3.104   6.360  0.3783  0.2647 -0.3240
   75MOL   C19021058   3.038   2.887   6.438 -0.0265 -0.0888 -0.2381
   75MOL   C19121059   2.898   2.872   6.437  0.0771 -0.4822 -0.5371
   75MOL   H19221060   2.810   3.165   6.276  0.1430  0.0475  0.9357
   75MOL   H19321061   3.055   3.196   6.283  0.1002  0.2525 -0.1752
   75MOL   H19421062   3.283   2.938   6.480  0.1609 -0.1583 -0.1318
   75MOL   H19521063   3.278   3.180   6.295  0.3173 -0.4788 -1.1588
   75MOL   H19621064   3.105   2.816   6.484  0.7355  0.9756  0.2912
   75MOL   H19721065   2.850   2.794   6.495 -1.0484  1.2334  0.8829
   75MOL   C19821066   3.460   3.128   6.385  0.4017 -0.7557  0.3667
   75MOL   C19921067   3.527   3.200   6.291 -0.2023  0.2078  0.1360
   75MOL   C20021068   3.662   3.229   6.307 -0.6431 -0.0273 -0.0578
   75MOL   C20121069   3.732   3.191   6.420 -0.1975 -0.2684 -0.4606
   75MOL   C20221070   3.870   3.241   6.452 -0.1589  0.0525 -0.6088
   75MOL   C20321071   3.938   3.347   6.400  0.0273  0.7005  1.1412
   75MOL   C20421072   3.664   3.106   6.513 -0.5843 -0.2416  0.4541
   75MOL   C20521073   3.530   3.070   6.492 -0.6259  0.0622  0.6738
   75MOL   H20621074   3.483   3.238   6.200 -1.7257 -0.8960  0.3868
   75MOL   H20721075   3.710   3.292   6.234  0.7587  0.9981  1.7030
   75MOL   H20821076   3.928   3.185   6.524 -1.1776  0.0971  0.2614
   75MOL   H20921077   3.890   3.411   6.328 -0.6104  0.3195  1.2254
   75MOL   H21021078   3.719   3.073   6.600  0.2570  1.5233  0.6040
   75MOL   H21121079   3.487   3.016   6.575  1.3583  0.1780  1.8180
   75MOL   C21221080   4.078   3.390   6.443 -0.3010 -0.3568  0.4330
   75MOL   C21321081   4.137   3.505   6.391 -0.5157  0.1518 -0.4368
   75MOL   C21421082   4.262   3.546   6.435 -0.2583 -0.9115  0.0089
   75MOL   C21521083   4.342   3.473   6.521 -0.0409  0.6543  1.2799
   75MOL   C21621084   4.476   3.509   6.562 -0.5873 -0.3637  0.5558
   75MOL   C21721085   4.557   3.600   6.503 -1.0347 -0.1958  0.6869
   75MOL   C21821086   4.290   3.351   6.566 -0.4664 -0.2041  0.3354
   75MOL   C21921087   4.160   3.312   6.524 -0.5800  0.0176  0.0949
   75MOL   H22021088   4.087   3.559   6.312 -0.6351 -1.7866 -1.7514
   75MOL   H22121089   4.297   3.639   6.393 -1.6347 -0.2066  0.3759
   75MOL   H22221090   4.515   3.458   6.650 -2.0434 -1.0234  0.8387
   75MOL   H22321091   4.519   3.665   6.425  0.2080  1.2313  1.2603
   75MOL   H22421092   4.347   3.289   6.632 -0.9442 -3.1479 -1.9290
   75MOL   H22521093   4.139   3.214   6.564 -1.0370 -0.0927 -0.4063
   75MOL   C22621094   4.694   3.627   6.541  0.0533 -0.3682  0.5611
   75MOL   C22721095   4.762   3.552   6.640  0.7916 -0.0390  0.1849
   75MOL   C22821096   4.899   3.576   6.680 -0.2044  0.2994 -0.3814
   75MOL   C22921097   4.972   3.681   6.617  0.4751 -0.6968 -0.2143
   75MOL   C23021098   5.102   3.724   6.657 -0.4156 -0.5774 -0.2989
   75MOL   C23121099   5.159   3.697   6.772  0.2520  0.3962  0.2770
   75MOL   C23221100   4.901   3.749   6.514 -0.0995 -0.8541 -0.2167
   75MOL   C23321101   4.766   3.729   6.480  0.1067  0.2635 -0.4425
   75MOL   H23421102   4.716   3.460   6.673 -0.7345  0.6385 -0.0378
   75MOL   H23521103   4.944   3.506   6.748  1.5145  0.9581 -0.8228
   75MOL   H23621104   5.150   3.796   6.592  0.7120 -0.2292  0.9085
   75MOL   H23721105   5.104   3.639   6.844  2.6543  0.5304  2.3348
   75MOL   H23821106   4.951   3.835   6.473 -1.1992  0.4250  1.0661
   75MOL   H23921107   4.722   3.792   6.404  1.1091 -0.3604 -1.5589
   75MOL   C24021108   5.293   3.743   6.817  0.2441 -0.6577  0.3795
   75MOL   C24121109   5.320   3.757   6.957 -0.4435 -0.1666 -0.7992
   75MOL   C24221110   5.442   3.806   7.004  0.5110  0.5915 -0.0769
   75MOL   C24321111   5.536   3.855   6.918  0.0806 -0.6024  0.1269
   75MOL   C24421112   5.665   3.921   6.965  0.2970 -0.1105 -0.2072
   75MOL   C24521113   5.744   3.875   7.064  0.2999  0.2430 -0.0992
   75MOL   C24621114   5.513   3.844   6.779  0.0307 -0.5155 -0.9337
   75MOL   C24721115   5.391   3.791   6.729  0.0322  0.6791 -0.2146
   75MOL   H24821116   5.256   3.709   7.030 -0.3543  0.1015 -0.5439
   75MOL   H24921117   5.473   3.813   7.108  0.9043 -0.1981 -0.1385
   75MOL   H25021118   5.686   4.009   6.905  2.6825 -1.1307 -0.8966
   75MOL   H25121119   5.715   3.788   7.121  1.4411 -1.4288 -2.0029
   75MOL   H25221120   5.584   3.893   6.714 -1.5450  3.0130 -0.1208
   75MOL   H25321121   5.380   3.800   6.622  0.7454 -0.0781 -0.3605
   75MOL   C25421122   5.879   3.929   7.098  0.0318 -0.9057  0.2246
   75MOL   C25521123   5.951   3.880   7.212 -1.0208  0.7490  0.1079
   75MOL   C25621124   6.083   3.928   7.247  0.7566 -0.2833  1.5365
   75MOL   C25721125   6.143   4.035   7.171  1.1423 -0.7203  0.0189
   75MOL   C25821126   6.274   4.089   7.200  0.0724 -0.2243 -0.1265
   75MOL   C25921127   6.327   4.208   7.158 -0.3850  0.3134 -0.0831
   75MOL   C26021128   6.072   4.075   7.058  0.0122  0.8223  0.1950
   75MOL   C26121129   5.947   4.028   7.019  0.4226 -0.5649 -0.0837
   75MOL   H26221130   5.907   3.813   7.285  0.9828 -1.0649 -0.3020
   75MOL   H26321131   6.129   3.900   7.341  2.4329  0.4495  0.9631
   75MOL   H26421132   6.340   4.031   7.263  0.5245 -0.4606 -0.8095
   75MOL   H26521133   6.433   4.221   7.178 -0.1185 -0.9300 -0.6311
   75MOL   H26621134   6.116   4.139   6.983 -1.8181  0.6752 -1.0111
   75MOL   H26721135   5.899   4.057   6.927 -1.8348  1.5828  1.6800
   75MOL   C26821136   6.266   4.325   7.089  0.0300 -0.2048 -0.1030
   75MOL   C26921137   6.331   4.392   6.985  0.0372  0.0645  0.2402
   75MOL   C27021138   6.265   4.496   6.920 -1.1195 -0.6105 -0.5016
   75MOL   C27121139   6.138   4.534   6.960  0.0484 -0.0742  0.5079
   75MOL   C27221140   6.062   4.647   6.895 -0.1768 -0.0780  0.2043
   75MOL   C27321141   6.089   4.693   6.768 -0.2634  0.2136 -0.1209
   75MOL   C27421142   6.073   4.470   7.072 -0.1893  0.6563 -0.1685
   75MOL   C27521143   6.137   4.361   7.130 -0.8377  0.2494  0.0057
   75MOL   H27621144   6.418   4.357   6.932  0.6224  1.5513  0.1685
   75MOL   H27721145   6.329   4.547   6.851 -0.9393  0.1006  0.1849
   75MOL   H27821146   5.981   4.694   6.949 -0.8263  0.4965 -1.2480
   75MOL   H27921147   6.161   4.646   6.703 -1.4033 -3.3899  1.1296
   75MOL   H28021148   5.975   4.503   7.102  0.2877  1.4163  0.5761
   75MOL   H28121149   6.079   4.313   7.208 -1.2394  0.6848 -0.0229
   75MOL   H28221150   6.035   4.774   6.721  0.1494 -0.3046 -1.4942
   76MOL     C121151   6.111   7.765   2.096 -0.2988  0.7923 -0.6217
   76MOL     C221152   6.174   7.808   2.214  0.4936 -0.3071  0.0402
   76MOL     C321153   6.310   7.773   2.240  0.0318  0.0160  1.0369
   76MOL     C421154   6.373   7.671   2.163 -0.1308  0.0061  0.4455
   76MOL     C521155   6.508   7.626   2.191 -0.3019 -0.1977  1.0903
   76MOL     C621156   6.592   7.674   2.281  0.2020  0.3512  0.0300
   76MOL     C721157   6.300   7.616   2.052  0.4874  0.4394  0.5470
   76MOL     C821158   6.174   7.664   2.017 -0.5448  0.2199 -0.7811
   76MOL     H921159   6.130   7.896   2.258 -0.3038  0.6521 -2.5605
   76MOL    H1021160   6.357   7.823   2.323  2.3212  2.1722 -1.4495
   76MOL    H1121161   6.536   7.550   2.119  1.5482  0.0111  1.5661
   76MOL    H1221162   6.553   7.746   2.352  0.9027  1.7680 -0.9742
   76MOL    H1321163   6.350   7.537   1.998 -0.2451  1.3644 -1.5037
   76MOL    H1421164   6.118   7.613   1.940 -3.7304 -0.5743  1.9462
   76MOL    H1521165   6.018   7.808   2.060 -0.6240  1.2630  0.7534
   76MOL    C1621166   6.733   7.642   2.300 -0.1764 -0.1084  0.0959
   76MOL    C1721167   6.804   7.550   2.222 -0.4519  0.1941 -0.4642
   76MOL    C1821168   6.944   7.530   2.249  0.5098  0.2190  0.1795
   76MOL    C1921169   7.007   7.582   2.363 -0.5326 -0.1877  0.8577
   76MOL    C2021170   7.152   7.549   2.387  0.1548  0.0226  0.9713
   76MOL    C2121171   7.236   7.602   2.480 -0.2642 -0.5399  0.5537
   76MOL    C2221172   6.941   7.679   2.434  1.0403  0.2050 -0.0163
   76MOL    C2321173   6.803   7.711   2.400  0.3932 -0.3544 -0.1962
   76MOL    H2421174   6.760   7.502   2.136 -0.5562  1.7704 -1.3151
   76MOL    H2521175   7.008   7.478   2.180  0.9655 -0.3888  1.0491
   76MOL    H2621176   7.184   7.469   2.321  0.8936  0.8557  0.3134
   76MOL    H2721177   7.193   7.678   2.543 -0.5179 -0.5529  0.3956
   76MOL    H2821178   6.988   7.730   2.517 -0.3215  0.1594  0.8045
   76MOL    H2921179   6.762   7.796   2.452 -0.7943 -0.8110 -0.3837
   76MOL    C3021180   7.368   7.546   2.503 -0.1460 -0.0796  0.1058
   76MOL    C3121181   7.408   7.425   2.439  0.0036  0.3038 -0.0014
   76MOL    C3221182   7.533   7.373   2.466  0.1790 -0.2953  0.1960
   76MOL    C3321183   7.625   7.444   2.549 -0.1595  0.4308  0.0109
   76MOL    C3421184   7.759   7.397   2.559 -0.4698  0.2419 -0.5400
   76MOL    C3521185   7.851   7.438   2.648 -0.0436  0.0741 -0.6459
   76MOL    C3621186   7.586   7.562   2.613  0.5306 -0.8645  0.0036
   76MOL    C3721187   7.459   7.610   2.589 -0.0383 -0.1153  0.6592
   76MOL    H3821188   7.350   7.366   2.369  1.4853 -1.8626  0.5298
   76MOL    H3921189   7.573   7.285   2.419 -0.2064 -0.7998  0.8056
   76MOL    H4021190   7.793   7.328   2.483  1.1599 -0.0792  0.4707
   76MOL    H4121191   7.817   7.512   2.719  0.4712  1.0512 -1.4050
   76MOL    H4221192   7.656   7.615   2.675 -0.8860  0.1338  0.7840
   76MOL    H4321193   7.424   7.699   2.639 -1.2362 -1.2990  2.0020
   76MOL    C4421194   7.984   7.380   2.652 -0.3544 -0.3858  0.5473
   76MOL    C4521195   8.025   7.264   2.577  0.1326 -0.3846 -0.9121
   76MOL    C4621196   0.015   7.214   2.586  0.9101  0.1864  0.6705
   76MOL    C4721197   0.105   7.267   2.679  0.3829  0.4423  0.1383
   76MOL    C4821198   0.241   7.206   2.675 -1.5158  0.5727 -0.8028
   76MOL    C4921199   0.327   7.209   2.780  0.2072 -0.2644 -0.4832
   76MOL    C5021200   0.065   7.381   2.753  0.2097  0.3402  1.0594
   76MOL    C5121201   8.081   7.440   2.735 -0.3167 -0.4904  0.2651
   76MOL    H5221202   7.977   7.227   2.488 -1.0764  1.4491 -1.0462
   76MOL    H5321203   0.047   7.142   2.513 -0.4940 -1.2418  1.4295
   76MOL    H5421204   0.277   7.161   2.584  1.0245 -0.3005  0.5768
   76MOL    H5521205   0.289   7.253   2.871  1.1462  0.5590 -0.4755
   76MOL    H5621206   0.131   7.430   2.823  0.6851  1.4955 -0.1557
   76MOL    H5721207   8.057   7.521   2.803  2.2092 -1.8248  2.8786
   76MOL    C5821208   0.465   7.162   2.784 -0.3358 -0.2172  0.4236
   76MOL    C5921209   0.549   7.197   2.892 -0.2547  0.2320 -0.0598
   76MOL    C6021210   0.679   7.149   2.898 -0.6671  0.4467 -0.0516
   76MOL    C6121211   0.719   7.048   2.806  0.2844 -0.4660 -0.4287
   76MOL    C6221212   0.851   6.984   2.834 -0.3516 -0.5098  0.8387
   76MOL    C6321213   0.939   7.018   2.929 -0.6414  0.7887  0.3446
   76MOL    C6421214   0.640   7.015   2.693 -0.8952 -0.4345  0.0079
   76MOL    C6521215   0.512   7.074   2.680  0.4436  0.3015 -0.1323
   76MOL    H6621216   0.519   7.273   2.962 -0.0600  1.2458 -1.0804
   76MOL    H6721217   0.738   7.178   2.983 -0.8667 -0.5894  0.4466
   76MOL    H6821218   0.865   6.899   2.769  0.4732  0.2002  0.0687
   76MOL    H6921219   0.925   7.097   3.001 -1.5514  0.7462  0.2160
   76MOL    H7021220   0.682   6.943   2.624 -0.9186  1.7213 -2.3310
   76MOL    H7121221   0.445   7.040   2.602 -0.5729 -1.0693  1.3059
   76MOL    C7221222   1.062   6.935   2.944 -0.0743  0.3564 -0.4303
   76MOL    C7321223   1.134   6.956   3.066 -0.5721 -0.4580 -0.2949
   76MOL    C7421224   1.252   6.881   3.099 -0.7058 -0.8843  0.5662
   76MOL    C7521225   1.303   6.796   3.001 -0.1697 -0.0514 -0.6080
   76MOL    C7621226   1.431   6.731   3.018 -0.0711 -0.2099 -0.0577
   76MOL    C7721227   1.520   6.764   3.117 -0.3993 -0.9025  0.3152
   76MOL    C7821228   1.229   6.768   2.887  0.3728  0.1513  0.3067
   76MOL    C7921229   1.107   6.830   2.854 -0.3515 -1.0968  0.2738
   76MOL    H8021230   1.107   7.035   3.135  0.4232 -0.5200  0.1659
   76MOL    H8121231   1.309   6.910   3.186  0.7821  0.9275 -0.9714
   76MOL    H8221232   1.461   6.658   2.944  0.1783 -0.4741  0.3015
   76MOL    H8321233   1.497   6.838   3.191  0.5972  0.7501 -0.9759
   76MOL    H8421234   1.270   6.693   2.820 -1.5269 -0.5596 -0.0915
   76MOL    H8521235   1.053   6.796   2.767  1.7712 -2.3684 -0.6004
   76MOL    C8621236   1.656   6.714   3.127 -0.3617  0.8618 -0.4450
   76MOL    C8721237   1.710   6.605   3.058 -0.1270  0.1470  0.1738
   76MOL    C8821238   1.842   6.554   3.077  0.3948 -0.3608  0.4302
   76MOL    C8921239   1.921   6.614   3.182  0.1077  0.4906  0.1033
   76MOL    C9021240   2.062   6.565   3.214  0.0104  0.4169 -0.7566
   76MOL    C9121241   2.100   6.444   3.182 -0.8964  0.7216 -0.1457
   76MOL    C9221242   1.881   6.737   3.240 -0.2363 -0.5479  0.3713
   76MOL    C9321243   1.749   6.789   3.209 -0.0310  0.3673 -0.0959
   76MOL    H9421244   1.649   6.549   2.989  1.2575 -0.1741 -0.8087
   76MOL    H9521245   1.873   6.468   3.020  1.7469  0.7649 -0.5453
   76MOL    H9621246   2.130   6.627   3.271  0.5037 -1.7210  1.0792
   76MOL    H9721247   2.044   6.375   3.120  0.3079  0.9507 -1.5438
   76MOL    H9821248   1.943   6.798   3.305  1.0643  0.3885 -1.6821
   76MOL    H9921249   1.715   6.873   3.268 -0.6291  0.7578 -0.9756
   76MOL   C10021250   2.225   6.376   3.221 -0.5128  0.2985 -0.5650
   76MOL   C10121251   2.289   6.398   3.349  0.3172 -0.6221  0.4912
   76MOL   C10221252   2.411   6.337   3.377 -0.4561 -0.3569 -0.1584
   76MOL   C10321253   2.469   6.251   3.280 -0.2810  0.2078  1.0118
   76MOL   C10421254   2.604   6.188   3.288 -0.6190 -0.2129 -0.1343
   76MOL   C10521255   2.703   6.216   3.376  0.1509 -0.5545 -0.0442
   76MOL   C10621256   2.397   6.225   3.160 -0.1280  0.5583  0.0903
   76MOL   C10721257   2.279   6.291   3.127  0.3929 -0.6333  0.5399
   76MOL   H10821258   2.235   6.471   3.407  0.8001  0.7235 -0.7013
   76MOL   H10921259   2.460   6.362   3.470 -1.3209 -0.6607  0.3789
   76MOL   H11021260   2.621   6.110   3.215  0.8490  0.6254 -0.6887
   76MOL   H11121261   2.692   6.294   3.450 -0.0036  0.5203 -1.1839
   76MOL   H11221262   2.433   6.155   3.086 -0.3131  0.1539  0.3851
   76MOL   H11321263   2.229   6.274   3.033  1.5086  1.6569 -0.4996
   76MOL   C11421264   2.843   6.157   3.377 -1.2201 -0.6646  0.5974
   76MOL   C11521265   2.942   6.201   3.470  0.7965  0.3252 -0.5852
   76MOL   C11621266   3.065   6.137   3.467 -0.0349  0.3431  0.4136
   76MOL   C11721267   3.094   6.028   3.379 -0.6415 -0.8779  0.7213
   76MOL   C11821268   3.215   5.947   3.390 -0.4612  0.1163  0.4522
   76MOL   C11921269   3.309   5.947   3.479 -0.6250 -0.2589 -0.5579
   76MOL   C12021270   2.999   5.990   3.277 -1.0397  1.1832  0.1341
   76MOL   C12121271   2.881   6.063   3.275 -0.2093 -0.5467 -0.6409
   76MOL   H12221272   2.931   6.281   3.541 -1.7516 -1.4882  1.1696
   76MOL   H12321273   3.128   6.163   3.551 -0.4678 -0.2217  0.9137
   76MOL   H12421274   3.233   5.878   3.309 -0.3763 -0.2155  0.7533
   76MOL   H12521275   3.294   6.014   3.562  0.6497  0.4313 -0.8723
   76MOL   H12621276   3.024   5.906   3.214  1.6185  1.2220  1.0710
   76MOL   H12721277   2.805   6.037   3.203  0.4968  1.3906 -2.1314
   76MOL   C12821278   3.439   5.866   3.480 -0.2737  0.0735  0.4393
   76MOL   C12921279   3.449   5.758   3.388  0.0358 -0.5634 -0.2616
   76MOL   C13021280   3.568   5.687   3.392 -0.1394 -0.3965 -0.1678
   76MOL   C13121281   3.676   5.712   3.484 -0.2944 -0.7772 -0.3121
   76MOL   C13221282   3.788   5.615   3.489  0.8357  0.3782  0.4382
   76MOL   C13321283   3.825   5.533   3.388 -0.3004  0.2314 -0.3151
   76MOL   C13421284   3.667   5.823   3.572  0.3999 -0.3233 -0.4688
   76MOL   C13521285   3.541   5.892   3.575 -0.0562  0.0715 -0.0327
   76MOL   H13621286   3.383   5.733   3.306  3.3169 -0.4797 -3.0771
   76MOL   H13721287   3.582   5.605   3.323  0.6870  0.5032 -1.0894
   76MOL   H13821288   3.831   5.584   3.583  2.8068 -2.1900 -1.2475
   76MOL   H13921289   3.778   5.545   3.292 -0.8247  0.5608 -0.0205
   76MOL   H14021290   3.750   5.846   3.637 -0.9612 -0.3562  1.3462
   76MOL   H14121291   3.523   5.981   3.634 -1.2670  0.6175 -1.1864
   76MOL   C14221292   3.924   5.433   3.398  0.1004  0.6256 -0.1057
   76MOL   C14321293   4.025   5.430   3.493  0.7067 -0.6371 -0.2238
   76MOL   C14421294   4.130   5.331   3.482  0.1415  0.3320 -0.0493
   76MOL   C14521295   4.128   5.234   3.379  0.3085 -0.2623 -0.0643
   76MOL   C14621296   4.212   5.113   3.390  0.0343 -0.0834  0.2382
   76MOL   C14721297   4.252   5.060   3.509  0.5339  0.2725  0.1250
   76MOL   C14821298   4.024   5.238   3.290 -0.0945  0.5614  0.3035
   76MOL   C14921299   3.927   5.340   3.293  0.1512 -0.1720  0.2913
   76MOL   H15021300   4.038   5.507   3.568  1.8607  1.1877 -2.2135
   76MOL   H15121301   4.215   5.329   3.549 -0.0962  2.0799  0.3264
   76MOL   H15221302   4.234   5.069   3.294 -0.6337  0.2564 -0.0712
   76MOL   H15321303   4.222   5.112   3.599 -0.6915 -0.6669  0.2759
   76MOL   H15421304   4.001   5.169   3.209 -0.7586  2.5400 -1.2406
   76MOL   H15521305   3.837   5.334   3.233 -0.7493  0.6815  1.5321
   76MOL   C15621306   4.330   4.939   3.533  0.2677 -0.4235 -0.4444
   76MOL   C15721307   4.408   4.886   3.432  0.0347 -1.0357 -0.0717
   76MOL   C15821308   4.461   4.758   3.433  0.3910  1.2537  0.0203
   76MOL   C15921309   4.429   4.679   3.551  0.3515  0.0218  0.5873
   76MOL   C16021310   4.457   4.538   3.553  0.5772  0.0316 -0.2212
   76MOL   C16121311   4.478   4.461   3.448  0.7440 -0.3213 -0.3504
   76MOL   C16221312   4.359   4.736   3.663 -0.2312  0.2463 -0.0253
   76MOL   C16321313   4.313   4.864   3.651 -0.0203  0.3757  0.7066
   76MOL   H16421314   4.405   4.953   3.347  1.0917  0.1997  0.8344
   76MOL   H16521315   4.521   4.720   3.352 -1.4867  1.7701 -1.6310
   76MOL   H16621316   4.442   4.500   3.653  2.6223  0.3518  0.2188
   76MOL   H16721317   4.490   4.509   3.352  0.0105 -2.8077 -1.7410
   76MOL   H16821318   4.342   4.692   3.760 -1.0425  1.0845  0.2214
   76MOL   H16921319   4.256   4.904   3.733 -0.6838  1.7509 -0.4004
   76MOL   C17021320   4.465   4.313   3.447 -0.4493  0.2145  0.7503
   76MOL   C17121321   4.483   4.241   3.322  0.1663  0.2319 -0.2593
   76MOL   C17221322   4.443   4.108   3.321 -0.1250  0.4518 -0.7753
   76MOL   C17321323   4.386   4.045   3.441 -0.6367  0.1227  0.0444
   76MOL   C17421324   4.301   3.931   3.417 -0.1847 -0.0457 -0.2117
   76MOL   C17521325   4.197   3.901   3.492  0.4275 -0.1248  0.6572
   76MOL   C17621326   4.402   4.108   3.563  0.3923  0.4359  0.2514
   76MOL   C17721327   4.431   4.245   3.566  0.2962 -0.6421 -0.0265
   76MOL   H17821328   4.519   4.284   3.230 -1.0716 -0.8968 -1.2793
   76MOL   H17921329   4.451   4.048   3.232  2.3192 -1.3830  0.5761
   76MOL   H18021330   4.317   3.860   3.338  0.2368 -0.6743  0.4309
   76MOL   H18121331   4.173   3.963   3.577  0.6769 -1.1224  1.4645
   76MOL   H18221332   4.369   4.063   3.656 -1.1390  1.4818  0.2448
   76MOL   H18321333   4.425   4.298   3.659  1.2377 -3.3542  1.6540
   76MOL   C18421334   4.096   3.793   3.467  0.6193 -0.4765 -0.7266
   76MOL   C18521335   3.965   3.810   3.524 -0.5128 -0.2714 -0.0772
   76MOL   C18621336   3.850   3.727   3.499 -0.7878  0.1700 -0.5042
   76MOL   C18721337   3.865   3.627   3.403 -0.0230  0.0821  0.4309
   76MOL   C18821338   3.737   3.573   3.351 -0.2250  0.0917 -0.3962
   76MOL   C18921339   3.721   3.491   3.247  0.1305  0.1513 -0.2701
   76MOL   C19021340   3.991   3.600   3.349  0.2518  0.0213 -0.1632
   76MOL   C19121341   4.102   3.684   3.380  0.5429  0.1787 -0.6512
   76MOL   H19221342   3.938   3.887   3.595  4.0152  0.4490  1.0036
   76MOL   H19321343   3.750   3.747   3.536 -1.0248  1.0528 -1.5904
   76MOL   H19421344   3.645   3.613   3.392 -1.4292  1.2449 -4.0558
   76MOL   H19521345   3.808   3.449   3.198  0.8510  1.9748 -0.5961
   76MOL   H19621346   4.000   3.524   3.273 -1.8060  1.1619 -1.5946
   76MOL   H19721347   4.195   3.641   3.347  0.9403  2.6833 -2.9081
   76MOL   C19821348   3.590   3.456   3.188  0.4882  0.4725 -0.6936
   76MOL   C19921349   3.476   3.545   3.210  0.3143 -0.3031 -0.0420
   76MOL   C20021350   3.351   3.519   3.145 -0.2529  0.3348 -0.1380
   76MOL   C20121351   3.327   3.404   3.067 -0.0424 -0.4390  0.3082
   76MOL   C20221352   3.199   3.366   3.002 -0.6059 -0.1996  0.5123
   76MOL   C20321353   3.076   3.415   3.026  0.5245  0.4929 -0.7816
   76MOL   C20421354   3.440   3.318   3.059 -0.6710  0.3665 -0.1119
   76MOL   C20521355   3.573   3.341   3.112 -0.2300 -0.1677 -0.2212
   76MOL   H20621356   3.488   3.639   3.261  0.9256 -1.0035  1.1408
   76MOL   H20721357   3.268   3.588   3.152  0.8248  1.4306  2.5486
   76MOL   H20821358   3.211   3.287   2.929  1.2739 -0.2562  0.8408
   76MOL   H20921359   3.056   3.497   3.094  0.0292  2.0421 -2.7469
   76MOL   H21021360   3.437   3.225   3.003 -0.1876 -0.0603  0.5657
   76MOL   H21121361   3.659   3.281   3.089  1.2938  0.6712  2.9885
   76MOL   C21221362   2.961   3.372   2.952  0.6214  0.1925 -0.0766
   76MOL   C21321363   2.949   3.300   2.831  0.0864  0.3557  0.0276
   76MOL   C21421364   2.825   3.275   2.768 -0.8492 -0.1213 -0.5403
   76MOL   C21521365   2.705   3.320   2.830 -0.2782 -0.0815 -0.1890
   76MOL   C21621366   2.581   3.277   2.773 -0.1522 -0.6833 -0.0081
   76MOL   C21721367   2.463   3.300   2.828 -0.2084 -0.3188 -0.1049
   76MOL   C21821368   2.716   3.389   2.957  0.4269 -0.4518 -0.1988
   76MOL   C21921369   2.842   3.406   3.012  0.0371  0.0939 -0.7492
   76MOL   H22021370   3.044   3.257   2.801  0.5541  2.1827 -1.1809
   76MOL   H22121371   2.829   3.213   2.680  0.4421  0.5797 -0.9823
   76MOL   H22221372   2.592   3.226   2.678  0.4225 -0.4282 -0.0803
   76MOL   H22321373   2.454   3.355   2.920 -3.3120  0.3797 -0.7656
   76MOL   H22421374   2.628   3.430   3.003  1.0239  1.4466 -0.6945
   76MOL   H22521375   2.847   3.447   3.111  0.2778  2.1496 -1.5827
   76MOL   C22621376   2.322   3.263   2.783  0.2980 -0.3312 -0.0690
   76MOL   C22721377   2.305   3.192   2.658  0.2128  0.3475 -0.3360
   76MOL   C22821378   2.177   3.139   2.623 -0.3831  0.0577 -0.6512
   76MOL   C22921379   2.066   3.167   2.702 -1.2872  0.1685 -0.3057
   76MOL   C23021380   1.934   3.111   2.682 -0.0783  0.2728  0.4359
   76MOL   C23121381   1.901   2.990   2.625 -0.1937  0.7472  1.2052
   76MOL   C23221382   2.082   3.237   2.823 -0.1812 -1.2684  0.3884
   76MOL   C23321383   2.211   3.287   2.865  0.7739  0.0061  0.6368
   76MOL   H23421384   2.390   3.168   2.596 -1.5950 -0.2949 -2.6446
   76MOL   H23521385   2.159   3.079   2.535 -2.6708  0.9568 -0.8256
   76MOL   H23621386   1.856   3.182   2.704 -1.5478 -0.6444 -1.6944
   76MOL   H23721387   1.986   2.927   2.605 -1.4269 -0.2957 -0.9105
   76MOL   H23821388   1.999   3.251   2.890  0.9576  0.4330  1.4994
   76MOL   H23921389   2.222   3.343   2.956  0.5071  0.6938  0.2425
   76MOL   C24021390   1.767   2.943   2.580 -0.2045 -0.3866 -0.6743
   76MOL   C24121391   1.673   3.037   2.531 -0.1224  0.4482 -0.6868
   76MOL   C24221392   1.542   2.989   2.493 -0.2123 -0.7543  0.2733
   76MOL   C24321393   1.511   2.856   2.487 -0.6852 -0.1366  0.3840
   76MOL   C24421394   1.388   2.808   2.427  0.0954  0.4261 -0.0768
   76MOL   C24521395   1.275   2.878   2.424 -0.0761 -0.0419  0.1860
   76MOL   C24621396   1.611   2.762   2.538  0.3911 -0.1650  0.1121
   76MOL   C24721397   1.733   2.810   2.589 -0.0248 -0.0940  0.5028
   76MOL   H24821398   1.691   3.143   2.526  0.2017  0.3550 -1.7302
   76MOL   H24921399   1.471   3.064   2.463  0.0987 -0.8206 -0.6543
   76MOL   H25021400   1.406   2.712   2.381 -1.2163 -0.0452  0.3625
   76MOL   H25121401   1.281   2.969   2.481  1.2795  0.8471 -1.3523
   76MOL   H25221402   1.596   2.656   2.551  0.7469 -0.0160  1.8758
   76MOL   H25321403   1.808   2.746   2.632 -0.9647 -0.2352  1.9642
   76MOL   C25421404   1.141   2.850   2.364  0.8649  0.3741 -0.2300
   76MOL   C25521405   1.128   2.744   2.266 -0.1561  0.0351  0.3124
   76MOL   C25621406   0.998   2.704   2.225 -0.4103  0.0114 -0.3725
   76MOL   C25721407   0.885   2.768   2.281  0.3479  0.6597 -0.2702
   76MOL   C25821408   0.749   2.726   2.243  0.2601 -0.1577  0.5880
   76MOL   C25921409   0.675   2.764   2.141  0.7896 -0.0259  0.8092
   76MOL   C26021410   0.902   2.871   2.377 -0.0747  0.4933 -0.4318
   76MOL   C26121411   1.028   2.920   2.413 -0.4411  0.6436  0.2855
   76MOL   H26221412   1.210   2.693   2.217 -0.4166  1.4413 -1.5882
   76MOL   H26321413   0.989   2.630   2.146  1.3965  1.0367 -1.5753
   76MOL   H26421414   0.695   2.652   2.299 -0.6616 -0.6872 -0.9508
   76MOL   H26521415   0.580   2.715   2.127  1.5027 -1.5905  1.3482
   76MOL   H26621416   0.813   2.917   2.419  0.4454  1.5801 -0.5071
   76MOL   H26721417   1.020   2.997   2.489  0.0006  0.4418  0.5367
   76MOL   C26821418   0.716   2.869   2.041 -0.1883  0.1930  0.2203
   76MOL   C26921419   0.742   2.829   1.910  0.4277  0.1056  0.8442
   76MOL   C27021420   0.785   2.923   1.812 -0.7753 -0.6946 -0.1424
   76MOL   C27121421   0.800   3.055   1.853 -0.1431  0.2778  0.3232
   76MOL   C27221422   0.855   3.156   1.754 -0.3357 -0.2170  1.0169
   76MOL   C27321423   0.839   3.138   1.623  0.2312 -0.1639 -0.2310
   76MOL   C27421424   0.770   3.096   1.984 -0.0394  1.1841  0.1182
   76MOL   C27521425   0.734   2.998   2.079  0.6287 -0.3505  0.3440
   76MOL   H27621426   0.734   2.726   1.879 -0.2495 -0.6039  3.2667
   76MOL   H27721427   0.807   2.893   1.711 -1.0910 -1.7058  0.0871
   76MOL   H27821428   0.908   3.240   1.796 -0.4758  1.5749 -2.1867
   76MOL   H27921429   0.789   3.056   1.572  0.1756 -2.1259  2.8492
   76MOL   H28021430   0.780   3.194   2.026 -0.9375  0.6705  1.5523
   76MOL   H28121431   0.714   3.030   2.180  0.0313 -0.3450  0.2264
   76MOL   H28221432   0.879   3.215   1.560 -3.1407  1.3022 -0.6874
   77MOL     C121433   4.101   8.072   0.846  0.1737 -0.4730  0.4804
   77MOL     C221434   3.993   8.018   0.922  0.4956 -0.2387 -0.3655
   77MOL     C321435   4.012   7.950   1.041 -0.1463  0.1180 -0.1881
   77MOL     C421436   4.145   7.907   1.078  0.0596  0.3137  0.1142
   77MOL     C521437   4.154   7.830   1.197  0.2503 -0.4102  0.3673
   77MOL     C621438   4.269   7.776   1.235  0.5859  0.2133  0.1748
   77MOL     C721439   4.253   7.945   0.988  0.4430  0.6041  0.7133
   77MOL     C821440   4.231   8.027   0.881  0.1096  0.2219 -0.1684
   77MOL     H921441   3.898   8.054   0.888  0.9048 -0.2336 -1.5305
   77MOL    H1021442   3.922   7.942   1.099  1.2799 -1.4956  1.9011
   77MOL    H1121443   4.065   7.821   1.259 -0.3172  1.3066 -0.1773
   77MOL    H1221444   4.354   7.785   1.169 -0.8436 -0.1055 -1.7433
   77MOL    H1321445   4.354   7.909   1.004 -0.1082 -0.6981  1.4244
   77MOL    H1421446   4.317   8.051   0.820 -0.7382 -0.8903 -1.8240
   77MOL    H1521447   4.080   8.144   0.768 -1.6652  1.1542  2.4157
   77MOL    C1621448   4.295   7.711   1.372  0.0688  0.5683 -0.0719
   77MOL    C1721449   4.414   7.640   1.389 -0.3146  0.0687 -0.5629
   77MOL    C1821450   4.445   7.593   1.519  0.2034  0.0351  0.3499
   77MOL    C1921451   4.358   7.615   1.628 -0.2708 -0.3665  0.4483
   77MOL    C2021452   4.403   7.582   1.765 -0.8442  0.5290 -0.7944
   77MOL    C2121453   4.345   7.617   1.878  0.1325  0.0954 -0.1371
   77MOL    C2221454   4.235   7.678   1.604 -0.1122  0.2847  0.6102
   77MOL    C2321455   4.203   7.732   1.478 -0.3031  0.8124 -0.4444
   77MOL    H2421456   4.480   7.625   1.305 -1.3108 -0.8695 -1.1871
   77MOL    H2521457   4.539   7.543   1.534 -0.1831 -0.9786 -0.5414
   77MOL    H2621458   4.500   7.535   1.776 -1.6692 -0.9944  0.1149
   77MOL    H2721459   4.244   7.654   1.873 -0.5587 -1.9015 -1.4115
   77MOL    H2821460   4.165   7.710   1.680 -1.3841  1.0025 -0.8328
   77MOL    H2921461   4.114   7.792   1.464 -0.5487  0.7505  0.7718
   77MOL    C3021462   4.405   7.612   2.012  0.1441 -0.7731  0.1727
   77MOL    C3121463   4.339   7.682   2.117 -0.0931  0.2036 -0.0792
   77MOL    C3221464   4.392   7.691   2.251  0.4893  0.2698  0.5617
   77MOL    C3321465   4.514   7.628   2.282 -0.4560  0.7573 -1.2578
   77MOL    C3421466   4.588   7.644   2.408  0.7452  1.1225  0.7627
   77MOL    C3521467   4.548   7.694   2.524  0.0170  0.4483  0.2782
   77MOL    C3621468   4.582   7.562   2.171 -0.2406  0.1831  0.1050
   77MOL    C3721469   4.527   7.551   2.041 -0.3077 -0.2685  0.3873
   77MOL    H3821470   4.247   7.734   2.099 -0.2312  1.1512  2.9475
   77MOL    H3921471   4.338   7.755   2.319  1.1494  0.6840  0.7033
   77MOL    H4021472   4.683   7.593   2.397 -0.2639 -1.1602  2.3699
   77MOL    H4121473   4.451   7.741   2.540 -1.2240 -2.2006  0.7406
   77MOL    H4221474   4.674   7.509   2.191 -0.5959  0.1066  1.6184
   77MOL    H4321475   4.579   7.490   1.968  1.1047  1.0196  0.2963
   77MOL    C4421476   4.639   7.713   2.638  0.6327 -0.3004  0.1505
   77MOL    C4521477   4.583   7.756   2.764  0.7555 -0.3656  0.1062
   77MOL    C4621478   4.665   7.763   2.874  0.1838  0.0491  0.1475
   77MOL    C4721479   4.802   7.737   2.874 -0.2020  1.0662  0.7261
   77MOL    C4821480   4.892   7.756   2.991  0.4464  0.9628  0.1318
   77MOL    C4921481   4.866   7.835   3.092 -0.4990 -0.5138 -0.1012
   77MOL    C5021482   4.859   7.699   2.748  0.1795  0.2355 -0.3572
   77MOL    C5121483   4.781   7.682   2.631  0.2240 -0.2637 -0.2788
   77MOL    H5221484   4.477   7.776   2.773  0.4488 -2.0614  0.4294
   77MOL    H5321485   4.617   7.790   2.967 -0.3106  0.4817 -0.2289
   77MOL    H5421486   4.982   7.697   2.982  0.6058  0.9372  1.8078
   77MOL    H5521487   4.771   7.886   3.089 -0.9516 -1.3323  0.2172
   77MOL    H5621488   4.967   7.690   2.745  0.1736  0.0874 -0.1044
   77MOL    H5721489   4.818   7.633   2.541  1.6918  0.4646 -0.0868
   77MOL    C5821490   4.964   7.863   3.200 -0.2203 -0.2654  0.2707
   77MOL    C5921491   5.099   7.817   3.197 -0.2558  0.2972  0.4574
   77MOL    C6021492   5.193   7.844   3.299  0.6864  0.0545  0.1260
   77MOL    C6121493   5.152   7.922   3.408 -0.0660 -0.5358  0.3308
   77MOL    C6221494   5.250   7.956   3.511  0.0521 -0.9822 -0.5116
   77MOL    C6321495   5.382   7.956   3.492  0.2155  0.5293 -0.5199
   77MOL    C6421496   5.020   7.979   3.416  0.4376  0.0647  0.0570
   77MOL    C6521497   4.931   7.947   3.304  0.2195  0.0359 -0.7368
   77MOL    H6621498   5.122   7.747   3.117 -0.3090 -1.8928  2.3245
   77MOL    H6721499   5.288   7.797   3.279  0.6126  1.2776 -3.4881
   77MOL    H6821500   5.213   7.984   3.609  1.7790  0.9168 -0.3866
   77MOL    H6921501   5.417   7.925   3.395 -0.7016  0.3771 -0.8075
   77MOL    H7021502   4.995   8.050   3.494  1.7145 -0.4794  0.9867
   77MOL    H7121503   4.833   7.991   3.308  0.7704  1.1676  0.6591
   77MOL    C7221504   5.486   7.977   3.590  0.0415  0.1836 -0.2989
   77MOL    C7321505   5.458   7.995   3.727 -0.5567  0.2252  0.0601
   77MOL    C7421506   5.565   7.997   3.819  0.0995 -0.2341 -0.3499
   77MOL    C7521507   5.699   7.988   3.780 -0.2191 -0.0343 -0.6013
   77MOL    C7621508   5.794   7.981   3.888  0.1873 -0.1927 -0.2735
   77MOL    C7721509   5.926   8.012   3.876  0.2546  0.2436 -0.1088
   77MOL    C7821510   5.732   7.976   3.644  0.3260 -0.8627 -0.1300
   77MOL    C7921511   5.623   7.971   3.550 -0.4635  1.2663 -0.5396
   77MOL    H8021512   5.362   8.002   3.775 -0.0391  1.1057  0.9877
   77MOL    H8121513   5.546   8.014   3.924 -1.5683 -0.8732 -0.5335
   77MOL    H8221514   5.750   7.947   3.981 -0.6481 -0.5019 -0.7829
   77MOL    H8321515   5.953   8.055   3.781 -0.2308  0.0108 -0.3557
   77MOL    H8421516   5.835   7.976   3.610  0.7836  1.2312  1.1585
   77MOL    H8521517   5.644   7.962   3.445 -0.8864 -1.7660 -0.4067
   77MOL    C8621518   6.030   7.991   3.973 -0.1065 -0.5609  0.2514
   77MOL    C8721519   5.999   7.925   4.094  0.9303 -0.0788  0.9654
   77MOL    C8821520   6.104   7.899   4.180  0.5282 -0.4780  0.2589
   77MOL    C8921521   6.242   7.940   4.149 -0.0419  0.2153 -0.9297
   77MOL    C9021522   6.345   7.926   4.253 -0.2185  0.4742  0.0540
   77MOL    C9121523   6.471   7.974   4.258 -0.3726 -0.3916  0.4099
   77MOL    C9221524   6.266   8.000   4.029 -0.0938 -0.4362  0.0699
   77MOL    C9321525   6.160   8.022   3.944 -0.2585  0.4692 -0.3115
   77MOL    H9421526   5.898   7.899   4.121  0.0191  0.4432 -1.6925
   77MOL    H9521527   6.070   7.852   4.271 -1.3012  0.7099  0.2098
   77MOL    H9621528   6.314   7.859   4.332 -0.6090 -0.4733 -0.8990
   77MOL    H9721529   6.508   8.039   4.180 -1.7595  0.7315  0.6826
   77MOL    H9821530   6.367   8.030   4.004 -0.3503  0.3366 -0.0503
   77MOL    H9921531   6.178   8.045   3.840 -0.5882  0.8135 -0.2907
   77MOL   C10021532   6.561   7.949   4.379 -0.5228  0.2202  0.2738
   77MOL   C10121533   6.702   7.953   4.360  0.6487  1.1365 -0.4890
   77MOL   C10221534   6.799   7.930   4.462 -0.1687 -0.5367  0.0313
   77MOL   C10321535   6.753   7.895   4.587 -0.3816 -0.0358 -0.3215
   77MOL   C10421536   6.852   7.848   4.681 -0.1105 -0.0801  0.4982
   77MOL   C10521537   6.827   7.799   4.808 -0.0385 -0.0590 -0.5951
   77MOL   C10621538   6.611   7.889   4.613  0.1934  0.7653 -0.2195
   77MOL   C10721539   6.519   7.919   4.513  0.5289 -0.0968 -0.1477
   77MOL   H10821540   6.749   7.967   4.264  2.5606  1.4604  0.4557
   77MOL   H10921541   6.901   7.937   4.429 -0.5957 -1.1338 -1.4371
   77MOL   H11021542   6.956   7.860   4.655 -0.2943  1.4189  0.3979
   77MOL   H11121543   6.723   7.797   4.835 -0.4267  3.4017 -1.5882
   77MOL   H11221544   6.577   7.850   4.708 -1.8634  0.8347 -0.8916
   77MOL   H11321545   6.416   7.922   4.543  0.2701 -4.3614 -0.3551
   77MOL   C11421546   6.924   7.755   4.911 -0.4625  0.0046 -0.3706
   77MOL   C11521547   6.873   7.697   5.026 -0.0015  0.2799 -0.1466
   77MOL   C11621548   6.964   7.645   5.124 -0.2081 -0.0302  0.2387
   77MOL   C11721549   7.104   7.640   5.096 -0.3539 -0.2118 -0.4910
   77MOL   C11821550   7.203   7.583   5.185  0.0205 -0.6251 -0.0497
   77MOL   C11921551   7.163   7.514   5.302 -0.3277  0.0066  0.8083
   77MOL   C12021552   7.153   7.690   4.971 -0.5854 -0.0315  0.6582
   77MOL   C12121553   7.063   7.747   4.882 -0.4480  0.3803 -0.7094
   77MOL   H12221554   6.766   7.701   5.035  0.0345 -0.1374  0.4533
   77MOL   H12321555   6.921   7.611   5.217 -2.7146  0.8202 -0.5660
   77MOL   H12421556   7.307   7.588   5.157  0.2275 -2.2791  0.3827
   77MOL   H12521557   7.059   7.516   5.329 -0.5300 -0.5699  0.1003
   77MOL   H12621558   7.260   7.700   4.961 -0.1798  0.2917  4.7023
   77MOL   H12721559   7.112   7.791   4.796  2.0544 -1.4395 -0.2746
   77MOL   C12821560   7.254   7.444   5.399  0.0712 -0.3208  1.0232
   77MOL   C12921561   7.385   7.413   5.362 -0.3947  0.6143  0.0650
   77MOL   C13021562   7.460   7.347   5.457  0.3334  1.0056  0.1046
   77MOL   C13121563   7.411   7.308   5.580  0.1684 -0.4343 -0.5241
   77MOL   C13221564   7.500   7.232   5.671  1.5176  0.6482  0.3327
   77MOL   C13321565   7.460   7.169   5.782  0.5127  0.9397 -0.7558
   77MOL   C13421566   7.275   7.340   5.613 -0.1063  0.0132  0.1572
   77MOL   C13521567   7.193   7.406   5.518  0.2320  0.4590 -0.2598
   77MOL   H13621568   7.415   7.439   5.262 -0.6045 -0.6396 -0.3326
   77MOL   H13721569   7.561   7.320   5.431  0.7991  1.0302  1.8244
   77MOL   H13821570   7.603   7.227   5.640  0.8092 -0.2460 -1.9710
   77MOL   H13921571   7.356   7.166   5.809  0.8344  0.1352  0.4406
   77MOL   H14021572   7.224   7.314   5.704  0.0266  1.2324  0.5849
   77MOL   H14121573   7.089   7.429   5.534  0.2402  0.3847 -0.0865
   77MOL   C14221574   7.542   7.088   5.868  0.4675  0.2660  0.4148
   77MOL   C14321575   7.487   7.050   5.994  0.0011  0.1664  0.3406
   77MOL   C14421576   7.543   6.952   6.074  0.1707  0.1214 -0.0744
   77MOL   C14521577   7.664   6.891   6.038 -0.4604  0.2362  0.5679
   77MOL   C14621578   7.728   6.783   6.113 -0.0195 -0.0409 -0.0895
   77MOL   C14721579   7.662   6.692   6.186  0.0138  0.3276  0.1378
   77MOL   C14821580   7.727   6.929   5.919  0.2713  0.5035 -0.1353
   77MOL   C14921581   7.665   7.025   5.833 -0.3047  0.3056  0.6509
   77MOL   H15021582   7.386   7.084   6.007  0.0682  0.6199 -0.2599
   77MOL   H15121583   7.482   6.915   6.156  1.7256  1.4702  1.7477
   77MOL   H15221584   7.836   6.786   6.110 -0.0752  1.1118 -1.1519
   77MOL   H15321585   7.554   6.684   6.181  0.1657 -2.2344  0.0408
   77MOL   H15421586   7.826   6.897   5.890  0.5944 -0.3212  1.8025
   77MOL   H15521587   7.719   7.049   5.742 -0.6290  0.0096  0.3821
   77MOL   C15621588   7.719   6.594   6.279 -1.0295 -0.0479  0.0333
   77MOL   C15721589   7.840   6.618   6.346 -0.0139 -0.1268  0.2640
   77MOL   C15821590   7.888   6.529   6.442 -0.3819  0.3657 -0.8303
   77MOL   C15921591   7.819   6.409   6.475  0.0044  0.2309 -0.6229
   77MOL   C16021592   7.884   6.315   6.574  0.2232  0.1714 -0.4504
   77MOL   C16121593   7.873   6.185   6.565 -0.4173 -0.2072 -0.0312
   77MOL   C16221594   7.705   6.377   6.396 -0.5815 -0.0086  0.0113
   77MOL   C16321595   7.658   6.467   6.299  0.3858  0.5127 -0.0516
   77MOL   H16421596   7.889   6.713   6.327  0.2999 -0.0659  1.3543
   77MOL   H16521597   7.978   6.550   6.499  0.4247 -0.8675 -1.6232
   77MOL   H16621598   7.936   6.360   6.657  0.5006 -1.7237  0.4012
   77MOL   H16721599   7.816   6.137   6.488 -0.3295 -1.8416  0.8766
   77MOL   H16821600   7.661   6.280   6.408  0.8700 -0.5901  0.7614
   77MOL   H16921601   7.564   6.453   6.248 -0.2322  0.3453  1.1369
   77MOL   C17021602   7.929   6.094   6.670 -0.3060  0.8002 -0.2571
   77MOL   C17121603   7.948   5.961   6.630  0.1710  0.4104  0.3886
   77MOL   C17221604   8.011   5.875   6.724  0.4051  0.1537 -0.2051
   77MOL   C17321605   8.050   5.922   6.853  0.3069  0.7418  0.4204
   77MOL   C17421606   8.099   5.817   6.941  0.1177  0.5525  0.5287
   77MOL   C17521607   8.136   5.830   7.069 -0.2762 -0.3176  0.0849
   77MOL   C17621608   8.035   6.058   6.889 -0.6771 -0.8569  0.1060
   77MOL   C17721609   7.974   6.141   6.797 -0.4439  0.3375  0.4168
   77MOL   H17821610   7.911   5.924   6.536  1.7793  2.0190 -0.9087
   77MOL   H17921611   8.012   5.771   6.696  0.3250 -0.1594  0.9137
   77MOL   H18021612   8.093   5.716   6.904  0.9226  0.8597 -0.4561
   77MOL   H18121613   8.134   5.931   7.106 -1.3272 -1.3303  2.9142
   77MOL   H18221614   8.073   6.090   6.984  0.0758  2.9391 -1.3859
   77MOL   H18321615   7.943   6.243   6.813  1.7359  0.9766  0.6185
   77MOL   C18421616   0.044   5.729   7.155  0.2673  0.1229 -0.1840
   77MOL   C18521617   0.032   5.590   7.133 -0.1607 -0.2994 -0.0940
   77MOL   C18621618   0.083   5.492   7.226 -0.4104 -0.2727 -0.0120
   77MOL   C18721619   0.144   5.529   7.347 -0.3944 -0.0316  0.1472
   77MOL   C18821620   0.178   5.422   7.445 -0.4990  0.0008  0.3885
   77MOL   C18921621   0.264   5.441   7.550  0.2283 -0.0468  0.3857
   77MOL   C19021622   0.157   5.668   7.370 -0.7965  0.0154 -0.2083
   77MOL   C19121623   0.113   5.764   7.278 -0.2660  0.2921  0.4833
   77MOL   H19221624   8.124   5.557   7.044 -1.0268 -0.0177  0.3023
   77MOL   H19321625   0.075   5.388   7.196 -0.4400 -0.4717  0.6883
   77MOL   H19421626   0.142   5.322   7.429  2.3365 -0.8102 -1.4647
   77MOL   H19521627   0.303   5.542   7.546 -0.3457  0.1251 -1.0939
   77MOL   H19621628   0.217   5.707   7.451  1.0137 -0.1416 -1.4233
   77MOL   H19721629   0.131   5.869   7.293  1.0996  0.1539 -0.0967
   77MOL   C19821630   0.301   5.352   7.658  0.1049 -0.1150  0.6811
   77MOL   C19921631   0.407   5.395   7.740  0.3905 -0.2740  0.1067
   77MOL   C20021632   0.438   5.314   7.851 -0.3770  0.6085 -0.4336
   77MOL   C20121633   0.366   5.198   7.888 -0.0100  0.0745  1.0852
   77MOL   C20221634   0.397   5.108   8.007 -0.1613  0.4314  0.0172
   77MOL   C20321635   0.515   5.109   8.069 -0.3573  0.7636 -0.7099
   77MOL   C20421636   0.257   5.162   7.802 -0.3288 -0.4067 -0.9828
   77MOL   C20521637   0.227   5.241   7.692 -0.5476 -0.0271  0.1941
   77MOL   H20621638   0.469   5.481   7.717  2.0058 -1.3910  0.1469
   77MOL   H20721639   0.522   5.344   7.912  0.1337 -1.6189 -0.0261
   77MOL   H20821640   0.309   5.056   8.039 -0.3331  0.9288  0.3569
   77MOL   H20921641   0.592   5.170   8.026  0.1579 -0.4808 -1.5811
   77MOL   H21021642   0.200   5.074   7.829  0.1170 -0.0952  1.0427
   77MOL   H21121643   0.142   5.208   7.633  0.7705 -1.6819 -0.8467
   77MOL   C21221644   0.548   5.018   0.039 -0.1123 -0.2167 -0.0095
   77MOL   C21321645   0.459   4.934   0.106  0.3022 -0.1100 -0.1898
   77MOL   C21421646   0.500   4.855   0.215 -0.2706  0.1344  0.3668
   77MOL   C21521647   0.637   4.863   0.259 -0.3458  0.8121  0.5404
   77MOL   C21621648   0.674   4.791   0.376  0.5622 -0.4516 -0.0776
   77MOL   C21721649   0.791   4.785   0.435  0.0694  0.4836  0.5829
   77MOL   C21821650   0.725   4.950   0.201 -0.0194  1.0375  0.9643
   77MOL   C21921651   0.684   5.024   0.084 -0.2615 -0.1210 -0.8949
   77MOL   H22021652   0.359   4.919   0.068  0.5775 -2.0288 -0.2088
   77MOL   H22121653   0.419   4.802   0.263 -1.2200  0.0526 -1.3001
   77MOL   H22221654   0.601   4.726   0.421  1.5103 -2.0642 -0.8329
   77MOL   H22321655   0.869   4.842   0.386  0.5550  0.2976  1.1429
   77MOL   H22421656   0.822   4.969   0.243  0.4541  2.0555 -0.5337
   77MOL   H22521657   0.754   5.091   0.036 -0.4412 -0.2053 -1.2778
   77MOL   C22621658   0.820   4.713   0.560  0.8842 -0.6578  0.2567
   77MOL   C22721659   0.722   4.634   0.629 -0.5165  0.3321 -0.5402
   77MOL   C22821660   0.757   4.561   0.746  0.4273  0.4655 -0.5572
   77MOL   C22921661   0.888   4.553   0.790  0.4322  0.1577  0.3631
   77MOL   C23021662   0.915   4.458   0.905  0.8077  0.2323  0.0644
   77MOL   C23121663   0.838   4.353   0.939 -0.0497 -0.6809  0.1511
   77MOL   C23221664   0.986   4.629   0.729 -0.2103  0.4602 -0.1511
   77MOL   C23321665   0.951   4.702   0.612  0.5461  0.1520  0.1045
   77MOL   H23421666   0.618   4.643   0.602 -0.5000  0.6795 -0.4922
   77MOL   H23521667   0.679   4.510   0.801  0.5577  1.8462  0.9542
   77MOL   H23621668   1.000   4.473   0.970 -0.3079 -2.7144  2.2844
   77MOL   H23721669   0.751   4.328   0.880 -0.1004 -0.3046  0.0653
   77MOL   H23821670   1.084   4.634   0.774 -0.1848  0.9748 -0.2575
   77MOL   H23921671   1.032   4.755   0.564  1.5608 -1.3396  0.1353
   77MOL   C24021672   0.852   4.276   1.064 -0.0316 -0.0086 -0.4448
   77MOL   C24121673   0.962   4.295   1.149 -0.5398 -0.2838 -0.9142
   77MOL   C24221674   0.969   4.225   1.275  0.6623 -0.6782 -0.7897
   77MOL   C24321675   0.862   4.140   1.314 -0.5846 -0.1754 -0.5203
   77MOL   C24421676   0.867   4.059   1.438 -0.3344 -0.2364 -0.7023
   77MOL   C24521677   0.960   4.075   1.530 -0.1671 -0.0136  0.0647
   77MOL   C24621678   0.755   4.122   1.230  0.1255  0.3714  0.5534
   77MOL   C24721679   0.749   4.188   1.105 -0.5210  0.7389 -0.5581
   77MOL   H24821680   1.029   4.379   1.138 -1.8731  0.6893 -1.7525
   77MOL   H24921681   1.044   4.251   1.348 -1.8426  0.4623  1.4535
   77MOL   H25021682   0.789   3.985   1.446  0.8397 -1.4009  0.3517
   77MOL   H25121683   1.027   4.159   1.523 -1.2843  0.9543  0.6355
   77MOL   H25221684   0.683   4.045   1.249  0.3491 -0.4149 -1.6357
   77MOL   H25321685   0.666   4.177   1.037  0.2655 -1.6476 -1.1673
   77MOL   C25421686   0.964   3.991   1.656 -0.4765 -0.2627 -0.2714
   77MOL   C25521687   1.089   3.967   1.715 -0.5253 -0.3481  0.0907
   77MOL   C25621688   1.111   3.891   1.829 -0.2710 -0.3688 -0.3334
   77MOL   C25721689   0.995   3.833   1.885 -0.0351 -0.1323  0.0721
   77MOL   C25821690   1.007   3.751   2.003  0.6808 -0.3748 -0.0758
   77MOL   C25921691   1.098   3.654   2.021  0.3895 -0.4334  0.0915
   77MOL   C26021692   0.872   3.836   1.826 -0.2098  0.2366  0.0307
   77MOL   C26121693   0.860   3.917   1.708  0.0899  0.2894  0.1164
   77MOL   H26221694   1.173   4.013   1.666 -1.1533  0.9877  0.2667
   77MOL   H26321695   1.210   3.880   1.870 -0.5773  0.6169  0.6992
   77MOL   H26421696   0.934   3.757   2.082  1.8362 -0.7625  1.0447
   77MOL   H26521697   1.089   3.595   2.111 -2.0438 -0.0409  0.1377
   77MOL   H26621698   0.786   3.781   1.860 -1.5656  1.6966 -0.9690
   77MOL   H26721699   0.765   3.929   1.657  0.8562  1.5977 -1.0358
   77MOL   C26821700   1.206   3.615   1.929 -0.3009  0.3756 -0.9223
   77MOL   C26921701   1.182   3.566   1.796  0.0735 -0.5212 -0.0797
   77MOL   C27021702   1.298   3.538   1.724 -0.0059 -0.5137 -0.3779
   77MOL   C27121703   1.424   3.526   1.777 -0.1637 -0.1887  0.4564
   77MOL   C27221704   1.545   3.494   1.701 -0.0457  0.4061  0.2647
   77MOL   C27321705   1.550   3.468   1.571  0.1477 -0.5392 -0.0259
   77MOL   C27421706   1.442   3.559   1.914  0.4507  0.1278 -0.1476
   77MOL   C27521707   1.331   3.611   1.988 -0.5233 -0.1565  0.0719
   77MOL   H27621708   1.080   3.570   1.762  0.0045  0.4219  0.2308
   77MOL   H27721709   1.278   3.511   1.621  0.1420 -1.4364 -0.1689
   77MOL   H27821710   1.639   3.474   1.751  0.8076 -1.6261 -2.0754
   77MOL   H27921711   1.464   3.480   1.507  0.7623 -0.8696 -0.9259
   77MOL   H28021712   1.536   3.574   1.965 -1.3093 -0.4685  3.3684
   77MOL   H28121713   1.350   3.658   2.083  1.4281  0.0623 -0.4124
   77MOL   H28221714   1.642   3.431   1.527 -0.1461 -1.8833  0.4650
   78MOL     C121715   3.248   1.979   0.433 -0.1626 -0.4251  0.0162
   78MOL     C221716   3.339   2.082   0.478 -0.4293 -0.3880  0.3570
   78MOL     C321717   3.386   2.076   0.614 -0.0039 -0.7358  0.1081
   78MOL     C421718   3.328   1.988   0.713  0.8135 -0.0745  0.7993
   78MOL     C521719   3.377   1.982   0.849  0.7859  1.1346 -0.5129
   78MOL     C621720   3.494   2.022   0.896  0.0441  0.0173 -0.1082
   78MOL     C721721   3.232   1.892   0.666  0.1939 -0.6921 -0.2740
   78MOL     C821722   3.196   1.888   0.531 -0.1224 -0.3129 -0.6266
   78MOL     H921723   3.384   2.155   0.413  1.8182 -0.7093  1.4861
   78MOL    H1021724   3.458   2.150   0.647  0.9149 -1.6272  0.1270
   78MOL    H1121725   3.308   1.935   0.917  0.8917  1.8964  0.1330
   78MOL    H1221726   3.563   2.063   0.824  0.0573  0.4204  0.1342
   78MOL    H1321727   3.193   1.819   0.735  0.3476  1.4129  2.1309
   78MOL    H1421728   3.134   1.805   0.502  1.0370 -0.9595 -1.2560
   78MOL    H1521729   3.223   1.975   0.328  1.9403 -0.1570 -0.5179
   78MOL    C1621730   3.536   2.003   1.037  0.2750  0.0460 -0.0375
   78MOL    C1721731   3.476   1.903   1.123  0.4746  0.2565 -0.0776
   78MOL    C1821732   3.525   1.886   1.255 -0.2480  0.8751 -0.1825
   78MOL    C1921733   3.641   1.948   1.298  0.0644  0.1813  0.8736
   78MOL    C2021734   3.713   1.928   1.425  0.0043  0.6235 -0.9063
   78MOL    C2121735   3.696   1.828   1.516  0.0186 -0.6638  0.7803
   78MOL    C2221736   3.704   2.044   1.212 -0.0807  0.5413 -0.4339
   78MOL    C2321737   3.653   2.065   1.078 -0.6879 -0.4723 -0.1324
   78MOL    H2421738   3.396   1.839   1.090 -0.7431  0.2326  2.7268
   78MOL    H2521739   3.478   1.805   1.309  1.5214 -0.3512 -0.4061
   78MOL    H2621740   3.782   2.007   1.451  1.6616 -1.2531  0.4695
   78MOL    H2721741   3.623   1.751   1.498  1.0463 -2.1353  2.6921
   78MOL    H2821742   3.788   2.107   1.235  0.3997 -0.5962  1.0246
   78MOL    H2921743   3.699   2.140   1.016  0.7298  0.0322  1.4678
   78MOL    C3021744   3.782   1.809   1.638 -0.4066  0.5291 -0.4753
   78MOL    C3121745   3.740   1.727   1.745 -0.5779  0.3045  0.0896
   78MOL    C3221746   3.823   1.709   1.857  0.2577  0.1204 -0.6438
   78MOL    C3321747   3.954   1.763   1.854  0.0868  0.1390  0.1277
   78MOL    C3421748   4.041   1.736   1.972  0.0164 -0.1953  0.0017
   78MOL    C3521749   4.155   1.799   2.009  0.4757 -0.7489 -0.6654
   78MOL    C3621750   3.994   1.849   1.748  0.4303  0.1465 -1.0686
   78MOL    C3721751   3.906   1.868   1.639 -0.1668  0.2785 -0.2211
   78MOL    H3821752   3.641   1.685   1.733 -1.0057  1.6802 -1.3721
   78MOL    H3921753   3.800   1.648   1.943  0.4713  0.0396 -0.6424
   78MOL    H4021754   4.002   1.660   2.038  2.1263 -0.5123  0.9291
   78MOL    H4121755   4.184   1.881   1.945  0.1402 -2.2061 -2.7406
   78MOL    H4221756   4.083   1.910   1.745  0.0499  0.8706  1.1769
   78MOL    H4321757   3.937   1.944   1.569 -2.6676 -0.0006 -1.6985
   78MOL    C4421758   4.245   1.779   2.122 -0.1477 -0.0475  0.1697
   78MOL    C4521759   4.208   1.703   2.230 -0.1048 -0.2664 -0.3920
   78MOL    C4621760   4.299   1.695   2.342  0.1900  0.3296  0.2001
   78MOL    C4721761   4.429   1.754   2.336  0.8925  0.8109 -0.1007
   78MOL    C4821762   4.533   1.743   2.448  0.1690  0.4497 -0.6434
   78MOL    C4921763   4.531   1.664   2.565 -0.6755 -0.7428 -0.1830
   78MOL    C5021764   4.463   1.820   2.213 -0.3645  0.0554  0.7930
   78MOL    C5121765   4.375   1.831   2.112  0.0435 -0.3179 -0.2985
   78MOL    H5221766   4.109   1.662   2.239 -0.3133  0.3536  0.1831
   78MOL    H5321767   4.258   1.642   2.426 -3.0156  0.3540 -1.2550
   78MOL    H5421768   4.614   1.810   2.424  1.7083 -1.1338  0.0065
   78MOL    H5521769   4.440   1.607   2.579 -0.8808 -0.1137  1.0632
   78MOL    H5621770   4.562   1.862   2.199 -0.5037  0.3046  0.5518
   78MOL    H5721771   4.398   1.898   2.031 -0.4853 -0.9296 -0.9594
   78MOL    C5821772   4.639   1.657   2.661  0.7918  0.0348  0.8238
   78MOL    C5921773   4.608   1.610   2.792 -0.4557 -0.1593  0.4721
   78MOL    C6021774   4.712   1.600   2.888  0.3249  0.4960 -0.1601
   78MOL    C6121775   4.843   1.635   2.862 -1.2579 -0.4464  0.3664
   78MOL    C6221776   4.956   1.625   2.962 -0.3464 -0.1489 -0.6289
   78MOL    C6321777   4.979   1.528   3.064  0.5910 -0.2499  0.6272
   78MOL    C6421778   4.871   1.674   2.729  0.1200 -0.6603  0.5678
   78MOL    C6521779   4.771   1.683   2.632 -0.1060  0.1769 -0.6965
   78MOL    H6621780   4.507   1.578   2.814 -0.5623 -1.0847 -1.2465
   78MOL    H6721781   4.702   1.567   2.990 -0.5839  0.2420 -0.3266
   78MOL    H6821782   5.019   1.712   2.956  0.1031 -0.5303 -1.3698
   78MOL    H6921783   4.903   1.453   3.080  0.1428  0.1623  0.4505
   78MOL    H7021784   4.967   1.706   2.692 -1.2301 -0.2521 -2.7323
   78MOL    H7121785   4.805   1.718   2.536  1.0993  2.6533  0.5944
   78MOL    C7221786   5.084   1.524   3.163 -0.1285 -0.2437  0.6332
   78MOL    C7321787   5.067   1.446   3.279  0.7070  0.4500 -0.1643
   78MOL    C7421788   5.164   1.448   3.384  0.1641  0.2848  0.4513
   78MOL    C7521789   5.283   1.527   3.378 -0.9239 -0.5803  0.6925
   78MOL    C7621790   5.391   1.531   3.485  0.0858  0.3079  0.2389
   78MOL    C7721791   5.515   1.546   3.472 -0.5380  0.7221 -0.9374
   78MOL    C7821792   5.297   1.599   3.258  0.0247 -0.0177 -0.2656
   78MOL    C7921793   5.202   1.596   3.152 -0.5481 -0.1159 -0.1009
   78MOL    H8021794   4.970   1.400   3.289  1.7863 -2.1147 -1.0004
   78MOL    H8121795   5.143   1.385   3.469 -1.4115 -1.7380 -1.3860
   78MOL    H8221796   5.348   1.514   3.583 -2.1154 -0.8349 -0.8842
   78MOL    H8321797   5.549   1.576   3.375 -1.1522 -1.1698 -1.7716
   78MOL    H8421798   5.384   1.659   3.240 -0.9226  1.1284 -1.1355
   78MOL    H8521799   5.224   1.655   3.065 -1.3781 -0.0255 -0.2531
   78MOL    C8621800   5.610   1.537   3.580  0.6691 -1.3662 -0.0337
   78MOL    C8721801   5.581   1.475   3.707 -0.8470  0.1694 -0.5877
   78MOL    C8821802   5.685   1.463   3.803 -0.3101 -0.7757 -0.0274
   78MOL    C8921803   5.822   1.494   3.771  1.0692 -0.0797 -0.8428
   78MOL    C9021804   5.926   1.460   3.867  0.0876 -0.1679  0.4860
   78MOL    C9121805   6.057   1.478   3.843 -0.0271 -0.2493  0.6179
   78MOL    C9221806   5.842   1.548   3.643  0.3983  0.4911 -0.0113
   78MOL    C9321807   5.743   1.576   3.549 -0.2162  0.6002  0.8600
   78MOL    H9421808   5.481   1.449   3.739 -0.6511  1.1740  0.8999
   78MOL    H9521809   5.671   1.418   3.900  1.0401 -0.4958  0.3042
   78MOL    H9621810   5.886   1.424   3.961  1.1758 -0.9820  0.6521
   78MOL    H9721811   6.093   1.510   3.747 -2.0844  0.3386  0.0152
   78MOL    H9821812   5.945   1.572   3.621  0.3940 -1.3354 -2.2261
   78MOL    H9921813   5.756   1.630   3.457  1.4846 -0.6904  0.3158
   78MOL   C10021814   6.164   1.448   3.939 -0.1733 -0.3900  0.2637
   78MOL   C10121815   6.289   1.512   3.926  0.0633 -0.4926  0.3791
   78MOL   C10221816   6.387   1.504   4.029 -0.0143 -0.1620  0.6533
   78MOL   C10321817   6.369   1.429   4.140  0.2428 -0.4412  0.0618
   78MOL   C10421818   6.479   1.416   4.240  0.2069 -0.2811  0.4045
   78MOL   C10521819   6.475   1.360   4.363  0.4933  0.1114  0.3071
   78MOL   C10621820   6.241   1.368   4.159  0.5858 -1.0790 -0.2245
   78MOL   C10721821   6.141   1.375   4.059  0.0406 -0.3162 -0.2881
   78MOL   H10821822   6.303   1.556   3.829  0.1461  2.1845  1.5483
   78MOL   H10921823   6.481   1.555   4.013 -0.8467  1.4682  0.8783
   78MOL   H11021824   6.574   1.459   4.212 -1.2314  1.2344 -2.3345
   78MOL   H11121825   6.392   1.299   4.395  0.7254  0.0382  0.7827
   78MOL   H11221826   6.228   1.310   4.249  0.2234 -1.2180 -0.3655
   78MOL   H11321827   6.043   1.337   4.086 -0.1904  0.4627 -0.0073
   78MOL   C11421828   6.590   1.362   4.453 -0.6230  0.7332  0.0154
   78MOL   C11521829   6.572   1.342   4.591  0.2740  0.2480 -0.9480
   78MOL   C11621830   6.687   1.350   4.679  0.7164 -0.3459  0.6373
   78MOL   C11721831   6.816   1.367   4.627  0.2234  0.4570 -0.0728
   78MOL   C11821832   6.920   1.379   4.727 -0.0687  0.2709  0.1462
   78MOL   C11921833   7.054   1.402   4.713  0.5394  0.5040 -0.4771
   78MOL   C12021834   6.835   1.395   4.493  0.5596  0.5155 -0.4948
   78MOL   C12121835   6.724   1.395   4.407  0.4516  0.3894  0.2617
   78MOL   H12221836   6.474   1.328   4.633  1.0620 -2.0332  0.2158
   78MOL   H12321837   6.669   1.336   4.784 -0.5244 -0.9181  0.3621
   78MOL   H12421838   6.896   1.362   4.831  0.5568 -2.2972 -0.0793
   78MOL   H12521839   7.091   1.420   4.613  0.1307  4.3239 -0.0321
   78MOL   H12621840   6.936   1.406   4.456  1.0252 -4.0524 -0.8220
   78MOL   H12721841   6.744   1.397   4.301 -1.3095 -0.8879 -0.1133
   78MOL   C12821842   7.145   1.407   4.824 -0.2747 -0.3632 -0.2346
   78MOL   C12921843   7.269   1.465   4.796  0.2802 -0.2747  0.4539
   78MOL   C13021844   7.362   1.491   4.897 -0.1732  0.2591  0.8435
   78MOL   C13121845   7.337   1.446   5.029 -0.3742 -0.1772 -0.1555
   78MOL   C13221846   7.439   1.465   5.134 -0.5117  0.0107 -0.4331
   78MOL   C13321847   7.567   1.513   5.109 -0.7616  0.1162 -0.0850
   78MOL   C13421848   7.210   1.380   5.057 -0.3547 -0.3125 -0.3964
   78MOL   C13521849   7.113   1.366   4.957 -0.5069 -0.3932  0.5508
   78MOL   H13621850   7.282   1.485   4.691 -1.1899  0.0691  0.3268
   78MOL   H13721851   7.458   1.534   4.871  0.5263 -1.1108  1.1577
   78MOL   H13821852   7.422   1.427   5.233  1.5363 -2.7847 -1.1145
   78MOL   H13921853   7.599   1.547   5.012  2.5099  0.4939  1.0720
   78MOL   H14021854   7.190   1.343   5.156  1.5050  2.7067  1.1828
   78MOL   H14121855   7.020   1.317   4.980 -0.9389 -0.9303 -2.2486
   78MOL   C14221856   7.670   1.521   5.220 -0.2298 -0.0026  0.1078
   78MOL   C14321857   7.783   1.599   5.194  0.6120  0.0570 -0.2020
   78MOL   C14421858   7.882   1.604   5.288 -0.8198 -0.1604  0.8430
   78MOL   C14521859   7.879   1.542   5.415  0.2905 -0.2418  0.5227
   78MOL   C14621860   7.989   1.554   5.513 -0.4281  0.1555 -0.5636
   78MOL   C14721861   8.116   1.589   5.478 -0.0754 -0.0613 -0.4367
   78MOL   C14821862   7.764   1.458   5.440  0.2606  0.1342 -0.6778
   78MOL   C14921863   7.665   1.450   5.342 -0.4593 -0.8731  0.0599
   78MOL   H15021864   7.789   1.649   5.099  0.7775 -0.0593 -0.2535
   78MOL   H15121865   7.965   1.669   5.265 -0.4882 -1.1847 -0.9305
   78MOL   H15221866   7.968   1.525   5.615  0.3701 -0.1650 -0.4927
   78MOL   H15321867   8.143   1.624   5.380 -2.5202  1.2767 -0.6644
   78MOL   H15421868   7.746   1.408   5.535 -0.8836  2.3960  0.3541
   78MOL   H15521869   7.575   1.393   5.363 -1.8316  1.0991 -0.3702
   78MOL   C15621870   0.090   1.597   5.575  0.8893 -0.0101  0.7406
   78MOL   C15721871   0.079   1.571   5.714 -0.4888 -0.0604  0.5812
   78MOL   C15821872   0.184   1.599   5.805 -0.2438  0.6737 -0.5114
   78MOL   C15921873   0.310   1.642   5.752  0.1912 -0.3081  0.0487
   78MOL   C16021874   0.432   1.671   5.843  0.2865  0.2222 -0.2992
   78MOL   C16121875   0.442   1.625   5.967  0.7016 -0.1917  0.6157
   78MOL   C16221876   0.330   1.645   5.614  0.0621 -0.5477  0.3447
   78MOL   C16321877   0.222   1.614   5.528 -0.2358 -0.8511  0.4329
   78MOL   H16421878   8.129   1.542   5.757 -1.2978  0.0424 -1.0792
   78MOL   H16521879   0.171   1.597   5.912 -0.7904  1.0844 -0.5704
   78MOL   H16621880   0.516   1.721   5.797 -0.6260  2.4613  0.4071
   78MOL   H16721881   0.359   1.567   6.004  0.4399 -1.0889 -1.3189
   78MOL   H16821882   0.425   1.672   5.572  0.1645 -1.5095 -0.0630
   78MOL   H16921883   0.243   1.640   5.426 -0.9091  0.2935  0.5767
   78MOL   C17021884   0.548   1.632   6.058  0.3972  0.1502 -0.5912
   78MOL   C17121885   0.555   1.547   6.168  0.1495 -0.7334  0.4286
   78MOL   C17221886   0.647   1.569   6.271  0.1607  0.7208  0.1811
   78MOL   C17321887   0.740   1.676   6.259 -0.3535 -0.0901  0.3558
   78MOL   C17421888   0.831   1.702   6.368  0.1004 -0.2113 -0.0076
   78MOL   C17521889   0.832   1.649   6.497  0.8262 -0.0221  0.4329
   78MOL   C17621890   0.747   1.745   6.135 -0.3548 -0.3640 -0.2237
   78MOL   C17721891   0.652   1.724   6.037 -0.2543 -0.1045 -0.0859
   78MOL   H17821892   0.491   1.460   6.174 -0.9505 -0.1752 -2.4355
   78MOL   H17921893   0.642   1.503   6.356 -1.0495 -2.8595 -2.5130
   78MOL   H18021894   0.904   1.779   6.347 -1.1381  0.6872 -1.1022
   78MOL   H18121895   0.760   1.574   6.522  0.7835  0.4538  1.7802
   78MOL   H18221896   0.829   1.814   6.123  0.2737 -1.0420  0.1469
   78MOL   H18321897   0.666   1.780   5.946 -1.7171  0.6245  0.1284
   78MOL   C18421898   0.924   1.691   6.600 -0.3119 -0.3786  0.1546
   78MOL   C18521899   0.926   1.615   6.724  0.2380 -0.5277 -0.6882
   78MOL   C18621900   1.015   1.652   6.827  0.4875 -0.4070  0.8535
   78MOL   C18721901   1.095   1.766   6.817  0.2964 -0.0226  0.3642
   78MOL   C18821902   1.190   1.811   6.934  0.5563 -0.3539 -0.0299
   78MOL   C18921903   1.300   1.895   6.920  0.2176 -0.3827  0.2174
   78MOL   C19021904   1.095   1.839   6.697  0.6400  0.5103  0.0752
   78MOL   C19121905   1.006   1.806   6.593  0.1473 -0.5914 -0.6963
   78MOL   H19221906   0.866   1.529   6.748 -1.4517  0.6846 -0.4248
   78MOL   H19321907   1.031   1.590   6.915 -0.1241 -2.5058 -0.4657
   78MOL   H19421908   1.166   1.768   7.031  0.5025  1.0891  0.6139
   78MOL   H19521909   1.327   1.940   6.825 -2.9359 -0.0676 -0.6048
   78MOL   H19621910   1.152   1.929   6.681 -0.1720  1.3558  1.8714
   78MOL   H19721911   0.998   1.873   6.509 -0.5308  0.7744  0.4339
   78MOL   C19821912   1.389   1.942   7.030  0.0517  0.1954 -0.3005
   78MOL   C19921913   1.392   1.875   7.151  0.4518 -0.2439  0.0446
   78MOL   C20021914   1.472   1.929   7.254  0.0543 -0.1978  0.3015
   78MOL   C20121915   1.553   2.048   7.233  1.0073 -0.0400  0.3753
   78MOL   C20221916   1.644   2.099   7.342 -0.3663 -0.0048 -0.1757
   78MOL   C20321917   1.745   2.185   7.322 -0.0674 -0.8438 -0.5158
   78MOL   C20421918   1.552   2.106   7.105  0.0438  0.1190 -0.3911
   78MOL   C20521919   1.469   2.058   7.005  0.0290  0.2747  0.4342
   78MOL   H20621920   1.327   1.791   7.172 -0.4374  0.0719 -1.3724
   78MOL   H20721921   1.479   1.877   7.348 -0.5868 -1.9609 -0.5859
   78MOL   H20821922   1.616   2.053   7.436  0.4960  0.5700  0.3717
   78MOL   H20921923   1.768   2.225   7.224 -2.4497 -0.7398 -1.0527
   78MOL   H21021924   1.606   2.196   7.081 -0.3309  0.2615 -0.7018
   78MOL   H21121925   1.469   2.112   6.912  1.0288  1.7667  1.2834
   78MOL   C21221926   1.843   2.243   7.422 -0.8296 -0.8305 -0.6034
   78MOL   C21321927   1.897   2.372   7.379  0.2621 -0.1351 -0.2228
   78MOL   C21421928   1.979   2.445   7.465  0.3129  0.4423 -0.5941
   78MOL   C21521929   2.005   2.393   7.594  0.5420  0.0490  0.2009
   78MOL   C21621930   2.092   2.475   7.686 -0.1882  0.1698 -0.6144
   78MOL   C21721931   2.161   2.440   7.794 -0.6653 -0.1084  0.8651
   78MOL   C21821932   1.944   2.275   7.636  0.4387 -0.8470  0.2729
   78MOL   C21921933   1.855   2.205   7.554 -0.1859  0.3090  0.2142
   78MOL   H22021934   1.867   2.410   7.282  1.0347  1.3250  0.0966
   78MOL   H22121935   2.030   2.535   7.435 -0.0061  0.0286 -2.4577
   78MOL   H22221936   2.103   2.575   7.647 -0.3668 -0.0369 -1.2133
   78MOL   H22321937   2.152   2.336   7.822  0.9939 -0.3779  0.4521
   78MOL   H22421938   1.959   2.251   7.741  0.5282 -0.3308  0.3793
   78MOL   H22521939   1.794   2.125   7.593  1.0178 -0.0570  1.3746
   78MOL   C22621940   2.258   2.517   7.872 -0.1230  0.0653  0.4467
   78MOL   C22721941   2.297   2.649   7.843 -0.3277  0.9685  0.7957
   78MOL   C22821942   2.389   2.722   7.926  0.3808 -0.4627  0.1316
   78MOL   C22921943   2.443   2.657   8.041 -0.5828  0.6978  0.6709
   78MOL   C23021944   2.533   2.735   8.134  0.0887 -0.2685 -0.1476
   78MOL   C23121945   2.550   2.869   8.120  0.4916  0.2845 -0.0691
   78MOL   C23221946   2.413   2.520   8.064  0.1042  0.3137  0.1653
   78MOL   C23321947   2.325   2.454   7.983  0.1006  0.6010  0.5971
   78MOL   H23421948   2.252   2.705   7.762 -0.4105  2.2601  1.7161
   78MOL   H23521949   2.402   2.826   7.902 -1.0800  0.2057  2.0174
   78MOL   H23621950   2.569   2.665   0.063 -0.2264 -0.9383 -0.6265
   78MOL   H23721951   2.503   2.923   8.039  0.8619  0.4141 -0.1989
   78MOL   H23821952   2.461   2.473   0.004  0.2757  0.7462  0.3050
   78MOL   H23921953   2.287   2.354   8.001  0.2634  0.4756  0.2641
   78MOL   C24021954   2.627   2.952   0.070 -0.4458 -0.0756 -0.0142
   78MOL   C24121955   2.668   3.086   0.043 -0.8214  0.2620  0.0859
   78MOL   C24221956   2.730   3.162   0.145 -0.2176  0.5673 -0.2258
   78MOL   C24321957   2.769   3.098   0.268 -0.2117  0.8731 -0.1494
   78MOL   C24421958   2.848   3.182   0.365  0.6224 -0.2050 -0.0278
   78MOL   C24521959   2.898   3.136   0.481  0.2684  0.7955 -0.2828
   78MOL   C24621960   2.738   2.967   0.291  0.1107 -0.2326  0.3795
   78MOL   C24721961   2.667   2.892   0.196  0.4398 -0.6269 -0.1486
   78MOL   H24821962   2.640   3.128   8.092  0.5042  1.0956  0.0617
   78MOL   H24921963   2.756   3.263   0.117 -1.9364  0.5517 -2.0697
   78MOL   H25021964   2.867   3.283   0.331 -1.6848  0.7680  1.4966
   78MOL   H25121965   2.881   3.033   0.508 -0.0249  1.3930  1.8675
   78MOL   H25221966   2.768   2.920   0.384  0.2542 -0.3835  0.2559
   78MOL   H25321967   2.645   2.790   0.221 -0.4642 -0.3514  0.1952
   78MOL   C25421968   2.986   3.209   0.573 -0.1685  0.2147  0.1005
   78MOL   C25521969   3.043   3.146   0.682  0.0567  0.3777 -0.1004
   78MOL   C25621970   3.134   3.215   0.768 -0.9062 -0.4559  0.4585
   78MOL   C25721971   3.150   3.354   0.754  0.0561  0.4227  0.1308
   78MOL   C25821972   3.235   3.420   0.851  0.5905  0.1088 -0.2790
   78MOL   C25921973   3.305   3.533   0.845 -0.4916  0.4326 -0.3340
   78MOL   C26021974   3.091   3.418   0.643  0.4575 -0.5637  0.3475
   78MOL   C26121975   3.013   3.346   0.554 -0.8043 -0.1560  0.2933
   78MOL   H26221976   3.015   3.043   0.694 -0.0535  0.1149 -2.3008
   78MOL   H26321977   3.175   3.158   0.850 -0.6207 -0.2913  0.4306
   78MOL   H26421978   3.235   3.376   0.950 -2.0999  0.0993 -0.2330
   78MOL   H26521979   3.351   3.559   0.939  0.7122  2.6867 -1.4971
   78MOL   H26621980   3.099   3.525   0.639 -1.9541 -0.4239 -1.5955
   78MOL   H26721981   2.966   3.396   0.470  1.2880 -0.3585 -1.0447
   78MOL   C26821982   3.323   3.630   0.738 -0.5122  0.5412  0.2437
   78MOL   C26921983   3.290   3.767   0.771  0.6907 -0.0788 -0.3086
   78MOL   C27021984   3.306   3.868   0.675 -0.3720 -0.0888 -0.2206
   78MOL   C27121985   3.351   3.840   0.547  0.3220  0.2072 -0.0559
   78MOL   C27221986   3.364   3.938   0.436  0.0439  0.0733  1.3830
   78MOL   C27321987   3.333   4.067   0.440 -0.1759  0.5833 -0.1168
   78MOL   C27421988   3.369   3.703   0.513  0.1108 -0.9625  0.5792
   78MOL   C27521989   3.358   3.597   0.606  0.2606  0.1392 -0.2092
   78MOL   H27621990   3.254   3.790   0.870  1.7331  0.1112  0.0368
   78MOL   H27721991   3.278   3.972   0.686  0.6071 -0.0552  2.2211
   78MOL   H27821992   3.408   3.900   0.345 -0.0029 -3.1824  2.6468
   78MOL   H27921993   3.287   4.105   0.530  0.5422  1.3208 -0.0514
   78MOL   H28021994   3.390   3.687   0.408 -1.2476  2.4044 -0.2684
   78MOL   H28121995   3.364   3.495   0.571 -1.5181 -0.8130  2.1138
   78MOL   H28221996   3.358   4.128   0.354 -1.4920  2.8908  1.0673
   79MOL     C121997   0.309   8.140   2.953 -0.0579  0.0215  0.1403
   79MOL     C221998   0.411   0.044   3.038 -0.1235 -0.3476  0.2420
   79MOL     C321999   0.534   8.119   3.050  0.2141 -0.3844  0.1579
   79MOL     C422000   0.568   8.013   2.965  0.2506 -0.3214  0.0193
   79MOL     C522001   0.704   7.950   2.970  0.0225 -0.2061  0.2875
   79MOL     C622002   0.798   7.966   3.063  0.6361  0.8118 -0.0931
   79MOL     C722003   0.470   7.974   2.873 -0.6078  0.5226  0.0393
   79MOL     C822004   0.347   8.034   2.865  0.3757 -1.3323  0.0392
   79MOL     H922005   0.391   0.125   3.107 -0.7973 -0.3777  0.0862
   79MOL    H1022006   0.608   0.015   3.118 -0.1107 -0.6463  0.6637
   79MOL    H1122007   0.736   7.890   2.886  0.7482  0.9521 -0.2762
   79MOL    H1222008   0.781   8.039   3.141  0.0104  0.7699 -0.1864
   79MOL    H1322009   0.482   7.896   2.800 -1.3342  1.6651 -1.3211
   79MOL    H1422010   0.272   8.002   2.793  0.0644 -0.0601 -0.2132
   79MOL    H1522011   0.216   0.049   2.961  0.0821  0.2799  0.0775
   79MOL    C1622012   0.936   7.906   3.067  0.4212 -0.7737 -0.0633
   79MOL    C1722013   1.034   7.949   3.160 -0.2802  0.2445  0.7971
   79MOL    C1822014   1.163   7.888   3.170 -0.0216  0.4433  0.1863
   79MOL    C1922015   1.196   7.787   3.078 -0.2310 -0.5399  0.3316
   79MOL    C2022016   1.320   7.714   3.078 -0.4141 -0.5927  0.9068
   79MOL    C2122017   1.413   7.720   3.175  0.2899  0.1701  0.2215
   79MOL    C2222018   1.094   7.746   2.990  0.3010  0.3681  0.2900
   79MOL    C2322019   0.972   7.809   2.975 -0.2977 -0.3167 -0.4366
   79MOL    H2422020   1.008   8.028   3.229 -0.9759 -1.9325  3.0733
   79MOL    H2522021   1.222   7.915   3.256  1.4871 -3.1099  0.3734
   79MOL    H2622022   1.347   7.663   2.987 -0.2497 -0.8641  1.1100
   79MOL    H2722023   1.383   7.778   3.260 -0.0837  2.5143 -1.4700
   79MOL    H2822024   1.119   7.672   2.916 -0.6702 -0.6522  0.9588
   79MOL    H2922025   0.904   7.782   2.895  0.9286 -2.6484 -0.7558
   79MOL    C3022026   1.551   7.667   3.175  0.1099  0.2704  0.5299
   79MOL    C3122027   1.597   7.561   3.084  0.0986 -0.3678 -0.1509
   79MOL    C3222028   1.724   7.506   3.101 -0.0650  0.8596 -0.2027
   79MOL    C3322029   1.807   7.555   3.200  0.5351 -0.0026  0.1344
   79MOL    C3422030   1.949   7.507   3.210  0.0780  0.1536  0.3711
   79MOL    C3522031   2.014   7.428   3.120  0.7944  0.5931 -0.4438
   79MOL    C3622032   1.764   7.657   3.290 -0.2584 -0.6181 -0.6104
   79MOL    C3722033   1.630   7.706   3.286  0.2458  0.0266 -0.5526
   79MOL    H3822034   1.532   7.540   3.001 -2.4512  1.1044  1.3957
   79MOL    H3922035   1.764   7.436   3.030 -0.6277  1.5605 -1.2217
   79MOL    H4022036   2.003   7.539   3.299  0.1614 -0.9988  0.7511
   79MOL    H4122037   1.967   7.383   3.034  3.0698 -0.0524 -1.3962
   79MOL    H4222038   1.834   7.696   3.362 -2.2231  0.6491  0.6717
   79MOL    H4322039   1.595   7.779   3.357  2.1156 -0.7179  1.1903
   79MOL    C4422040   2.158   7.391   3.119 -0.0797  0.4698 -0.1038
   79MOL    C4522041   2.252   7.451   3.202  0.4184  0.1586 -0.2490
   79MOL    C4622042   2.389   7.413   3.195  0.3070  0.7042 -0.5959
   79MOL    C4722043   2.433   7.312   3.112 -0.2352  0.0035  0.3509
   79MOL    C4822044   2.568   7.258   3.121  0.2010  0.7246  0.7621
   79MOL    C4922045   2.626   7.156   3.054 -0.1372  0.1695  0.1342
   79MOL    C5022046   2.337   7.252   3.024  0.3076  0.3845 -0.4026
   79MOL    C5122047   2.204   7.289   3.027  0.3130 -0.5396 -0.5277
   79MOL    H5222048   2.227   7.516   3.285  0.0804 -0.4413  0.1270
   79MOL    H5322049   2.448   7.457   3.274 -1.5894  0.0671  1.2203
   79MOL    H5422050   2.625   7.313   3.194  1.4032  0.0879  0.3081
   79MOL    H5522051   2.563   7.101   2.986 -1.5630 -0.9440  2.2748
   79MOL    H5622052   2.375   7.180   2.952 -0.9739  0.4857 -1.1939
   79MOL    H5722053   2.130   7.254   2.957 -1.0855 -0.8207  1.0594
   79MOL    C5822054   2.767   7.117   3.062  0.7703  0.4285  0.2200
   79MOL    C5922055   2.871   7.220   3.081  0.5677  0.8643 -0.8284
   79MOL    C6022056   3.008   7.186   3.071 -0.2657 -0.2310 -0.0680
   79MOL    C6122057   3.044   7.056   3.051 -0.4039  0.0971  0.9966
   79MOL    C6222058   3.186   7.030   3.043 -0.2789 -0.2099 -0.0162
   79MOL    C6322059   3.244   6.910   3.026 -0.0741  0.5250  0.4215
   79MOL    C6422060   2.947   6.957   3.041 -0.3954 -0.7744  0.0778
   79MOL    C6522061   2.808   6.987   3.043 -0.7893 -0.4680 -0.2325
   79MOL    H6622062   2.843   7.324   3.092 -0.2457  0.4303  1.5162
   79MOL    H6722063   3.076   7.270   3.081 -1.9639  1.3533 -1.2951
   79MOL    H6822064   3.250   7.116   3.045 -0.8402  0.1881  1.1059
   79MOL    H6922065   3.180   6.823   3.022 -0.3265  0.7118  0.4717
   79MOL    H7022066   2.970   6.853   3.019 -3.7201 -1.2171 -1.5045
   79MOL    H7122067   2.734   6.911   3.024  0.2696 -1.3705 -0.7970
   79MOL    C7222068   3.390   6.874   3.027  0.4400  0.3547 -0.5359
   79MOL    C7322069   3.430   6.750   3.072 -0.6137  0.2457 -0.4460
   79MOL    C7422070   3.561   6.717   3.092  0.5524 -0.7523 -0.1191
   79MOL    C7522071   3.665   6.811   3.078  0.1927  0.3977  0.6637
   79MOL    C7622072   3.813   6.776   3.090  0.0924 -0.1902 -0.2198
   79MOL    C7722073   3.863   6.648   3.099  0.7886  0.4401  0.0157
   79MOL    C7822074   3.625   6.943   3.040 -0.4355  0.4743  0.0393
   79MOL    C7922075   3.487   6.970   3.009 -0.5832 -0.7114 -0.5057
   79MOL    H8022076   3.356   6.673   3.089 -0.2448 -0.7253 -3.0232
   79MOL    H8122077   3.578   6.611   3.110 -0.0586 -0.9733 -0.8209
   79MOL    H8222078   3.874   6.864   3.098  2.4724 -1.5924 -1.9853
   79MOL    H8322079   3.795   6.564   3.094  1.2200  0.1264 -0.7929
   79MOL    H8422080   3.695   7.023   3.022  1.9872 -1.7174 -0.7738
   79MOL    H8522081   3.458   7.069   2.975  0.6466  0.3404  1.3952
   79MOL    C8622082   4.010   6.618   3.114 -0.4052 -0.0565 -0.2114
   79MOL    C8722083   4.053   6.489   3.148 -0.7062 -0.3526  0.1378
   79MOL    C8822084   4.189   6.456   3.181 -0.2214  0.3889 -1.0082
   79MOL    C8922085   4.285   6.555   3.176 -0.2867 -0.0482 -0.3558
   79MOL    C9022086   4.428   6.526   3.206 -0.9880  0.5989 -0.4586
   79MOL    C9122087   4.477   6.409   3.240 -0.6690 -0.4351 -0.3986
   79MOL    C9222088   4.240   6.689   3.144 -0.3119  0.2359  0.0873
   79MOL    C9322089   4.106   6.724   3.113 -0.5206 -0.0657 -0.0300
   79MOL    H9422090   3.987   6.404   3.155  0.2119 -1.3161 -2.3696
   79MOL    H9522091   4.206   6.350   3.195 -1.0871  0.6296  2.3154
   79MOL    H9622092   4.503   6.602   3.189  0.4418 -0.3957  1.2963
   79MOL    H9722093   4.402   6.333   3.253 -1.4563  0.5738  0.9984
   79MOL    H9822094   4.309   6.772   3.153 -0.5291  0.4570 -0.2823
   79MOL    H9922095   4.078   6.823   3.081 -3.6430 -1.1431 -0.7401
   79MOL   C10022096   4.614   6.362   3.269 -0.7817  0.4324 -0.8493
   79MOL   C10122097   4.727   6.444   3.259  0.4438  0.2269 -0.2600
   79MOL   C10222098   4.858   6.390   3.274 -0.4036  0.6181 -0.5399
   79MOL   C10322099   4.870   6.255   3.316  0.2145  0.1064 -0.1775
   79MOL   C10422100   5.001   6.194   3.333 -0.2117 -0.7349  0.6787
   79MOL   C10522101   5.119   6.247   3.297 -0.4653  0.6260  0.9987
   79MOL   C10622102   4.751   6.175   3.341  0.0686 -0.6621  0.3172
   79MOL   C10722103   4.628   6.227   3.313 -0.1749  0.3066 -0.9333
   79MOL   H10822104   4.720   6.548   3.232  0.5246  0.0553 -0.9628
   79MOL   H10922105   4.942   6.457   3.271  0.1432 -0.0799 -1.2549
   79MOL   H11022106   4.993   6.095   3.374 -1.0754 -1.5239 -1.3147
   79MOL   H11122107   5.119   6.342   3.245  1.8843  0.6129  0.9242
   79MOL   H11222108   4.751   6.073   3.376 -3.1392 -0.8432 -0.0725
   79MOL   H11322109   4.543   6.160   3.314 -1.5124  1.9553 -0.5976
   79MOL   C11422110   5.253   6.184   3.309  0.4785 -0.5583 -0.6986
   79MOL   C11522111   5.286   6.083   3.396  0.0739 -0.2762  0.2158
   79MOL   C11622112   5.409   6.014   3.377  0.4391  0.8053 -0.3115
   79MOL   C11722113   5.507   6.053   3.285 -0.2631 -0.1077  0.3364
   79MOL   C11822114   5.636   5.983   3.285 -0.2284 -0.3797 -0.4431
   79MOL   C11922115   5.742   6.013   3.200 -0.7204 -0.6152 -0.4957
   79MOL   C12022116   5.472   6.167   3.199 -0.3033  0.6419 -0.0024
   79MOL   C12122117   5.345   6.227   3.215 -0.1029  0.0911  0.0482
   79MOL   H12222118   5.204   6.055   3.460 -1.5016  2.3746 -0.5602
   79MOL   H12322119   5.423   5.924   3.435 -1.7435  0.2228 -0.6261
   79MOL   H12422120   5.646   5.903   3.357 -1.0433  0.0530  0.1628
   79MOL   H12522121   5.727   6.095   3.132 -2.1291 -1.5587 -1.3531
   79MOL   H12622122   5.520   6.211   3.113  1.6694  0.9347  1.2172
   79MOL   H12722123   5.316   6.313   3.157  0.5515  0.5332  0.3751
   79MOL   C12822124   5.880   5.950   3.200 -0.4517 -0.1023 -0.5521
   79MOL   C12922125   5.918   5.874   3.313 -0.3840  0.2007  0.1998
   79MOL   C13022126   6.052   5.834   3.323 -0.1885  0.2129  0.1495
   79MOL   C13122127   6.151   5.866   3.228 -0.4401  0.6475 -0.1260
   79MOL   C13222128   6.290   5.825   3.266 -0.0820 -0.3796  1.0947
   79MOL   C13322129   6.398   5.817   3.180 -0.4470 -0.4705 -0.8128
   79MOL   C13422130   6.107   5.932   3.114 -0.4566  0.3077  0.4830
   79MOL   C13522131   5.973   5.980   3.104  0.1102 -0.1608 -0.3715
   79MOL   H13622132   5.851   5.855   3.395 -1.7950  1.9471 -0.5304
   79MOL   H13722133   6.073   5.776   3.412  0.6395  1.1928  0.6019
   79MOL   H13822134   6.297   5.788   3.367 -2.0156 -1.6845  0.7790
   79MOL   H13922135   6.384   5.852   3.078  2.6723 -1.9275 -1.7832
   79MOL   H14022136   6.175   5.967   3.038 -2.0979  0.1434 -1.0795
   79MOL   H14122137   5.954   6.044   3.020  1.2772 -0.4550 -0.8661
   79MOL   C14222138   6.536   5.767   3.213 -0.5181 -1.2788  0.0291
   79MOL   C14322139   6.553   5.683   3.320  0.1785  0.2349 -0.0010
   79MOL   C14422140   6.672   5.628   3.363 -0.2288 -0.3025 -0.1968
   79MOL   C14522141   6.789   5.655   3.291 -0.6463 -0.1228 -0.5545
   79MOL   C14622142   6.915   5.588   3.321 -0.1773  0.1903  0.4964
   79MOL   C14722143   7.028   5.579   3.245 -0.2378 -0.3344  0.5578
   79MOL   C14822144   6.778   5.738   3.177 -0.0760  0.2782 -0.3653
   79MOL   C14922145   6.654   5.781   3.135 -0.3537 -0.0026  0.1971
   79MOL   H15022146   6.464   5.665   3.379  0.2609  1.2747  0.4478
   79MOL   H15122147   6.676   5.553   3.441  0.8810  1.1549  1.1820
   79MOL   H15222148   6.905   5.543   3.418 -0.8878 -1.8440 -0.4986
   79MOL   H15322149   7.041   5.618   3.145  0.2221  1.3871  1.2728
   79MOL   H15422150   6.868   5.761   3.122  0.1378 -3.4905 -1.7289
   79MOL   H15522151   6.649   5.822   3.035  2.1112  0.8422  0.3815
   79MOL   C15622152   7.142   5.510   3.302 -0.3329  0.1565 -0.1137
   79MOL   C15722153   7.235   5.449   3.210 -0.3002  0.1392  0.5522
   79MOL   C15822154   7.344   5.380   3.264 -0.2742 -0.0323  0.0498
   79MOL   C15922155   7.376   5.384   3.402 -0.0360 -0.6350  0.3989
   79MOL   C16022156   7.503   5.335   3.455  0.5359 -0.5362 -0.2055
   79MOL   C16122157   7.590   5.270   3.375 -0.8962 -0.4229 -0.3768
   79MOL   C16222158   7.277   5.434   3.486  0.0264  0.6599  0.6883
   79MOL   C16322159   7.155   5.493   3.436 -0.7953  0.0008  0.3060
   79MOL   H16422160   7.211   5.454   3.105  0.0871  0.4192  0.4778
   79MOL   H16522161   7.410   5.334   3.191  1.5518 -0.6785  2.0622
   79MOL   H16622162   7.524   5.359   3.558  0.4212  0.9812 -0.5173
   79MOL   H16722163   7.573   5.250   3.270 -1.7325  1.1893 -0.5659
   79MOL   H16822164   7.304   5.441   3.590  0.5403 -1.5875  0.7365
   79MOL   H16922165   7.089   5.527   3.514 -1.2115  1.1360 -0.5375
   79MOL   C17022166   7.725   5.228   3.414 -0.2273  0.4837 -0.0685
   79MOL   C17122167   7.776   5.231   3.546  0.3401 -0.2446 -0.0788
   79MOL   C17222168   7.898   5.181   3.581  0.6345 -0.3836  0.4610
   79MOL   C17322169   7.981   5.139   3.478 -0.4797 -0.1982  0.5145
   79MOL   C17422170   8.129   5.120   3.504 -0.8038 -0.1106  0.0827
   79MOL   C17522171   0.089   5.071   3.440 -0.0601  0.1319 -0.3473
   79MOL   C17622172   7.932   5.128   3.344 -0.1897  0.4909  0.5317
   79MOL   C17722173   7.806   5.166   3.319  0.1205 -0.3695  0.1392
   79MOL   H17822174   7.722   5.289   3.620 -1.9713 -0.3360 -1.6204
   79MOL   H17922175   7.919   5.206   3.684  0.4699  0.1895  0.3616
   79MOL   H18022176   0.000   5.143   3.609 -0.6512  1.4816 -0.2815
   79MOL   H18122177   0.075   5.045   3.336  1.7664 -2.6200  0.0370
   79MOL   H18222178   7.990   5.091   3.260 -0.9601  1.2922 -0.3620
   79MOL   H18322179   7.768   5.166   3.218 -0.5978  3.3482  0.3262
   79MOL   C18422180   0.225   5.049   3.484  0.0261 -0.6073 -0.4048
   79MOL   C18522181   0.266   5.058   3.618 -0.5541  0.2389  0.7659
   79MOL   C18622182   0.403   5.036   3.643  0.4737  0.7760 -0.9472
   79MOL   C18722183   0.496   4.991   3.545 -0.4901 -0.5365  0.0671
   79MOL   C18822184   0.635   4.956   3.570 -0.2507  0.5593 -0.2647
   79MOL   C18922185   0.704   4.979   3.683  0.3370 -0.8438 -0.0556
   79MOL   C19022186   0.453   4.977   3.414 -0.7412  0.5066  0.0128
   79MOL   C19122187   0.319   5.013   3.381  0.4495  0.4149 -0.0108
   79MOL   H19222188   0.193   5.074   3.696 -1.7902 -1.8278  0.0600
   79MOL   H19322189   0.436   5.053   3.745  0.6762 -0.7233 -0.7636
   79MOL   H19422190   0.684   4.896   3.495 -1.6384  0.2297 -0.9203
   79MOL   H19522191   0.658   5.036   3.761  3.3523 -0.9880  1.9189
   79MOL   H19622192   0.528   4.941   3.346 -0.4022  2.0729 -0.4548
   79MOL   H19722193   0.289   4.995   3.279  0.8756 -0.7702  0.0579
   79MOL   C19822194   0.853   4.946   3.717  0.6861 -0.0515 -0.4761
   79MOL   C19922195   0.951   4.898   3.623  0.2037 -0.0454 -0.4572
   79MOL   C20022196   1.086   4.871   3.668  0.3564 -0.5800 -0.8361
   79MOL   C20122197   1.107   4.867   3.806 -0.7398  0.3039 -0.0358
   79MOL   C20222198   1.247   4.847   3.863  0.2374  0.2719  0.0327
   79MOL   C20322199   1.287   4.804   3.985  0.4277  0.6325 -0.1348
   79MOL   C20422200   1.000   4.888   3.893 -0.0903  0.1930  0.2790
   79MOL   C20522201   0.873   4.928   3.854 -0.0917 -0.7948  0.1527
   79MOL   H20622202   0.922   4.898   3.519  0.3298  0.2275 -0.4900
   79MOL   H20722203   1.157   4.853   3.589 -0.8074 -0.2415 -1.9799
   79MOL   H20822204   1.321   4.864   3.786 -0.3252 -2.3887 -1.1634
   79MOL   H20922205   1.219   4.785   4.066 -1.7853  1.1144 -1.8373
   79MOL   H21022206   1.012   4.894   4.000 -2.6997  0.8405  0.5635
   79MOL   H21122207   0.797   4.958   3.925 -2.7084  0.8307 -3.1831
   79MOL   C21222208   1.425   4.779   4.028 -0.1890 -0.0593 -0.9108
   79MOL   C21322209   1.447   4.715   4.153  0.1561 -0.2811 -0.6382
   79MOL   C21422210   1.569   4.675   4.193  0.1630  0.4779  0.7539
   79MOL   C21522211   1.685   4.719   4.126 -0.8760  0.3351  0.2092
   79MOL   C21622212   1.825   4.694   4.174  0.8149  0.2937 -0.0951
   79MOL   C21722213   1.864   4.607   4.267 -0.7864 -0.1538 -0.4297
   79MOL   C21822214   1.671   4.778   3.997  0.2093 -0.3676  0.6841
   79MOL   C21922215   1.541   4.808   3.950  0.9339  0.0490 -0.0017
   79MOL   H22022216   1.362   4.675   4.206  1.7278 -1.9064  0.7054
   79MOL   H22122217   1.582   4.619   4.285  2.1040  0.9502  0.7993
   79MOL   H22222218   1.895   4.763   4.129  0.4306 -0.0631 -1.2800
   79MOL   H22322219   1.794   4.540   4.315  1.2803  0.0064  2.9327
   79MOL   H22422220   1.758   4.802   3.939 -1.4066  1.2215 -1.1357
   79MOL   H22522221   1.534   4.837   3.846  3.2352 -0.8549 -0.4391
   79MOL   C22622222   1.998   4.606   4.322 -0.1709 -0.1512  0.7504
   79MOL   C22722223   2.016   4.541   4.451 -0.2518 -0.6582  0.5372
   79MOL   C22822224   2.143   4.546   4.519  0.0634 -0.1539 -0.0435
   79MOL   C22922225   2.254   4.610   4.458  0.1964 -0.0570  0.3808
   79MOL   C23022226   2.384   4.586   4.524  0.3320  0.5077 -0.5473
   79MOL   C23122227   2.500   4.630   4.483 -0.6272  0.2239  0.0236
   79MOL   C23222228   2.239   4.677   4.335  0.4286  0.4274 -0.3651
   79MOL   C23322229   2.114   4.668   4.263 -0.4061 -0.0264 -0.3465
   79MOL   H23422230   1.937   4.475   4.483 -1.1053  0.7542  1.3907
   79MOL   H23522231   2.165   4.499   4.614 -1.6399  1.3981  1.1571
   79MOL   H23622232   2.387   4.529   4.616  3.1365  0.8126 -0.3992
   79MOL   H23722233   2.483   4.686   4.392 -4.4811 -1.2886 -0.2893
   79MOL   H23822234   2.319   4.722   4.277  0.1367 -0.9439 -1.8922
   79MOL   H23922235   2.108   4.714   4.165 -0.6667 -0.3584 -0.4873
   79MOL   C24022236   2.633   4.618   4.545  0.7721 -0.0053  0.3242
   79MOL   C24122237   2.745   4.622   4.456 -0.1614  0.0008  0.1720
   79MOL   C24222238   2.875   4.612   4.507  0.1012 -0.5251 -0.3043
   79MOL   C24322239   2.894   4.600   4.643 -0.1607 -0.7691 -0.9272
   79MOL   C24422240   3.024   4.576   4.706  0.3280 -0.1986 -0.0245
   79MOL   C24522241   3.136   4.530   4.650 -0.0411 -0.1367  0.0915
   79MOL   C24622242   2.784   4.596   4.729 -0.4736  0.3284  0.6912
   79MOL   C24722243   2.655   4.606   4.679 -0.1921  0.3916 -0.5369
   79MOL   H24822244   2.729   4.638   4.350  0.1360 -2.0829 -0.2125
   79MOL   H24922245   2.962   4.619   4.445 -1.0841  1.9487 -1.7664
   79MOL   H25022246   3.032   4.612   4.807  2.2521 -0.7661  0.0530
   79MOL   H25122247   3.125   4.488   4.551 -1.0345  0.0369  0.1290
   79MOL   H25222248   2.806   4.585   4.834  2.5594 -1.6487 -0.0889
   79MOL   H25322249   2.566   4.613   4.740  0.2023  0.8639 -0.0065
   79MOL   C25422250   3.272   4.532   4.713 -0.4524 -0.3674  0.3150
   79MOL   C25522251   3.384   4.481   4.650  0.1541 -0.3594  0.6004
   79MOL   C25622252   3.512   4.489   4.707 -0.6211  0.0432  0.3618
   79MOL   C25722253   3.537   4.557   4.826  0.0670 -0.1962 -0.0519
   79MOL   C25822254   3.667   4.556   4.897  0.5995  0.1703  1.0072
   79MOL   C25922255   3.686   4.517   5.025 -0.1997  0.2278 -0.4169
   79MOL   C26022256   3.424   4.618   4.887  0.6501  0.4319 -0.2431
   79MOL   C26122257   3.293   4.596   4.838 -0.6165  0.7534  0.6760
   79MOL   H26222258   3.371   4.422   4.561 -0.9057 -0.8161  1.0483
   79MOL   H26322259   3.600   4.441   4.666 -1.1454 -0.6601  0.0410
   79MOL   H26422260   3.749   4.579   4.831 -1.4964  0.2682 -1.6403
   79MOL   H26522261   3.786   4.519   5.067 -0.1951  2.3540 -0.4439
   79MOL   H26622262   3.432   4.682   4.974  0.0801  1.1420 -0.7015
   79MOL   H26722263   3.212   4.637   4.897  0.0273  1.9878  0.7095
   79MOL   C26822264   3.580   4.477   5.122  0.1830 -0.1351  0.6048
   79MOL   C26922265   3.566   4.529   5.252 -0.4441 -0.1301  0.0701
   79MOL   C27022266   3.465   4.496   5.339  0.6010  0.1468  0.1716
   79MOL   C27122267   3.371   4.398   5.306 -0.3374  0.2767  0.3333
   79MOL   C27222268   3.269   4.375   5.412 -0.5618 -0.3103 -0.0251
   79MOL   C27322269   3.152   4.307   5.392  0.1192  0.3033  0.0654
   79MOL   C27422270   3.381   4.345   5.175 -0.0166 -0.4950 -0.0093
   79MOL   C27522271   3.484   4.386   5.084 -0.0643 -0.0813 -0.3564
   79MOL   H27622272   3.626   4.615   5.279 -1.7537  0.5322  0.9201
   79MOL   H27722273   3.445   4.551   5.430  1.3207  0.7849 -0.0566
   79MOL   H27822274   3.287   4.410   5.513 -1.2858  2.7401 -0.9344
   79MOL   H27922275   3.139   4.262   5.295  0.9364 -0.7687  0.4453
   79MOL   H28022276   3.304   4.275   5.145 -1.1027 -0.6641  2.9559
   79MOL   H28122277   3.490   4.365   4.978  1.6944  0.2018 -0.3266
   79MOL   H28222278   3.072   4.278   5.459  1.0502 -0.5145  0.8470
   80MOL     C122279   6.858   7.133   5.877  0.8600 -0.6074  0.8202
   80MOL     C222280   6.989   7.102   5.863 -0.3703 -0.8026 -0.0836
   80MOL     C322281   7.063   7.048   5.971 -0.1031 -0.3231  0.5501
   80MOL     C422282   7.000   7.001   6.085 -0.1258 -0.0825  0.4976
   80MOL     C522283   7.082   6.929   6.180  0.2527 -0.3585 -0.0630
   80MOL     C622284   7.036   6.835   6.266  0.7345 -0.2024 -0.2733
   80MOL     C722285   6.860   7.018   6.093 -0.0498  0.0816 -0.2553
   80MOL     C822286   6.788   7.079   5.990  0.2400 -0.7399  0.0887
   80MOL     H922287   7.044   7.145   5.780 -0.2109  0.5543  0.6989
   80MOL    H1022288   7.169   7.026   5.963 -0.0436 -0.2361  1.0725
   80MOL    H1122289   7.186   6.954   6.163  0.5751 -1.3489  0.3851
   80MOL    H1222290   6.930   6.820   6.274  0.3540 -0.1966 -4.3159
   80MOL    H1322291   6.809   6.987   6.184  0.1603 -0.0132 -0.1692
   80MOL    H1422292   6.680   7.086   5.997  0.2390  1.4254 -1.4850
   80MOL    H1522293   6.801   7.171   5.793 -1.2164  1.8867  3.2548
   80MOL    C1622294   7.127   6.751   6.344 -0.8473 -0.1628  0.7545
   80MOL    C1722295   7.067   6.668   6.441 -0.1646  0.5847  0.0025
   80MOL    C1822296   7.151   6.585   6.520 -0.2898  0.4485 -0.6006
   80MOL    C1922297   7.290   6.592   6.518 -0.2120  0.2115 -0.5327
   80MOL    C2022298   7.373   6.505   6.607  0.0522 -0.1768 -0.8411
   80MOL    C2122299   7.334   6.417   6.702  0.8539 -0.5807  0.7667
   80MOL    C2222300   7.353   6.669   6.414  0.0829 -0.2253 -0.3735
   80MOL    C2322301   7.270   6.749   6.332 -0.0436 -0.2777 -0.3783
   80MOL    H2422302   6.960   6.667   6.460  0.3039  0.6721  2.8495
   80MOL    H2522303   7.108   6.504   6.577 -0.6445  1.3401  0.4174
   80MOL    H2622304   7.479   6.524   6.599  0.4187 -1.5584  0.3881
   80MOL    H2722305   7.227   6.409   6.716  0.7051 -0.6458 -0.4000
   80MOL    H2822306   7.461   6.664   6.403 -0.1259  0.7293 -3.2786
   80MOL    H2922307   7.322   6.801   6.253 -1.7247  1.0148 -0.6555
   80MOL    C3022308   7.413   6.332   6.794 -0.1981 -0.3653  0.2983
   80MOL    C3122309   7.364   6.308   6.921 -1.0466 -0.3583 -0.6537
   80MOL    C3222310   7.443   6.232   7.016  0.2562 -0.2114  0.3880
   80MOL    C3322311   7.576   6.189   6.981 -0.8791  1.2645 -0.0027
   80MOL    C3422312   7.672   6.126   7.075  0.0454 -0.1793  0.4240
   80MOL    C3522313   7.642   6.101   7.202  0.2955 -0.1452 -0.2842
   80MOL    C3622314   7.621   6.217   6.850  0.7177  0.0923  0.3777
   80MOL    C3722315   7.539   6.283   6.753  0.0238  0.3557 -0.2167
   80MOL    H3822316   7.267   6.343   6.951 -2.5176 -1.8400 -3.4260
   80MOL    H3922317   7.400   6.203   7.110  1.9487  1.2548  1.6592
   80MOL    H4022318   7.768   6.096   7.035  0.1567  0.0590  0.5128
   80MOL    H4122319   7.545   6.128   7.243  0.0832  1.0453 -1.5352
   80MOL    H4222320   7.718   6.189   6.812  0.2554 -0.9688 -0.0475
   80MOL    H4322321   7.583   6.317   6.660 -1.3205 -0.9862 -1.3870
   80MOL    C4422322   7.727   6.037   7.302 -0.9139 -0.3950 -0.4106
   80MOL    C4522323   7.862   6.006   7.282  0.1469 -0.5431  0.0037
   80MOL    C4622324   7.938   5.933   7.380 -0.0621  0.0587 -0.2932
   80MOL    C4722325   7.879   5.897   7.505 -0.3692  0.0835 -0.3634
   80MOL    C4822326   7.967   5.819   7.594  0.1828  0.1142  0.8055
   80MOL    C4922327   7.932   5.787   7.720 -0.1611  0.2031 -0.0640
   80MOL    C5022328   7.743   5.930   7.523 -0.5985 -0.7786 -0.0996
   80MOL    C5122329   7.672   6.002   7.424 -0.3853  0.0513 -0.5643
   80MOL    H5222330   7.910   6.040   7.192  1.6263 -0.7489  0.7004
   80MOL    H5322331   8.031   5.890   7.347  1.1447  0.8179  2.0166
   80MOL    H5422332   8.057   5.785   7.545  0.8054 -0.5746  2.3905
   80MOL    H5522333   7.840   5.827   7.762  0.8025  1.2809  1.0816
   80MOL    H5622334   7.681   5.902   7.607  0.1781 -1.9932  0.0721
   80MOL    H5722335   7.568   6.018   7.445 -0.0175  0.1813  1.3005
   80MOL    C5822336   8.006   5.704   7.809 -0.2260 -0.4604  0.2071
   80MOL    C5922337   8.108   5.615   7.760 -0.1492 -0.7482  0.4758
   80MOL    C6022338   0.051   5.550   7.857  0.0903  0.1174 -0.2801
   80MOL    C6122339   0.031   5.562   7.997 -0.7181 -0.1769 -0.2028
   80MOL    C6222340   0.111   5.482   8.091  0.7134  0.3734 -0.1847
   80MOL    C6322341   0.099   5.478   0.084 -0.2044  0.4931  0.6539
   80MOL    C6422342   8.066   5.643   8.044  0.7599 -0.3151 -0.2333
   80MOL    C6522343   7.984   5.712   7.953  0.2327 -0.2648 -0.6301
   80MOL    H6622344   8.135   5.606   7.655 -0.6229  3.6745 -0.1242
   80MOL    H6722345   0.136   5.498   7.815 -0.0760  0.9710 -1.6982
   80MOL    H6822346   0.191   5.427   8.042 -0.8218 -2.4148  0.3612
   80MOL    H6922347   0.025   5.545   0.124 -1.1967  0.9579 -1.8828
   80MOL    H7022348   8.040   5.655   0.003  2.0167 -0.8296  0.1510
   80MOL    H7122349   7.905   5.775   7.990 -0.3979 -1.4885  0.1340
   80MOL    C7222350   0.185   5.402   0.171  0.3127 -0.6067  0.3405
   80MOL    C7322351   0.144   5.373   0.301  0.1673 -0.8074  0.3273
   80MOL    C7422352   0.226   5.300   0.391  0.3248  0.5810  0.4318
   80MOL    C7522353   0.345   5.246   0.338  0.5031  0.2036  0.2012
   80MOL    C7622354   0.436   5.176   0.424 -0.1940 -0.3025  0.0091
   80MOL    C7722355   0.414   5.151   0.556 -0.3334 -0.4228  0.0474
   80MOL    C7822356   0.391   5.282   0.206 -0.1261  0.1208 -0.3671
   80MOL    C7922357   0.311   5.364   0.126 -0.6170  0.4534 -0.0237
   80MOL    H8022358   0.053   5.410   0.346  1.3987  1.2832  1.1241
   80MOL    H8122359   0.181   5.281   0.487  0.0229 -0.8214  0.0191
   80MOL    H8222360   0.530   5.149   0.376  0.9755  0.2862  1.9294
   80MOL    H8322361   0.326   5.194   0.600 -0.8390  0.1581 -1.5389
   80MOL    H8422362   0.491   5.249   0.180  0.0195 -0.7177  1.2023
   80MOL    H8522363   0.349   5.387   0.028  0.6732 -0.4718  0.2388
   80MOL    C8622364   0.504   5.072   0.644 -0.0014 -0.5573 -0.1379
   80MOL    C8722365   0.641   5.059   0.621  0.3172  0.1719  0.4169
   80MOL    C8822366   0.720   4.994   0.717  0.0034  0.1047 -0.5127
   80MOL    C8922367   0.665   4.942   0.836  0.3622  0.3024  0.0274
   80MOL    C9022368   0.748   4.873   0.932 -0.0642  0.1347  0.2497
   80MOL    C9122369   0.708   4.790   1.027 -0.3455  0.3866 -0.0104
   80MOL    C9222370   0.527   4.958   0.857 -0.5630 -0.0013 -1.2544
   80MOL    C9322371   0.444   5.023   0.763 -0.8062 -0.4718 -0.0924
   80MOL    H9422372   0.689   5.094   0.531 -0.6741 -1.7541 -0.9016
   80MOL    H9522373   0.827   4.990   0.699  0.4150  3.2632  0.9358
   80MOL    H9622374   0.851   4.901   0.916  0.4428 -1.9213 -0.2289
   80MOL    H9722375   0.601   4.775   1.027 -0.4587  1.1806 -0.0891
   80MOL    H9822376   0.495   4.930   0.956  2.5488  1.1688  0.1652
   80MOL    H9922377   0.337   5.015   0.773 -0.8767 -0.9800 -1.1332
   80MOL   C10022378   0.782   4.731   1.130  0.3532 -0.3563  0.1325
   80MOL   C10122379   0.912   4.772   1.162 -0.4770  0.9917  0.2619
   80MOL   C10222380   0.987   4.703   1.263  0.4987  0.5932  0.2830
   80MOL   C10322381   0.939   4.594   1.337  1.1464  0.4198  0.2621
   80MOL   C10422382   1.011   4.539   1.448  0.1327 -0.7383 -0.3241
   80MOL   C10522383   1.143   4.538   1.446 -1.1140  0.5608 -0.6481
   80MOL   C10622384   0.802   4.565   1.307  0.2579  0.1401 -0.4677
   80MOL   C10722385   0.729   4.626   1.207 -0.2631 -0.3921  0.4681
   80MOL   H10822386   0.964   4.854   1.115  0.2353  0.6965  0.5354
   80MOL   H10922387   1.083   4.746   1.287  2.0083 -2.4683 -0.0340
   80MOL   H11022388   0.955   4.511   1.535  0.5569  1.9660  0.8806
   80MOL   H11122389   1.209   4.561   1.363 -0.1420  0.1540 -0.0019
   80MOL   H11222390   0.767   4.477   1.360 -0.2411  0.3391 -0.4643
   80MOL   H11322391   0.630   4.588   1.185  0.4148 -1.7180 -0.3350
   80MOL   C11422392   1.227   4.492   1.554 -0.2786 -0.7050  0.1085
   80MOL   C11522393   1.188   4.519   1.689 -0.1708 -0.1146  0.7589
   80MOL   C11622394   1.263   4.459   1.796  0.0178 -0.1887  0.1363
   80MOL   C11722395   1.395   4.411   1.773  0.0297 -0.0622 -0.2644
   80MOL   C11822396   1.500   4.385   1.877 -0.2459  0.0448 -0.4511
   80MOL   C11922397   1.494   4.414   2.007 -0.4899 -0.5375  0.0843
   80MOL   C12022398   1.432   4.394   1.640 -0.1568 -0.2450  0.0304
   80MOL   C12122399   1.350   4.439   1.527  0.3213  0.1689  0.2779
   80MOL   H12222400   1.088   4.557   1.704  0.3199  0.8242  1.8228
   80MOL   H12322401   1.215   4.463   1.892 -0.4206  0.5115 -0.1142
   80MOL   H12422402   1.584   4.327   1.841 -1.4002 -0.0418 -3.1135
   80MOL   H12522403   1.411   4.480   2.032  2.2637  1.9410  3.1116
   80MOL   H12622404   1.519   4.339   1.609 -1.1933 -2.1899  0.4391
   80MOL   H12722405   1.381   4.424   1.424 -2.1855  0.4288 -0.5451
   80MOL   C12822406   1.590   4.377   2.114 -0.1360  0.1579  0.0405
   80MOL   C12922407   1.563   4.409   2.249 -0.5832  0.0080 -0.2891
   80MOL   C13022408   1.645   4.373   2.356  0.2030 -0.2695 -0.0268
   80MOL   C13122409   1.763   4.297   2.333 -0.2652 -0.3621  0.4409
   80MOL   C13222410   1.864   4.262   2.433  0.3782 -0.5785 -0.1103
   80MOL   C13322411   1.854   4.299   2.562  0.2324 -0.6713 -0.0098
   80MOL   C13422412   1.798   4.270   2.198  0.0506  0.3151  0.0864
   80MOL   C13522413   1.709   4.300   2.088  0.2336  0.1215 -0.1708
   80MOL   H13622414   1.474   4.461   2.281 -1.3644 -1.2581 -0.3541
   80MOL   H13722415   1.601   4.394   2.452 -1.1358 -0.2630 -0.6258
   80MOL   H13822416   1.948   4.202   2.400  0.9249  0.3106 -0.3377
   80MOL   H13922417   1.769   4.354   2.597  0.6248  0.0649 -0.1892
   80MOL   H14022418   1.891   4.219   2.176  1.0406  0.5278  3.5232
   80MOL   H14122419   1.715   4.271   1.984 -0.0144 -0.0843 -0.1281
   80MOL   C14222420   1.948   4.264   2.676  0.1139  0.3872  0.2537
   80MOL   C14322421   1.931   4.337   2.797 -0.5134  0.5181 -0.0634
   80MOL   C14422422   2.024   4.321   2.907 -0.0782  0.6014  0.5722
   80MOL   C14522423   2.128   4.217   2.893 -0.0069 -0.4630 -0.4239
   80MOL   C14622424   2.224   4.203   3.006 -0.1553 -0.4153 -0.5221
   80MOL   C14722425   2.280   4.083   3.043  0.1041  0.1358 -0.0457
   80MOL   C14822426   2.135   4.136   2.783 -0.5065 -0.0769  0.0210
   80MOL   C14922427   2.048   4.160   2.672  0.2408 -0.4584  0.2089
   80MOL   H15022428   1.853   4.411   2.804 -0.4889  0.6055 -0.6737
   80MOL   H15122429   2.026   4.395   2.986 -1.6278 -1.1356  2.3071
   80MOL   H15222430   2.256   4.293   3.056 -1.2606 -0.0474 -0.4591
   80MOL   H15322431   2.251   3.994   2.990  0.2652  1.3662 -2.2247
   80MOL   H15422432   2.213   4.062   2.782  1.0365  1.5312 -1.8986
   80MOL   H15522433   2.069   4.112   2.578 -1.5305  0.0520 -0.4569
   80MOL   C15622434   2.374   4.056   3.154 -0.6354  0.0717 -0.3848
   80MOL   C15722435   2.378   3.924   3.215 -0.4562  0.5718  0.5813
   80MOL   C15822436   2.471   3.898   3.319  0.1900 -0.5103 -0.4120
   80MOL   C15922437   2.556   3.998   3.368  0.1917 -0.1065 -0.3797
   80MOL   C16022438   2.654   3.972   3.474  0.1476 -0.0698  0.1707
   80MOL   C16122439   2.727   4.060   3.543  0.2097  0.1075  0.2076
   80MOL   C16222440   2.546   4.124   3.305 -0.1363  0.3472  0.5868
   80MOL   C16322441   2.460   4.156   3.198 -0.4479  0.7525 -0.0888
   80MOL   H16422442   2.302   3.854   3.185  0.7965 -0.4210 -0.3585
   80MOL   H16522443   2.466   3.804   3.372 -0.6547 -0.0162  0.4157
   80MOL   H16622444   2.666   3.865   3.479  0.0734 -0.1339 -0.8897
   80MOL   H16722445   2.703   4.165   3.535 -0.0004  0.0063 -0.5615
   80MOL   H16822446   2.605   4.209   3.332 -1.2494  0.6259  2.2548
   80MOL   H16922447   2.472   4.252   3.150 -2.8014  2.2544  2.1280
   80MOL   C17022448   2.840   4.026   3.627 -0.1716  0.3154  0.4690
   80MOL   C17122449   2.911   3.902   3.612 -0.1578 -0.5743 -0.4302
   80MOL   C17222450   3.016   3.866   3.700 -0.4441 -0.8599 -0.8283
   80MOL   C17322451   3.056   3.962   3.798  0.7569  0.2688 -0.2335
   80MOL   C17422452   3.181   3.946   3.883  0.1647 -0.2447 -0.0109
   80MOL   C17522453   3.258   3.835   3.891  0.2439  0.1589 -0.0928
   80MOL   C17622454   2.976   4.077   3.810 -0.0865 -0.3888 -0.2394
   80MOL   C17722455   2.870   4.113   3.726 -0.0262 -0.3393 -0.1214
   80MOL   H17822456   2.880   3.833   3.536  0.5770 -1.5177  0.1171
   80MOL   H17922457   3.067   3.773   3.679 -0.6425 -0.9407 -0.9483
   80MOL   H18022458   3.204   4.033   3.942 -1.7868 -0.1349  0.6268
   80MOL   H18122459   3.223   3.747   3.840  2.6980 -0.3197 -1.0145
   80MOL   H18222460   3.010   4.145   3.888 -0.3274 -0.9817  0.3863
   80MOL   H18322461   2.817   4.207   3.726 -0.6529 -0.6890 -0.6942
   80MOL   C18422462   3.377   3.810   3.967  0.4638 -0.0165  0.2885
   80MOL   C18522463   3.424   3.890   4.069  0.3779 -0.1283  0.0595
   80MOL   C18622464   3.549   3.871   4.125  0.9502 -0.6029 -0.7776
   80MOL   C18722465   3.634   3.766   4.090  0.8217 -0.4122  0.4514
   80MOL   C18822466   3.761   3.750   4.154  0.4592  0.4927 -0.1748
   80MOL   C18922467   3.857   3.654   4.150 -0.6049 -0.7541 -0.1202
   80MOL   C19022468   3.593   3.682   3.987  0.7827  0.6165  0.4115
   80MOL   C19122469   3.463   3.705   3.924  0.0879  0.8918 -1.0280
   80MOL   H19222470   3.360   3.967   4.110 -0.7451 -1.2478  0.4410
   80MOL   H19322471   3.584   3.927   4.210  0.8338  0.4934 -1.4438
   80MOL   H19422472   3.785   3.831   4.222  1.2323 -0.5523  0.8112
   80MOL   H19522473   3.842   3.573   4.081  0.9863 -2.1244  1.0997
   80MOL   H19622474   3.658   3.601   3.958  0.4871  0.5937 -0.2114
   80MOL   H19722475   3.431   3.646   3.839  0.7977 -1.0633  0.0521
   80MOL   C19822476   3.993   3.642   4.209  0.1736  0.3258  0.7260
   80MOL   C19922477   4.051   3.746   4.277 -0.7914  0.3776 -0.0852
   80MOL   C20022478   4.180   3.733   4.327  0.5042 -0.1335 -0.7804
   80MOL   C20122479   4.269   3.624   4.298  0.6855  0.3169 -0.2195
   80MOL   C20222480   4.407   3.633   4.339  0.1282  0.1793  0.2297
   80MOL   C20322481   4.499   3.538   4.310 -0.4977  0.6582 -0.2289
   80MOL   C20422482   4.210   3.524   4.223 -1.3932  0.2875  0.8553
   80MOL   C20522483   4.074   3.532   4.186 -0.4973  0.0306  0.4530
   80MOL   H20622484   3.990   3.835   4.290  0.7037  1.6525 -1.6009
   80MOL   H20722485   4.229   3.805   4.391  0.1688  0.1400 -0.8289
   80MOL   H20822486   4.435   3.721   4.396 -0.1388 -1.3411  2.7641
   80MOL   H20922487   4.478   3.446   4.257 -0.4934  0.9665 -0.7640
   80MOL   H21022488   4.261   3.433   4.195  0.0964  1.5430 -0.5965
   80MOL   H21122489   4.039   3.440   4.141 -0.2020 -0.0809  0.4439
   80MOL   C21222490   4.650   3.549   4.337 -0.3638 -0.4373  0.0025
   80MOL   C21322491   4.713   3.660   4.396 -0.0017 -0.2002  0.9549
   80MOL   C21422492   4.855   3.663   4.420  0.4593 -0.2209  0.2503
   80MOL   C21522493   4.931   3.540   4.404  0.1852  0.2395  0.0532
   80MOL   C21622494   5.073   3.550   4.437  0.3964  0.5001  0.3893
   80MOL   C21722495   5.171   3.469   4.396 -0.0072 -0.8366 -0.5366
   80MOL   C21822496   4.870   3.429   4.342  0.3526 -0.4972  0.0881
   80MOL   C21922497   4.731   3.439   4.305  0.0332  0.4092 -0.2178
   80MOL   H22022498   4.652   3.743   4.429 -1.1775 -1.4076  1.8723
   80MOL   H22122499   4.890   3.753   4.469 -1.1255  0.4947  0.1144
   80MOL   H22222500   5.106   3.629   4.503  1.4307 -0.4104  0.9757
   80MOL   H22322501   5.142   3.380   4.342  0.4147 -0.1031 -2.0130
   80MOL   H22422502   4.923   3.338   4.319  2.8105  1.3314 -1.6843
   80MOL   H22522503   4.684   3.358   4.251 -0.3928  0.5563 -0.0647
   80MOL   C22622504   5.316   3.483   4.428 -0.1809  0.6146 -0.1670
   80MOL   C22722505   5.371   3.602   4.478  0.5438  0.4715 -0.1158
   80MOL   C22822506   5.504   3.596   4.528  0.1141 -0.2220 -0.3543
   80MOL   C22922507   5.580   3.478   4.520  0.3399 -0.4884  0.1577
   80MOL   C23022508   5.718   3.491   4.566 -0.7637 -0.6828  0.1806
   80MOL   C23122509   5.818   3.409   4.545 -0.0312  0.2025  0.2822
   80MOL   C23222510   5.522   3.359   4.468  0.3716  0.3418  0.4256
   80MOL   C23322511   5.391   3.365   4.419 -0.5126  0.1847 -0.3229
   80MOL   H23422512   5.316   3.694   4.490  0.5158  0.2955  1.1996
   80MOL   H23522513   5.545   3.691   4.561 -2.0680  0.1832  1.3299
   80MOL   H23622514   5.737   3.574   4.632 -3.3267  0.2386 -0.1913
   80MOL   H23722515   5.788   3.320   4.492 -0.4321 -0.2328  1.2262
   80MOL   H23822516   5.556   3.257   4.454 -0.5181 -0.5221  3.8689
   80MOL   H23922517   5.343   3.277   4.380 -0.0886 -1.1474  2.0472
   80MOL   C24022518   5.950   3.421   4.598 -0.7561  0.9350 -1.2158
   80MOL   C24122519   6.035   3.308   4.578 -0.5639  0.0619 -0.4407
   80MOL   C24222520   6.167   3.311   4.633  0.0282 -0.5711  0.9479
   80MOL   C24322521   6.211   3.424   4.705  0.6262  0.2965  0.3197
   80MOL   C24422522   6.346   3.435   4.767  0.3245 -0.3422 -0.4562
   80MOL   C24522523   6.377   3.530   4.852 -0.6721 -0.4912 -0.3253
   80MOL   C24622524   6.127   3.538   4.708 -0.6985 -0.7427 -0.1785
   80MOL   C24722525   5.996   3.536   4.659 -0.1116  0.1617  0.3718
   80MOL   H24822526   6.000   3.217   4.533 -0.0771 -1.0825  1.4608
   80MOL   H24922527   6.232   3.225   4.627 -1.4664 -1.6728  0.1168
   80MOL   H25022528   6.419   3.360   4.739  1.4610  1.5172 -2.5730
   80MOL   H25122529   6.300   3.597   4.887  1.1994  1.3859  0.3306
   80MOL   H25222530   6.151   3.632   4.754  1.6610 -1.3110 -0.1706
   80MOL   H25322531   5.931   3.620   4.677 -0.7842  0.0150 -1.2991
   80MOL   C25422532   6.515   3.553   4.907 -0.5265  0.3080  0.0048
   80MOL   C25522533   6.533   3.672   4.990  0.3721  0.1037  0.2386
   80MOL   C25622534   6.664   3.710   5.021 -0.3538  1.1089  0.0764
   80MOL   C25722535   6.784   3.643   4.979  0.1528  0.0698  0.3252
   80MOL   C25822536   6.911   3.717   4.995  0.2700  0.1503  0.4097
   80MOL   C25922537   7.020   3.715   4.913  0.2147  0.0913  0.3396
   80MOL   C26022538   6.760   3.525   4.906  0.0084  0.5379  0.2299
   80MOL   C26122539   6.629   3.482   4.869  0.3085 -0.0762 -0.2870
   80MOL   H26222540   6.452   3.738   5.017 -0.4348 -0.7252 -0.1573
   80MOL   H26322541   6.671   3.811   5.059 -1.7961  0.9776  0.7022
   80MOL   H26422542   6.912   3.772   5.087 -0.3261  0.3400  0.3079
   80MOL   H26522543   7.104   3.771   4.952 -0.0330  0.6077  0.1434
   80MOL   H26622544   6.848   3.469   4.878 -0.7017 -1.3243  1.6202
   80MOL   H26722545   6.617   3.398   4.802  0.4926 -0.7902  0.5675
   80MOL   C26822546   7.056   3.661   4.782  0.8250  0.5415 -0.1963
   80MOL   C26922547   7.180   3.599   4.753  0.1448 -0.0420  0.4855
   80MOL   C27022548   7.194   3.530   4.637 -0.1345  0.5384  0.5946
   80MOL   C27122549   7.102   3.515   4.540  0.3535  0.3488 -0.2747
   80MOL   C27222550   7.134   3.433   4.424  0.2191 -0.1226  0.6050
   80MOL   C27322551   7.049   3.401   4.327 -0.0303  0.3143 -0.2760
   80MOL   C27422552   6.971   3.574   4.569  0.7910 -0.3779  0.3004
   80MOL   C27522553   6.953   3.649   4.691 -0.3451 -0.6519  0.0284
   80MOL   H27622554   7.263   3.607   4.821  0.5159  0.1390  0.0122
   80MOL   H27722555   7.286   3.478   4.615  0.9741  2.1481  1.3550
   80MOL   H27822556   7.236   3.398   4.426  0.2126 -0.0851  2.1630
   80MOL   H27922557   6.950   3.442   4.317 -0.1031 -0.3277 -2.6029
   80MOL   H28022558   6.890   3.578   4.498  2.2341 -0.1478 -1.3936
   80MOL   H28122559   6.856   3.696   4.706 -0.3816 -1.5159  2.8209
   80MOL   H28222560   7.092   3.329   4.258 -1.8797 -1.0897 -0.0078
   81MOL     C122561   4.933   1.878   8.043  0.2057  0.0136 -0.1881
   81MOL     C222562   5.025   1.769   8.028 -0.8057 -0.9795 -1.0830
   81MOL     C322563   5.152   1.763   8.086 -0.3817 -0.4586 -0.0844
   81MOL     C422564   5.189   1.863   0.041 -0.2957 -0.4436 -0.4292
   81MOL     C522565   5.321   1.858   0.110  0.6080  0.1673  0.0342
   81MOL     C622566   5.342   1.927   0.224  0.0751  0.0720  0.2220
   81MOL     C722567   5.098   1.975   0.061 -0.1183 -0.3303 -0.0919
   81MOL     C822568   4.975   1.979   8.137  0.0528 -0.2652  0.5832
   81MOL     H922569   4.982   1.689   7.969  1.7351 -1.5824 -2.1422
   81MOL    H1022570   5.221   1.680   8.074  0.1866 -0.1098  0.6988
   81MOL    H1122571   5.388   1.788   0.062 -0.3403  0.5435 -1.8814
   81MOL    H1222572   5.262   1.980   0.273  0.0521 -1.0214  1.3991
   81MOL    H1322573   5.122   2.057   0.127 -1.5608 -1.1489  1.4814
   81MOL    H1422574   4.907   2.060   0.014  1.0230  1.0013 -1.0048
   81MOL    H1522575   4.833   1.884   8.004 -0.0748 -1.7897  0.2450
   81MOL    C1622576   5.467   1.931   0.298  0.3919  0.1450  0.0466
   81MOL    C1722577   5.568   1.833   0.285 -0.0835  0.4653  0.5325
   81MOL    C1822578   5.686   1.844   0.358  0.4507  0.0654  1.4577
   81MOL    C1922579   5.708   1.939   0.456  0.1978 -0.3434  0.4019
   81MOL    C2022580   5.833   1.957   0.520  0.1326 -0.0166  0.2444
   81MOL    C2122581   5.949   1.890   0.490  0.0319 -0.6236 -0.3440
   81MOL    C2222582   5.607   2.031   0.479  0.3927  0.0183 -0.0697
   81MOL    C2322583   5.485   2.033   0.401 -0.5772  0.2660  0.1207
   81MOL    H2422584   5.565   1.765   0.201 -1.6556  1.3944 -0.1768
   81MOL    H2522585   5.764   1.771   0.340 -0.6910 -0.4360 -1.9743
   81MOL    H2622586   5.832   2.032   0.599  1.1399  0.0476  0.1971
   81MOL    H2722587   5.952   1.810   0.417 -0.6541 -0.7465 -0.2426
   81MOL    H2822588   5.631   2.104   0.555 -0.3671  1.6868 -1.4160
   81MOL    H2922589   5.420   2.115   0.425  0.1748  0.6863  0.7558
   81MOL    C3022590   6.079   1.907   0.559 -0.8533 -0.8532  0.1463
   81MOL    C3122591   6.182   1.818   0.523  0.3171  0.2473  0.9756
   81MOL    C3222592   6.310   1.848   0.572 -0.5566 -0.6404  0.1871
   81MOL    C3322593   6.338   1.945   0.674 -0.1395 -0.2721  0.2072
   81MOL    C3422594   6.473   1.969   0.718 -0.2125 -0.4663 -0.6851
   81MOL    C3522595   6.520   2.092   0.746  0.5656 -0.1601  0.0622
   81MOL    C3622596   6.226   2.023   0.713 -0.7496  0.2877  0.0091
   81MOL    C3722597   6.095   2.005   0.657 -0.3484 -0.2268  0.5696
   81MOL    H3822598   6.171   1.755   0.436  2.5261 -0.6967  1.3439
   81MOL    H3922599   6.391   1.785   0.537 -2.9253 -2.3262 -2.4511
   81MOL    H4022600   6.544   1.888   0.724 -0.1524 -0.4527 -1.2166
   81MOL    H4122601   6.455   2.177   0.731  1.8349  0.5039 -1.8081
   81MOL    H4222602   6.234   2.100   0.788  0.9732 -0.1516  0.2872
   81MOL    H4322603   6.014   2.070   0.684  0.8966  2.0673 -1.0443
   81MOL    C4422604   6.654   2.125   0.788 -0.4509 -0.4867  0.3949
   81MOL    C4522605   6.774   2.048   0.776 -0.2071 -0.1512  0.5347
   81MOL    C4622606   6.891   2.082   0.847  0.2001 -0.6367  0.2248
   81MOL    C4722607   6.898   2.207   0.916 -0.8000  0.2290 -0.1547
   81MOL    C4822608   7.019   2.243   1.005 -0.8097 -0.0384  0.2156
   81MOL    C4922609   7.139   2.180   1.016  1.0096  0.1826 -0.2018
   81MOL    C5022610   6.785   2.292   0.919 -0.1750  0.2332  0.3873
   81MOL    C5122611   6.663   2.245   0.861 -0.1930 -0.6197  0.0710
   81MOL    H5222612   6.787   1.963   0.710  0.9681 -0.4376  1.1272
   81MOL    H5322613   6.972   2.012   0.863  0.0222 -0.5960  1.3727
   81MOL    H5422614   7.001   2.335   1.059  0.3346  1.2581 -1.5581
   81MOL    H5522615   7.135   2.089   0.958 -0.2121 -0.4647  0.8554
   81MOL    H5622616   6.793   2.383   0.977  0.0046  1.3743 -1.3879
   81MOL    H5722617   6.575   2.308   0.865 -1.4676 -2.4300  1.7413
   81MOL    C5822618   7.255   2.224   1.089  0.4577 -0.6987 -0.4004
   81MOL    C5922619   7.264   2.341   1.173  0.0906  0.0195 -0.6117
   81MOL    C6022620   7.386   2.367   1.236 -0.1174  0.1799  0.2834
   81MOL    C6122621   7.505   2.294   1.203  0.0134 -0.0877  0.5131
   81MOL    C6222622   7.629   2.336   1.268 -0.1582 -1.1343  0.5965
   81MOL    C6322623   7.750   2.271   1.262  0.8130 -0.5377  0.2304
   81MOL    C6422624   7.494   2.178   1.127 -0.3087  0.1356  0.0593
   81MOL    C6522625   7.368   2.141   1.072  0.7008 -0.2320  0.9422
   81MOL    H6622626   7.177   2.404   1.185 -1.4306 -2.1809  0.0877
   81MOL    H6722627   7.396   2.449   1.306  2.8210  0.1139 -0.0098
   81MOL    H6822628   7.636   2.427   1.326  0.3436 -0.5187 -0.4328
   81MOL    H6922629   7.752   2.194   1.187 -1.5444  0.0438 -0.4628
   81MOL    H7022630   7.579   2.113   1.112 -1.3342 -1.2615  0.2480
   81MOL    H7122631   7.356   2.059   1.002 -0.5715  0.6914  0.0439
   81MOL    C7222632   7.888   2.304   1.323 -0.1772  0.6330 -0.0436
   81MOL    C7322633   8.006   2.242   1.266 -1.1423 -0.0564 -0.7930
   81MOL    C7422634   8.129   2.265   1.328 -0.4214 -0.7517  0.4503
   81MOL    C7522635   0.001   2.367   1.425 -0.3384  0.0414  0.3901
   81MOL    C7622636   0.132   2.399   1.476  0.5979  0.2717  0.1325
   81MOL    C7722637   0.250   2.341   1.453  0.5499  0.5148 -0.4141
   81MOL    C7822638   8.028   2.432   1.478 -0.5372  0.8750  1.0779
   81MOL    C7922639   7.903   2.407   1.424  0.3885  0.8161 -0.9796
   81MOL    H8022640   8.003   2.164   1.191 -1.8976 -1.8150  1.0404
   81MOL    H8122641   0.070   2.211   1.290 -1.5634 -1.5635 -1.0034
   81MOL    H8222642   0.146   2.481   1.545  1.6829 -0.6607  1.0504
   81MOL    H8322643   0.263   2.252   1.393  0.2741 -1.1296  1.9271
   81MOL    H8422644   8.029   2.501   1.561  1.0023 -1.3721  3.0061
   81MOL    H8522645   7.813   2.452   1.464  1.8697  2.0735  1.0281
   81MOL    C8622646   0.393   2.387   1.493 -0.5255 -0.4066  0.4100
   81MOL    C8722647   0.500   2.314   1.434 -0.0368  0.2853  0.3722
   81MOL    C8822648   0.632   2.343   1.463  1.2342 -0.6117  0.3477
   81MOL    C8922649   0.666   2.449   1.553 -1.1211 -0.2904  0.1503
   81MOL    C9022650   0.807   2.486   1.582 -0.0130  0.6393  0.2152
   81MOL    C9122651   0.852   2.514   1.702 -0.6064  0.4522 -0.1220
   81MOL    C9222652   0.557   2.529   1.611  0.2197  0.4165  0.1860
   81MOL    C9322653   0.420   2.495   1.577 -0.5294 -0.3672 -0.0356
   81MOL    H9422654   0.477   2.231   1.369 -1.5885  1.5239 -0.6917
   81MOL    H9522655   0.712   2.278   1.430 -1.3803 -3.4125 -0.7568
   81MOL    H9622656   0.871   2.495   1.495 -1.0765 -0.6456 -0.7319
   81MOL    H9722657   0.781   2.499   1.782 -2.1099  1.8764 -1.1636
   81MOL    H9822658   0.571   2.607   1.684 -2.5354  1.2341 -0.0720
   81MOL    H9922659   0.351   2.561   1.627  1.3741  2.3992 -0.8872
   81MOL   C10022660   0.986   2.566   1.738 -0.3277  0.6768  0.5397
   81MOL   C10122661   1.087   2.601   1.641  0.3684  0.3126  0.0053
   81MOL   C10222662   1.212   2.654   1.684  0.9010  0.8200  0.2743
   81MOL   C10322663   1.246   2.667   1.824  0.5715  0.1769  0.4529
   81MOL   C10422664   1.372   2.735   1.857 -0.2710  0.8531  0.4927
   81MOL   C10522665   1.417   2.797   1.968 -0.0581 -0.5810 -0.2878
   81MOL   C10622666   1.150   2.622   1.916  0.1409  0.0381 -0.8256
   81MOL   C10722667   1.020   2.573   1.880 -0.3613 -0.5615  0.2615
   81MOL   H10822668   1.068   2.598   1.534 -0.3408  0.9940  0.1019
   81MOL   H10922669   1.276   2.692   1.606 -2.7666 -1.9356 -4.3460
   81MOL   H11022670   1.440   2.726   1.774 -2.1102  1.9947 -1.1560
   81MOL   H11122671   1.345   2.805   2.049  0.2373 -1.3934  0.0613
   81MOL   H11222672   1.180   2.648   2.016  2.2587  0.9168 -1.6467
   81MOL   H11322673   0.939   2.551   1.948 -0.4300  4.9942  2.1681
   81MOL   C11422674   1.550   2.859   1.987  0.0766 -0.0536 -0.3444
   81MOL   C11522675   1.580   2.901   2.118  0.5225 -0.4792 -0.1138
   81MOL   C11622676   1.709   2.952   2.147 -0.1609 -0.1865  0.1650
   81MOL   C11722677   1.803   2.974   2.046 -0.2296  0.1430 -0.7803
   81MOL   C11822678   1.929   3.043   2.074  0.4040 -0.1950 -0.0890
   81MOL   C11922679   1.975   3.072   2.199  0.3028 -0.7049  0.2554
   81MOL   C12022680   1.779   2.907   1.925 -0.5638  0.2245 -0.2044
   81MOL   C12122681   1.657   2.847   1.892 -0.2812 -0.3968  0.5339
   81MOL   H12222682   1.505   2.913   2.195  1.5601 -2.6269  1.3063
   81MOL   H12322683   1.732   2.982   2.248 -1.6641 -0.7152  0.6869
   81MOL   H12422684   1.966   3.096   1.988  0.2187 -1.6032 -1.0532
   81MOL   H12522685   1.940   3.032   2.293  2.5033 -1.3325  0.8605
   81MOL   H12622686   1.847   2.907   1.841 -0.5822 -1.0576 -0.2248
   81MOL   H12722687   1.633   2.795   1.800  0.8976  1.4099 -0.8598
   81MOL   C12822688   2.080   3.169   2.218  0.4950 -0.2697 -0.7465
   81MOL   C12922689   2.169   3.207   2.121  0.0015 -0.1577 -0.0428
   81MOL   C13022690   2.253   3.311   2.146  0.1696  0.4928 -0.6065
   81MOL   C13122691   2.248   3.389   2.264 -0.2245  0.5692 -0.1683
   81MOL   C13222692   2.300   3.522   2.278  0.3429 -0.6350 -0.1703
   81MOL   C13322693   2.370   3.586   2.184 -0.8226 -0.7573  0.2739
   81MOL   C13422694   2.153   3.350   2.365 -0.3616 -0.3490  0.7298
   81MOL   C13522695   2.068   3.246   2.334 -0.1605 -0.0188 -0.0504
   81MOL   H13622696   2.177   3.149   2.029  3.2910 -0.1386  0.1999
   81MOL   H13722697   2.320   3.342   2.067 -1.2305  1.0751 -1.5896
   81MOL   H13822698   2.267   3.571   2.368 -0.8642 -0.3555 -0.7516
   81MOL   H13922699   2.414   3.532   2.101 -0.2994 -1.8233  1.2317
   81MOL   H14022700   2.140   3.402   2.459  0.1567  1.8952 -0.4251
   81MOL   H14122701   1.992   3.224   2.407  0.0214 -2.4063 -0.5168
   81MOL   C14222702   2.398   3.736   2.176 -0.7072 -0.7327 -0.1693
   81MOL   C14322703   2.378   3.821   2.289 -0.7332  0.2545 -0.0576
   81MOL   C14422704   2.364   3.962   2.277  0.0083  0.0193  0.5496
   81MOL   C14522705   2.358   4.017   2.149 -0.4340 -0.0995 -0.2371
   81MOL   C14622706   2.292   4.148   2.140 -0.4705  0.1086 -0.4619
   81MOL   C14722707   2.231   4.197   2.028 -0.1399  0.0295 -0.5887
   81MOL   C14822708   2.384   3.937   2.042  0.2318  0.3063  0.2682
   81MOL   C14922709   2.408   3.797   2.053  0.1452 -0.0459  0.5545
   81MOL   H15022710   2.382   3.773   2.386  1.3037  0.8507  0.1767
   81MOL   H15122711   2.352   4.030   2.361 -1.4017  0.4232  0.0231
   81MOL   H15222712   2.296   4.211   2.228 -1.6984  2.3694 -1.9761
   81MOL   H15322713   2.227   4.139   1.937 -3.1701  1.8470 -1.6866
   81MOL   H15422714   2.388   3.975   1.941 -1.3760  1.8644  0.7707
   81MOL   H15522715   2.420   3.750   1.956 -3.5594  0.1810 -0.0873
   81MOL   C15622716   2.163   4.325   2.025 -0.0526 -0.6146  0.1788
   81MOL   C15722717   2.108   4.364   1.902  0.1867  0.0363 -0.3113
   81MOL   C15822718   2.024   4.478   1.887  0.4319  0.3514 -0.0475
   81MOL   C15922719   1.983   4.553   2.000  0.0945 -0.3129 -0.0989
   81MOL   C16022720   1.867   4.640   1.974  0.5716  0.3866  0.3235
   81MOL   C16122721   1.776   4.670   2.072 -1.3053  0.8448  0.5823
   81MOL   C16222722   2.039   4.511   2.121 -0.1184  0.2751 -0.1611
   81MOL   C16322723   2.126   4.401   2.137  0.1458 -0.2418  0.1534
   81MOL   H16422724   2.129   4.306   1.813 -0.2927 -0.9952  0.2343
   81MOL   H16522725   1.982   4.503   1.790 -1.1301  0.1946  0.5824
   81MOL   H16622726   1.856   4.695   1.881  0.5656  2.3464  1.4697
   81MOL   H16722727   1.791   4.614   2.163 -1.5030 -0.1902 -0.0193
   81MOL   H16822728   2.008   4.557   2.213  0.3329 -1.4361  0.8766
   81MOL   H16922729   2.175   4.388   2.232  0.2570  1.6015  0.3536
   81MOL   C17022730   1.655   4.750   2.055 -0.2261  0.0790  0.0348
   81MOL   C17122731   1.564   4.740   2.160  0.0362  0.5985 -0.3901
   81MOL   C17222732   1.431   4.779   2.129 -0.3014  0.8967  0.0157
   81MOL   C17322733   1.395   4.836   2.009  0.3463  0.3019 -0.4559
   81MOL   C17422734   1.252   4.847   1.980 -0.3321 -0.4713 -0.4102
   81MOL   C17522735   1.180   4.729   2.003 -0.0817  0.6620  0.1855
   81MOL   C17622736   1.494   4.873   1.922  0.3067 -0.1059 -0.1198
   81MOL   C17722737   1.625   4.825   1.941  0.1360  0.1253 -0.1645
   81MOL   H17822738   1.591   4.687   2.250  1.0143  0.7530 -0.5882
   81MOL   H17922739   1.362   4.758   2.210  0.0661  2.0497  0.6349
   81MOL   H18022740   1.204   4.944   1.977 -0.0840  0.0654  5.6106
   81MOL   H18122741   1.240   4.644   2.034 -0.7068  0.6654  1.4402
   81MOL   H18222742   1.468   4.922   1.830  1.0534  1.2400  0.3761
   81MOL   H18322743   1.695   4.845   1.862  0.6673  1.0540  0.5416
   81MOL   C18422744   1.036   4.695   1.999 -0.6181  0.2808  0.3524
   81MOL   C18522745   0.945   4.793   1.951  0.2101  0.2212  0.4415
   81MOL   C18622746   0.810   4.769   1.960  0.2690  0.2285  0.3366
   81MOL   C18722747   0.762   4.642   2.001  0.2373 -0.5730 -0.7376
   81MOL   C18822748   0.619   4.614   2.005  0.2203  0.2938  0.0173
   81MOL   C18922749   0.562   4.499   2.045 -0.2416  0.2183 -1.4333
   81MOL   C19022750   0.852   4.542   2.049 -0.2934 -0.5709 -0.2764
   81MOL   C19122751   0.987   4.572   2.048  0.2070 -0.4995  0.5296
   81MOL   H19222752   0.963   4.895   1.922 -1.8319  1.0173  1.9086
   81MOL   H19322753   0.736   4.845   1.938 -1.2655 -1.6420 -1.2156
   81MOL   H19422754   0.561   4.697   1.968  0.5984 -0.5545 -2.5858
   81MOL   H19522755   0.620   4.415   2.079 -1.7025 -0.2993 -0.1755
   81MOL   H19622756   0.824   4.443   2.082 -0.1246 -0.8746 -1.0381
   81MOL   H19722757   1.061   4.506   2.091 -1.6049 -2.3557  0.8834
   81MOL   C19822758   0.417   4.472   2.053 -0.4685  0.2578  0.2394
   81MOL   C19922759   0.369   4.377   2.145 -0.1660 -0.0065  0.0591
   81MOL   C20022760   0.233   4.345   2.152  0.2570  0.3176  0.2613
   81MOL   C20122761   0.144   4.414   2.063  0.3351 -0.6057  0.6099
   81MOL   C20222762   0.002   4.382   2.068 -0.0742  0.0129 -0.4694
   81MOL   C20322763   8.042   4.452   2.020 -0.5383  0.4640  0.0306
   81MOL   C20422764   0.190   4.507   1.972 -0.3950 -0.4698 -0.3718
   81MOL   C20522765   0.330   4.532   1.966  0.6813  0.4401 -0.5582
   81MOL   H20622766   0.440   4.326   2.209  1.5509  0.0144 -1.7734
   81MOL   H20722767   0.189   4.269   2.214 -1.2386  3.0780  2.7357
   81MOL   H20822768   8.126   4.291   2.123 -1.8678  0.7172  0.0477
   81MOL   H20922769   8.056   4.540   1.958  0.7765  0.3842  0.1929
   81MOL   H21022770   0.120   4.559   1.908 -0.3526 -0.9699 -0.8284
   81MOL   H21122771   0.366   4.591   1.883  1.1228  1.2622  0.2044
   81MOL   C21222772   7.896   4.429   2.035 -0.3068 -0.2095  0.4821
   81MOL   C21322773   7.805   4.494   1.952  0.1001 -0.4590 -1.4245
   81MOL   C21422774   7.667   4.471   1.958 -0.6372  0.0273 -0.0983
   81MOL   C21522775   7.617   4.386   2.057 -0.1528  0.1922  0.2978
   81MOL   C21622776   7.474   4.372   2.083 -0.0744 -0.0272 -0.1727
   81MOL   C21722777   7.376   4.436   2.020 -0.4991 -0.1271  0.0871
   81MOL   C21822778   7.710   4.317   2.139  1.1048 -0.1162  0.6001
   81MOL   C21922779   7.850   4.338   2.126 -0.2180 -0.3736  0.1399
   81MOL   H22022780   7.842   4.558   1.873  1.7962  0.9849  0.4804
   81MOL   H22122781   7.598   4.526   1.896 -1.7117  0.3966  1.4111
   81MOL   H22222782   7.447   4.308   2.166  0.1674 -1.1413 -0.9455
   81MOL   H22322783   7.394   4.501   1.935  0.7887 -2.7035 -1.6535
   81MOL   H22422784   7.683   4.256   2.223  0.7346  0.4397  0.8856
   81MOL   H22522785   7.922   4.291   2.191  1.2843 -0.6349 -1.6748
   81MOL   C22622786   7.236   4.429   2.054  0.6147  0.1193 -0.2627
   81MOL   C22722787   7.183   4.332   2.140  0.7364 -0.1252 -0.4714
   81MOL   C22822788   7.050   4.339   2.177 -0.4170  0.0033 -0.0308
   81MOL   C22922789   6.966   4.445   2.127 -0.9766 -0.2670  0.0845
   81MOL   C23022790   6.832   4.463   2.184 -0.1174 -0.8892 -0.3994
   81MOL   C23122791   6.770   4.402   2.286 -0.3716  0.5595  0.4755
   81MOL   C23222792   7.021   4.551   2.051 -0.7994 -0.2959 -0.4110
   81MOL   C23322793   7.152   4.538   2.005  0.0297  0.1616 -0.3113
   81MOL   H23422794   7.240   4.253   2.185 -0.7748  0.1419  1.9464
   81MOL   H23522795   7.014   4.270   2.251  0.5455 -0.6869 -0.2024
   81MOL   H23622796   6.771   4.535   2.131  0.8222  0.8253  0.8165
   81MOL   H23722797   6.823   4.335   2.351  0.6347  0.4132 -0.4784
   81MOL   H23822798   6.965   4.634   2.010  0.2780  0.7806  0.2290
   81MOL   H23922799   7.193   4.613   1.941 -0.3650  1.3223  0.7765
   81MOL   C24022800   6.628   4.411   2.318  0.5115 -0.8201 -0.1619
   81MOL   C24122801   6.532   4.443   2.221  0.3172  0.5385 -0.4059
   81MOL   C24222802   6.395   4.453   2.255 -0.4326 -0.2858  0.3388
   81MOL   C24322803   6.359   4.438   2.387  0.0933  0.2987  0.8220
   81MOL   C24422804   6.222   4.458   2.435  0.2747  0.2955 -0.1895
   81MOL   C24522805   6.131   4.538   2.385 -0.0295 -0.5554  0.8614
   81MOL   C24622806   6.452   4.391   2.482 -0.0214 -0.0744 -0.2031
   81MOL   C24722807   6.585   4.386   2.446 -0.3714 -0.6890  0.3912
   81MOL   H24822808   6.565   4.452   2.118 -0.3320  4.3671 -0.3782
   81MOL   H24922809   6.323   4.481   2.180  0.1012 -1.3931 -0.6022
   81MOL   H25022810   6.191   4.400   2.521  2.7541 -0.4861  0.2171
   81MOL   H25122811   6.165   4.594   2.299 -0.9556 -0.4499  0.5587
   81MOL   H25222812   6.412   4.364   2.579  0.1041  2.6171  0.6376
   81MOL   H25322813   6.656   4.353   2.521  1.4381  1.6121 -0.2411
   81MOL   C25422814   5.987   4.550   2.433 -0.1725  0.0242  0.3877
   81MOL   C25522815   5.912   4.666   2.405 -0.0094  0.3028  0.4491
   81MOL   C25622816   5.782   4.692   2.454 -0.6251  0.0832 -0.0924
   81MOL   C25722817   5.715   4.583   2.515  0.1901 -0.6770 -0.2525
   81MOL   C25822818   5.578   4.597   2.556  0.0214  0.3160 -0.2996
   81MOL   C25922819   5.528   4.592   2.685  0.4803 -0.4504  0.8821
   81MOL   C26022820   5.787   4.464   2.545 -0.0156  0.0414 -0.0302
   81MOL   C26122821   5.921   4.449   2.509 -0.2445  0.4388  0.4603
   81MOL   H26222822   5.972   4.746   2.362  0.2153 -0.4033 -0.5588
   81MOL   H26322823   5.729   4.786   2.442 -0.1724  0.6027  1.8149
   81MOL   H26422824   5.516   4.612   2.470 -1.0983 -0.3752  0.3638
   81MOL   H26522825   5.421   4.607   2.696  0.7922  0.5286  2.7507
   81MOL   H26622826   5.733   4.383   2.591  0.4092 -0.7249 -0.8556
   81MOL   H26722827   5.964   4.352   2.529  0.6129  0.3887 -1.5826
   81MOL   C26822828   5.598   4.582   2.817  0.8138 -0.5307  0.5805
   81MOL   C26922829   5.735   4.593   2.833  0.0813  0.0770 -0.0647
   81MOL   C27022830   5.788   4.589   2.964  0.2461  0.1972 -0.2764
   81MOL   C27122831   5.708   4.548   3.077 -0.1995  0.5251  0.3320
   81MOL   C27222832   5.779   4.543   3.209 -0.1578  0.1740  0.0135
   81MOL   C27322833   5.723   4.570   3.327  0.2101  0.5648  0.0174
   81MOL   C27422834   5.567   4.537   3.054  0.2157 -0.0837 -0.0501
   81MOL   C27522835   5.511   4.557   2.927 -0.2988  0.0380  0.2691
   81MOL   H27622836   5.806   4.617   2.756 -0.0858  1.6131  0.2441
   81MOL   H27722837   5.891   4.610   2.986 -0.2544  0.1777  2.1444
   81MOL   H27822838   5.884   4.518   3.212 -0.3219 -0.4039  1.4305
   81MOL   H27922839   5.621   4.603   3.339  0.3801  1.2044 -0.2446
   81MOL   H28022840   5.504   4.508   3.137 -1.2744 -2.1048 -1.8498
   81MOL   H28122841   5.411   4.544   2.890  0.6859 -1.1343 -2.0630
   81MOL   H28222842   5.785   4.565   3.415  1.3539 -0.6327 -0.8333
   82MOL     C122843   5.184   7.090   0.202  0.0042 -0.2519  0.0080
   82MOL     C222844   5.240   7.008   0.303  0.2310 -0.2361 -0.2140
   82MOL     C322845   5.377   7.015   0.342  0.3237 -0.8980  0.3168
   82MOL     C422846   5.463   7.103   0.279  0.5364 -0.0250 -0.4840
   82MOL     C522847   5.610   7.105   0.299  0.0338 -0.3521 -0.2329
   82MOL     C622848   5.677   7.026   0.385  0.2282  0.0913  0.4668
   82MOL     C722849   5.404   7.190   0.189  0.1494 -0.5610  0.5199
   82MOL     C822850   5.267   7.194   0.150 -1.0413 -1.0931  0.0272
   82MOL     H922851   5.185   6.928   0.350 -0.1372  0.6300  0.8423
   82MOL    H1022852   5.415   6.944   0.414 -0.7512 -1.2940  0.5076
   82MOL    H1122853   5.663   7.171   0.233  0.4493 -1.7679 -1.3384
   82MOL    H1222854   5.613   6.975   0.456 -0.5863  0.5316  0.0568
   82MOL    H1322855   5.477   7.258   0.149  0.0162  0.4383  1.9341
   82MOL    H1422856   5.227   7.272   0.087 -1.8728 -1.6760 -0.1689
   82MOL    H1522857   5.080   7.075   0.174  0.1431  0.7410 -1.0793
   82MOL    C1622858   5.822   7.011   0.391  0.6352  0.3023  1.0317
   82MOL    C1722859   5.911   7.041   0.285 -0.2112  0.4259  0.0536
   82MOL    C1822860   6.051   7.026   0.292 -0.0051  0.7066  0.1582
   82MOL    C1922861   6.105   6.977   0.411 -0.1090  0.0029 -0.0874
   82MOL    C2022862   6.250   6.959   0.419  0.6177  0.5369 -0.3911
   82MOL    C2122863   6.321   6.907   0.521 -0.5594 -0.2225 -0.2325
   82MOL    C2222864   6.020   6.949   0.518 -0.0210  0.0345  0.4547
   82MOL    C2322865   5.879   6.967   0.510  0.5289 -0.2265  0.2209
   82MOL    H2422866   5.865   7.070   0.191 -0.2257 -1.4401 -0.5378
   82MOL    H2522867   6.107   7.040   0.201 -0.6110  1.0037 -0.1703
   82MOL    H2622868   6.308   6.990   0.333 -0.6862 -0.8980 -1.8233
   82MOL    H2722869   6.267   6.870   0.607  0.1919  2.5952  1.5189
   82MOL    H2822870   6.057   6.908   0.610 -0.8150 -0.6031  0.5039
   82MOL    H2922871   5.826   6.927   0.594  0.5901  0.4704  0.5962
   82MOL    C3022872   6.466   6.893   0.531  0.5953  0.9651  0.0055
   82MOL    C3122873   6.557   6.906   0.425 -0.1973  0.0426 -0.5306
   82MOL    C3222874   6.698   6.888   0.452 -0.3281  0.2291 -0.0720
   82MOL    C3322875   6.740   6.851   0.582 -0.1729 -0.4879  0.6811
   82MOL    C3422876   6.887   6.822   0.596 -0.2102  0.3233  0.6397
   82MOL    C3522877   6.946   6.768   0.709 -0.0990  0.0265  0.3854
   82MOL    C3622878   6.646   6.836   0.685  0.0245  0.5768  0.0506
   82MOL    C3722879   6.514   6.863   0.659 -0.3410 -0.0338  0.8948
   82MOL    H3822880   6.522   6.927   0.325 -0.6032 -1.5401 -0.7357
   82MOL    H3922881   6.769   6.887   0.372  0.6257  3.3372  0.6752
   82MOL    H4022882   6.948   6.836   0.508 -0.9374  0.5793  0.1790
   82MOL    H4122883   6.888   6.759   0.800  0.1527  1.6546  0.7188
   82MOL    H4222884   6.675   6.809   0.786  1.5207  2.1134  0.0533
   82MOL    H4322885   6.445   6.847   0.740 -0.8130  0.9705  0.7050
   82MOL    C4422886   7.089   6.733   0.714  0.0374  0.9483 -0.2897
   82MOL    C4522887   7.141   6.723   0.843 -0.5385 -0.3137  0.3245
   82MOL    C4622888   7.278   6.696   0.864  0.0815 -0.3980  0.5429
   82MOL    C4722889   7.369   6.681   0.759  0.1723  0.5172  0.1059
   82MOL    C4822890   7.511   6.640   0.768 -0.1310  0.0028 -0.5851
   82MOL    C4922891   7.576   6.617   0.883  0.6044  0.2467  0.7311
   82MOL    C5022892   7.316   6.689   0.629  0.1178 -0.4952 -0.3785
   82MOL    C5122893   7.181   6.716   0.606  0.1059 -0.2571  0.7855
   82MOL    H5222894   7.072   6.738   0.925 -2.5665  2.2568 -1.7815
   82MOL    H5322895   7.310   6.700   0.967 -2.6316  0.4675  1.3847
   82MOL    H5422896   7.565   6.627   0.675 -0.1988 -2.6021 -0.3148
   82MOL    H5522897   7.520   6.620   0.976 -1.5598 -1.6931 -0.4436
   82MOL    H5622898   7.387   6.685   0.548  0.1185 -1.0749 -0.3528
   82MOL    H5722899   7.141   6.714   0.506 -1.1218  2.3986  1.2017
   82MOL    C5822900   7.710   6.567   0.918 -0.0800  0.1107  0.4644
   82MOL    C5922901   7.819   6.566   0.823  0.1986  0.0099  0.0491
   82MOL    C6022902   7.946   6.534   0.872 -0.4646  0.3330  0.0279
   82MOL    C6122903   7.970   6.508   1.009  0.1861  0.1414  0.4213
   82MOL    C6222904   8.103   6.465   1.061 -0.0225 -0.5939  0.0947
   82MOL    C6322905   0.073   6.441   0.985 -0.0018 -0.1051 -0.2803
   82MOL    C6422906   7.868   6.519   1.105  0.0706  0.3980 -0.7562
   82MOL    C6522907   7.736   6.538   1.051 -0.4297 -0.7838 -0.4640
   82MOL    H6622908   7.808   6.596   0.720  2.6618 -0.6777 -0.4370
   82MOL    H6722909   8.035   6.548   0.813 -0.2831  0.9383  0.4503
   82MOL    H6822910   8.106   6.451   1.168 -0.6700  1.9039  0.4591
   82MOL    H6922911   0.067   6.456   0.878 -1.2334 -1.4146 -0.4209
   82MOL    H7022912   7.878   6.504   1.211 -4.3187 -3.0892 -0.6808
   82MOL    H7122913   7.657   6.537   1.125  0.7059  1.7879  0.8294
   82MOL    C7222914   0.202   6.397   1.045  0.1258  0.1864 -0.0686
   82MOL    C7322915   0.210   6.360   1.182 -0.0281 -0.1001 -0.2420
   82MOL    C7422916   0.328   6.308   1.226 -0.0158 -0.5784  0.2525
   82MOL    C7522917   0.448   6.297   1.149 -0.1898 -0.6920  0.2903
   82MOL    C7622918   0.566   6.230   1.211  0.3533 -0.4195 -0.4645
   82MOL    C7722919   0.680   6.192   1.151  0.9960 -0.2149 -0.1885
   82MOL    C7822920   0.442   6.347   1.016 -0.0948 -0.4943 -0.1309
   82MOL    C7922921   0.316   6.395   0.968 -0.7088  0.0518 -0.0445
   82MOL    H8022922   0.125   6.368   1.248 -0.3729  1.6678 -0.8564
   82MOL    H8122923   0.325   6.285   1.332 -0.1345  1.4767  0.6987
   82MOL    H8222924   0.557   6.205   1.315 -1.4047  1.7652 -0.0630
   82MOL    H8322925   0.687   6.201   1.044 -1.3614 -3.7242 -0.7126
   82MOL    H8422926   0.522   6.332   0.946  0.5564  0.9094  0.2992
   82MOL    H8522927   0.314   6.415   0.862  1.2619 -0.7670 -0.2649
   82MOL    C8622928   0.794   6.129   1.220  0.5797  0.0373 -0.3735
   82MOL    C8722929   0.908   6.097   1.147  0.1795 -0.0507 -0.1925
   82MOL    C8822930   1.019   6.036   1.199  0.1317  0.5542 -0.4472
   82MOL    C8922931   1.028   6.027   1.340  0.3155 -0.0009  0.3425
   82MOL    C9022932   1.148   5.963   1.409 -1.0298  0.2373  0.6685
   82MOL    C9122933   1.280   5.969   1.365  0.1925  0.6536 -0.5835
   82MOL    C9222934   0.913   6.047   1.418 -0.6587 -0.2899 -0.1683
   82MOL    C9322935   0.805   6.114   1.360 -0.1435  0.3904  0.0040
   82MOL    H9422936   0.900   6.126   1.043 -0.1114 -1.5461 -0.5951
   82MOL    H9522937   1.107   6.010   1.142 -0.2935 -1.1502 -0.3513
   82MOL    H9622938   1.131   5.908   1.500  1.3981  1.4859  1.9388
   82MOL    H9722939   1.298   6.024   1.273  2.2356  0.3540 -0.3999
   82MOL    H9822940   0.924   6.032   1.524 -2.8926  1.6658  0.3801
   82MOL    H9922941   0.717   6.141   1.418 -2.3022 -1.5404 -2.2704
   82MOL   C10022942   1.392   5.896   1.434  0.0129 -0.3886  1.0936
   82MOL   C10122943   1.506   5.880   1.348 -1.1612  0.7314  0.2376
   82MOL   C10222944   1.617   5.810   1.393 -0.7785  0.0642  0.2923
   82MOL   C10322945   1.620   5.757   1.526  0.2052  0.3718  0.0682
   82MOL   C10422946   1.732   5.682   1.575 -0.2929  0.1441  0.0579
   82MOL   C10522947   1.864   5.682   1.527 -0.0627 -0.0696 -0.2914
   82MOL   C10622948   1.504   5.777   1.612 -0.4585  0.2157 -1.0339
   82MOL   C10722949   1.388   5.844   1.567 -0.0233 -0.3094  0.0446
   82MOL   H10822950   1.497   5.918   1.247 -0.7395  0.7272  0.1999
   82MOL   H10922951   1.706   5.798   1.334 -0.2292 -0.9662  1.3305
   82MOL   H11022952   1.709   5.618   1.659 -2.2135  0.7870  0.0381
   82MOL   H11122953   1.890   5.755   1.451  2.6726 -1.6778 -0.9589
   82MOL   H11222954   1.508   5.746   1.716  0.3758 -0.5010 -1.2740
   82MOL   H11322955   1.308   5.856   1.638  0.1122  1.5556 -0.0900
   82MOL   C11422956   1.976   5.596   1.579  0.0500 -0.5597  0.0854
   82MOL   C11522957   2.101   5.590   1.503 -0.0475  0.4908  0.1298
   82MOL   C11622958   2.201   5.503   1.537 -0.0165 -0.1177 -0.4784
   82MOL   C11722959   2.186   5.417   1.643  0.5006 -0.4010  0.7057
   82MOL   C11822960   2.282   5.306   1.664 -0.0050  1.1261  0.2113
   82MOL   C11922961   2.406   5.301   1.613 -0.2072 -0.4725  0.3287
   82MOL   C12022962   2.064   5.421   1.719  0.6664  0.7382 -0.0317
   82MOL   C12122963   1.961   5.513   1.692 -1.0501 -0.3716  0.3178
   82MOL   H12222964   2.114   5.650   1.414  1.4088  1.5809  1.0666
   82MOL   H12322965   2.288   5.508   1.472 -2.3097 -0.2121 -3.6679
   82MOL   H12422966   2.235   5.227   1.720  2.3902  0.2212  1.0096
   82MOL   H12522967   2.449   5.391   1.570  0.1534 -1.2384 -0.9566
   82MOL   H12622968   2.063   5.361   1.808  0.7279 -0.6094 -0.9235
   82MOL   H12722969   1.869   5.508   1.748  0.0548 -1.3605  2.0784
   82MOL   C12822970   2.495   5.182   1.612  0.5918  0.2055 -0.2809
   82MOL   C12922971   2.447   5.061   1.667 -0.4636 -0.4245 -0.0517
   82MOL   C13022972   2.532   4.951   1.665 -0.1554 -0.0342  0.0208
   82MOL   C13122973   2.652   4.941   1.594 -0.4519  0.0680  0.1668
   82MOL   C13222974   2.717   4.806   1.561  0.0047 -0.3024 -0.0567
   82MOL   C13322975   2.832   4.777   1.503 -0.4790  0.1777 -0.4126
   82MOL   C13422976   2.707   5.069   1.556  0.3052 -0.0209  0.2830
   82MOL   C13522977   2.628   5.184   1.563 -0.6218  0.5551  0.5470
   82MOL   H13622978   2.348   5.051   1.710 -0.6768  0.6435 -0.2832
   82MOL   H13722979   2.497   4.861   1.712  3.2657 -1.6852 -0.4519
   82MOL   H13822980   2.644   4.727   1.575  1.0506 -1.4062 -0.6905
   82MOL   H13922981   2.907   4.850   1.475  0.1368 -1.4670 -3.3256
   82MOL   H14022982   2.809   5.069   1.523  0.2887 -0.1538  0.2294
   82MOL   H14122983   2.670   5.271   1.515 -0.2850 -1.0083 -2.0932
   82MOL   C14222984   2.858   4.637   1.459  0.7142 -0.5943 -0.9271
   82MOL   C14322985   2.796   4.521   1.516  0.1223 -0.7673 -0.4898
   82MOL   C14422986   2.813   4.393   1.464 -0.1815 -0.0768  0.1960
   82MOL   C14522987   2.884   4.380   1.344 -0.1144 -0.7126  0.5461
   82MOL   C14622988   2.877   4.259   1.265 -0.1497  0.2573  0.6594
   82MOL   C14722989   2.759   4.196   1.240 -0.1339 -0.0166  0.6588
   82MOL   C14822990   2.948   4.489   1.285 -0.3426  0.3699 -0.4221
   82MOL   C14922991   2.943   4.613   1.345  1.0349 -0.9287 -0.8909
   82MOL   H15022992   2.727   4.527   1.599 -1.6501 -1.3959 -1.8806
   82MOL   H15122993   2.767   4.305   1.507  0.3690 -0.4727 -0.0104
   82MOL   H15222994   2.973   4.228   1.226 -1.6702 -1.1405 -2.1519
   82MOL   H15322995   2.672   4.238   1.287 -1.1737  1.7874 -2.6989
   82MOL   H15422996   3.007   4.487   1.194 -1.4128  1.9837 -1.1676
   82MOL   H15522997   3.011   4.691   1.313 -0.0867  0.5640  0.2965
   82MOL   C15622998   2.738   4.081   1.151  0.1745 -0.3741 -0.0481
   82MOL   C15722999   2.613   4.018   1.149 -0.5415  0.3738 -0.3292
   82MOL   C15823000   2.582   3.902   1.067 -0.4725 -0.1675 -0.0185
   82MOL   C15923001   2.674   3.861   0.970 -0.0750 -0.1605  0.0412
   82MOL   C16023002   2.633   3.750   0.886  0.0742 -1.2148  0.5098
   82MOL   C16123003   2.713   3.670   0.813 -0.1971 -0.3637  0.3446
   82MOL   C16223004   2.800   3.924   0.972 -0.0528  0.5889  0.8006
   82MOL   C16323005   2.837   4.029   1.062  0.0864 -0.6722  0.1160
   82MOL   H16423006   2.539   4.055   1.218 -2.1978 -1.7834 -0.8992
   82MOL   H16523007   2.487   3.852   1.079  0.2205 -1.3151  0.7773
   82MOL   H16623008   2.527   3.728   0.885 -0.3604  0.7793 -0.8856
   82MOL   H16723009   2.817   3.697   0.804  0.4650 -2.2756  1.8107
   82MOL   H16823010   2.874   3.900   0.897 -0.9796 -0.3442  0.1717
   82MOL   H16923011   2.930   4.083   1.054  0.8654 -1.7984  1.3270
   82MOL   C17023012   2.676   3.548   0.740 -0.4408  0.1230  0.0397
   82MOL   C17123013   2.735   3.517   0.618  0.1954  0.3382  0.0086
   82MOL   C17223014   2.677   3.416   0.536  0.2117  0.1806 -0.3924
   82MOL   C17323015   2.567   3.340   0.582 -0.1654 -0.3552  0.3386
   82MOL   C17423016   2.503   3.242   0.492 -0.4430 -0.1657  0.2945
   82MOL   C17523017   2.373   3.216   0.489  0.1952 -0.7100  0.3565
   82MOL   C17623018   2.515   3.370   0.711 -0.4032 -0.4380 -0.1185
   82MOL   C17723019   2.559   3.479   0.780  0.1149 -0.4744  0.3041
   82MOL   H17823020   2.811   3.577   0.571  1.0581  0.8180  1.9862
   82MOL   H17923021   2.717   3.401   0.437  0.1729  2.9165 -0.8648
   82MOL   H18023022   2.564   3.191   0.420 -0.1370 -0.7866  0.9866
   82MOL   H18123023   2.307   3.265   0.560  0.8925  0.5488  0.1500
   82MOL   H18223024   2.434   3.310   0.748 -0.6645 -1.9628 -3.0048
   82MOL   H18323025   2.517   3.503   0.876 -0.9564 -0.4893 -0.1544
   82MOL   C18423026   2.298   3.140   0.392 -0.4883 -0.0952  0.0853
   82MOL   C18523027   2.154   3.145   0.379 -0.1713 -0.3730 -0.1826
   82MOL   C18623028   2.085   3.082   0.274 -1.0558  0.0696 -0.2513
   82MOL   C18723029   2.152   2.990   0.188 -0.1019 -0.3102 -0.3942
   82MOL   C18823030   2.078   2.908   0.094  0.3621  0.1813 -1.2534
   82MOL   C18923031   1.948   2.915   0.058 -0.6686  0.1094 -0.4686
   82MOL   C19023032   2.294   2.979   0.207 -0.6443 -0.1687  0.3039
   82MOL   C19123033   2.363   3.050   0.304  0.3025  0.3198  0.0657
   82MOL   H19223034   2.103   3.208   0.450 -0.8293 -2.4885  1.2681
   82MOL   H19323035   1.977   3.092   0.269 -1.1425  0.4649  1.6949
   82MOL   H19423036   2.133   2.820   0.061 -2.7356 -1.5071 -2.1608
   82MOL   H19523037   1.894   3.004   0.086  0.2625  0.4627  0.2167
   82MOL   H19623038   2.346   2.917   0.135  0.2540 -0.2978  1.0493
   82MOL   H19723039   2.469   3.031   0.312  0.1064 -0.4259  1.0068
   82MOL   C19823040   1.886   2.811   8.112  0.2360  0.2665 -0.4089
   82MOL   C19923041   1.967   2.745   8.020 -0.4019 -0.1965 -0.3919
   82MOL   C20023042   1.906   2.667   7.919  0.3890 -0.0113  0.0511
   82MOL   C20123043   1.770   2.642   7.921  0.4807 -0.1083  0.2710
   82MOL   C20223044   1.708   2.576   7.809 -0.4086  0.3955 -0.0089
   82MOL   C20323045   1.579   2.538   7.797 -0.1872 -0.7925  0.3521
   82MOL   C20423046   1.693   2.688   8.029  0.4369 -0.0297 -1.2229
   82MOL   C20523047   1.752   2.777   8.120 -0.0041  0.0616  0.0622
   82MOL   H20623048   2.073   2.763   8.007 -0.4339  1.5196  1.4580
   82MOL   H20723049   1.964   2.639   7.833  1.2333  0.5338  0.4358
   82MOL   H20823050   1.777   2.557   7.728 -1.0085  3.1603 -1.2377
   82MOL   H20923051   1.517   2.556   7.884 -0.2862  1.6979 -0.2017
   82MOL   H21023052   1.586   2.673   8.038  0.8607 -1.9553  1.3056
   82MOL   H21123053   1.694   2.828   0.052  3.2869  1.7352  1.5263
   82MOL   C21223054   1.499   2.482   7.687 -0.2113  0.5935  0.5154
   82MOL   C21323055   1.366   2.442   7.712  0.0364 -0.0216  0.5651
   82MOL   C21423056   1.286   2.379   7.614  0.0073 -0.2608  0.9827
   82MOL   C21523057   1.338   2.346   7.488 -0.8089  0.1846 -0.8933
   82MOL   C21623058   1.252   2.271   7.393  0.2835 -0.2361  0.0756
   82MOL   C21723059   1.120   2.236   7.404 -0.5026 -0.0042  1.1734
   82MOL   C21823060   1.472   2.381   7.457 -0.5126 -0.2568 -0.0548
   82MOL   C21923061   1.550   2.453   7.555  0.0314 -0.0946 -0.5607
   82MOL   H22023062   1.326   2.465   7.810  0.5896 -1.8865  1.2484
   82MOL   H22123063   1.186   2.348   7.640 -0.2573 -1.0105 -0.8314
   82MOL   H22223064   1.296   2.243   7.298 -1.6859 -0.5024 -0.7786
   82MOL   H22323065   1.068   2.276   7.489  0.7058  0.3084  1.7836
   82MOL   H22423066   1.521   2.347   7.368 -0.4134 -0.1281 -0.0503
   82MOL   H22523067   1.656   2.473   7.545  0.5512 -1.4690  1.6443
   82MOL   C22623068   1.039   2.159   7.313  0.1150  0.4369 -0.1046
   82MOL   C22723069   1.070   2.149   7.173 -0.1105 -0.2206  0.3054
   82MOL   C22823070   0.978   2.098   7.078 -0.1781  0.0658  0.6173
   82MOL   C22923071   0.860   2.037   7.127  0.1953 -0.4409 -0.1713
   82MOL   C23023072   0.765   1.975   7.031  0.0402 -0.6446 -0.3261
   82MOL   C23123073   0.774   1.945   6.900 -0.8614 -0.8429  0.2763
   82MOL   C23223074   0.834   2.036   7.270 -0.2803  0.9882 -0.1671
   82MOL   C23323075   0.925   2.099   7.361 -0.4464  0.0139  0.0203
   82MOL   H23423076   1.163   2.187   7.132 -0.7445 -0.2256 -1.1577
   82MOL   H23523077   1.005   2.092   6.973  0.8380 -0.1636  0.8844
   82MOL   H23623078   0.675   1.943   7.081 -0.2085 -0.5328 -0.7037
   82MOL   H23723079   0.863   1.974   6.847 -1.1389  0.8290  0.6627
   82MOL   H23823080   0.746   1.984   7.303  0.3405  0.8036  1.2085
   82MOL   H23923081   0.899   2.116   7.465  2.5736  1.0047  0.6527
   82MOL   C24023082   0.670   1.880   6.818 -0.4079  0.1531  0.3046
   82MOL   C24123083   0.568   1.802   6.870  1.0278  0.2988 -0.2204
   82MOL   C24223084   0.485   1.728   6.787  0.0145  0.7746  0.4272
   82MOL   C24323085   0.497   1.736   6.650 -1.1468  0.6948 -0.3505
   82MOL   C24423086   0.394   1.659   6.579  0.2813 -0.5938 -0.6862
   82MOL   C24523087   0.341   1.664   6.455 -0.5817  0.4501 -0.2086
   82MOL   C24623088   0.591   1.824   6.599 -0.1810 -0.0320 -0.0129
   82MOL   C24723089   0.678   1.901   6.681 -0.3808  0.2894 -0.1301
   82MOL   H24823090   0.551   1.802   6.976 -2.6697 -0.3658 -0.7440
   82MOL   H24923091   0.403   1.675   6.833  0.0234  1.6447  1.4626
   82MOL   H25023092   0.355   1.587   6.650  2.8898 -0.9167  0.4677
   82MOL   H25123093   0.381   1.735   6.384 -1.1578  0.4978 -0.4943
   82MOL   H25223094   0.603   1.827   6.492 -0.6204 -3.3218 -0.1895
   82MOL   H25323095   0.760   1.962   6.647  0.3214 -0.2884  0.5123
   82MOL   C25423096   0.233   1.580   6.404 -0.1406  1.2379  0.3889
   82MOL   C25523097   0.175   1.599   6.271 -0.0369  0.1611  0.4984
   82MOL   C25623098   0.064   1.523   6.235 -0.1774  0.1424  0.4716
   82MOL   C25723099   0.024   1.415   6.317 -0.0250 -0.5206 -0.4179
   82MOL   C25823100   8.061   1.331   6.276  0.0911 -0.1487 -0.0526
   82MOL   C25923101   8.025   1.277   6.163  0.2781 -0.0615  0.7586
   82MOL   C26023102   0.073   1.397   6.442  0.4049  0.3454  0.5893
   82MOL   C26123103   0.174   1.479   6.489  0.4323  0.2019 -0.0767
   82MOL   H26223104   0.203   1.685   6.211 -0.2419 -1.4063 -1.9016
   82MOL   H26323105   0.024   1.530   6.135 -2.6999  1.0363  1.5127
   82MOL   H26423106   7.986   1.321   6.354  1.2083 -0.8104  0.9600
   82MOL   H26523107   7.931   1.224   6.160  1.1077 -1.4806 -0.5396
   82MOL   H26623108   0.040   1.322   6.513  2.0816 -1.5081 -0.5299
   82MOL   H26723109   0.216   1.469   6.588  3.3521  0.9902 -1.1851
   82MOL   C26823110   8.091   1.268   6.034  0.6599  0.0431 -0.4073
   82MOL   C26923111   8.010   1.291   5.919 -1.0913  0.1073 -1.1915
   82MOL   C27023112   8.075   1.287   5.791 -0.0550 -0.6981  1.2998
   82MOL   C27123113   0.068   1.261   5.785 -0.4922  0.1026  0.0002
   82MOL   C27223114   0.135   1.258   5.654  0.2668  0.1187 -0.8040
   82MOL   C27323115   0.075   1.212   5.543  0.7227 -0.2756  0.2253
   82MOL   C27423116   0.143   1.240   5.901 -1.0492 -0.5258 -0.9851
   82MOL   C27523117   0.085   1.247   6.026 -0.5513 -0.0829  0.2325
   82MOL   H27623118   7.908   1.325   5.916 -1.8174 -2.0358 -1.4237
   82MOL   H27723119   8.017   1.310   5.703  0.9571  0.0317  0.8190
   82MOL   H27823120   0.228   1.314   5.652  0.0054  0.7205  1.7288
   82MOL   H27923121   8.121   1.166   5.543  1.7908 -2.6744 -1.1366
   82MOL   H28023122   0.251   1.235   5.900 -0.9121  1.4609  0.0883
   82MOL   H28123123   0.136   1.227   6.119 -0.6189  1.3617  0.5828
   82MOL   H28223124   0.132   1.221   5.452  4.5756 -0.9398  2.4671
   83MOL     C123125   0.716   3.331   2.711  0.0422 -0.1359 -0.9184
   83MOL     C223126   0.632   3.403   2.799  0.2880 -0.1025 -0.1397
   83MOL     C323127   0.490   3.417   2.764 -0.6875  0.3244  0.4515
   83MOL     C423128   0.440   3.367   2.639 -1.2667  0.5891  0.1846
   83MOL     C523129   0.300   3.377   2.606 -0.0475  0.1508 -0.1915
   83MOL     C623130   0.195   3.406   2.685 -0.0235  0.5430  0.3935
   83MOL     C723131   0.534   3.312   2.544  0.2323 -0.6739  0.1929
   83MOL     C823132   0.669   3.289   2.584  0.2020 -0.6236  0.0663
   83MOL     H923133   0.682   3.444   2.886 -0.1116 -0.1285  0.1044
   83MOL    H1023134   0.428   3.467   2.837 -1.4341 -1.7908  1.3043
   83MOL    H1123135   0.286   3.364   2.500 -1.1176 -0.6692  0.0456
   83MOL    H1223136   0.213   3.431   2.789 -3.0931  0.3936  0.9921
   83MOL    H1323137   0.499   3.276   2.448  0.8543  0.1378 -0.3493
   83MOL    H1423138   0.732   3.230   2.519 -0.9528 -0.7903 -0.9033
   83MOL    H1523139   0.819   3.312   2.738  0.9647  4.5091 -0.8077
   83MOL    C1623140   0.058   3.421   2.646  0.0468 -0.3303 -0.7004
   83MOL    C1723141   8.110   3.495   2.725 -0.3791  0.5277 -0.0292
   83MOL    C1823142   7.973   3.502   2.693 -0.1023 -0.7261 -0.6955
   83MOL    C1923143   7.928   3.428   2.585  0.5126  0.7249  0.1261
   83MOL    C2023144   7.784   3.425   2.543 -0.8733  0.6840  0.4344
   83MOL    C2123145   7.681   3.463   2.624  0.6526  0.2554 -0.4257
   83MOL    C2223146   8.013   3.356   2.497 -0.4863 -0.4102  0.0610
   83MOL    C2323147   0.007   3.355   2.530  0.4255 -0.0002 -0.2234
   83MOL    H2423148   0.002   3.530   2.820  0.4338 -1.7183  0.5047
   83MOL    H2523149   7.909   3.557   2.760  0.3185  0.6443 -1.4064
   83MOL    H2623150   7.767   3.397   2.440 -0.6090 -0.9748  0.8114
   83MOL    H2723151   7.701   3.475   2.729 -0.9578  1.2194 -0.2074
   83MOL    H2823152   7.979   3.324   2.400  1.0075 -0.7486 -0.3588
   83MOL    H2923153   0.080   3.296   2.476 -1.6238 -1.9308 -0.9562
   83MOL    C3023154   7.534   3.477   2.591 -0.2048 -0.2724 -0.9072
   83MOL    C3123155   7.492   3.465   2.460  0.1957 -0.2185 -0.8821
   83MOL    C3223156   7.358   3.484   2.424 -0.1330 -0.8667  0.3842
   83MOL    C3323157   7.258   3.520   2.521 -0.5051 -0.0998  0.4767
   83MOL    C3423158   7.113   3.536   2.486 -0.1241 -0.0633  0.4202
   83MOL    C3523159   7.011   3.517   2.573  0.1661  0.4496  0.3880
   83MOL    C3623160   7.304   3.524   2.655  0.3110 -0.2941  0.1200
   83MOL    C3723161   7.440   3.497   2.692 -0.8972 -0.8663  0.6129
   83MOL    H3823162   7.558   3.433   2.381 -0.1493  0.3259 -1.4045
   83MOL    H3923163   7.338   3.466   2.320  1.7119 -0.6589 -0.0236
   83MOL    H4023164   7.094   3.567   2.384 -2.1835 -0.3930  0.6703
   83MOL    H4123165   7.051   3.488   2.669  1.6827  0.3907 -0.2312
   83MOL    H4223166   7.240   3.548   2.739  0.2232 -0.7178  0.1742
   83MOL    H4323167   7.471   3.516   2.794  0.4792  1.1222 -0.1359
   83MOL    C4423168   6.867   3.545   2.541 -0.3346  0.1607  0.2294
   83MOL    C4523169   6.769   3.521   2.641  0.0328  0.3226  0.2235
   83MOL    C4623170   6.634   3.535   2.615  1.0964 -1.1324  0.1871
   83MOL    C4723171   6.587   3.586   2.491 -0.1625  0.0712 -0.3046
   83MOL    C4823172   6.445   3.602   2.453  0.0973  0.3340  0.7256
   83MOL    C4923173   6.342   3.544   2.519 -0.4596 -0.4773 -0.2813
   83MOL    C5023174   6.682   3.609   2.390 -0.5885 -0.9221 -0.1830
   83MOL    C5123175   6.818   3.587   2.413  0.4183 -0.0859 -0.5633
   83MOL    H5223176   6.791   3.481   2.739 -0.6135  0.5512  0.4676
   83MOL    H5323177   6.565   3.508   2.694  1.7330  0.7437  1.4213
   83MOL    H5423178   6.426   3.661   2.365 -0.4370 -0.1176  0.5316
   83MOL    H5523179   6.359   3.495   2.614 -0.9943  0.7027  0.4445
   83MOL    H5623180   6.662   3.643   2.290 -1.0872  0.3756  0.3551
   83MOL    H5723181   6.879   3.603   2.325  1.3015  0.0314  0.0749
   83MOL    C5823182   6.200   3.549   2.483 -0.3860  0.0818 -0.3529
   83MOL    C5923183   6.118   3.438   2.521 -0.5705  0.3584 -0.0601
   83MOL    C6023184   5.975   3.439   2.489  0.5307 -0.5015 -0.1306
   83MOL    C6123185   5.920   3.552   2.427  0.5044 -0.7250 -0.3469
   83MOL    C6223186   5.777   3.554   2.410  0.2454 -0.2659  0.1023
   83MOL    C6323187   5.699   3.662   2.386  0.2447  0.3545 -0.8351
   83MOL    C6423188   6.002   3.658   2.387 -0.3718 -0.8524 -0.2247
   83MOL    C6523189   6.140   3.658   2.414  0.1328 -0.0381  0.8160
   83MOL    H6623190   6.164   3.352   2.567  0.1095  0.0848 -1.2417
   83MOL    H6723191   5.903   3.370   2.533  0.7481 -0.3333  0.4961
   83MOL    H6823192   5.731   3.456   2.412 -0.9403  0.2752 -0.4173
   83MOL    H6923193   5.742   3.761   2.387 -0.2413  0.5640 -0.4761
   83MOL    H7023194   5.957   3.745   2.343  1.3563  0.0378 -0.2775
   83MOL    H7123195   6.198   3.746   2.389  0.4119 -0.0494  1.4116
   83MOL    C7223196   5.555   3.649   2.355  0.6710  0.0239 -0.1747
   83MOL    C7323197   5.498   3.521   2.331 -0.2443 -0.1211 -0.0856
   83MOL    C7423198   5.368   3.511   2.287  0.4595 -0.2217  0.0218
   83MOL    C7523199   5.290   3.627   2.271  0.2087 -0.7092 -0.3991
   83MOL    C7623200   5.150   3.612   2.222 -0.1507 -0.0069  1.4217
   83MOL    C7723201   5.053   3.700   2.243  0.0320  0.8881  0.0556
   83MOL    C7823202   5.345   3.752   2.306 -0.1665  0.0593  0.0433
   83MOL    C7923203   5.477   3.763   2.350  0.1226 -0.2876  0.2290
   83MOL    H8023204   5.553   3.428   2.336  0.2547  0.2303  1.2286
   83MOL    H8123205   5.328   3.419   2.248 -2.4799  0.7701  0.5846
   83MOL    H8223206   5.128   3.530   2.156 -0.6161 -0.9367  2.7367
   83MOL    H8323207   5.058   3.790   2.302  3.7670  1.6265 -1.2524
   83MOL    H8423208   5.290   3.843   2.282 -0.1091  0.4337  1.2811
   83MOL    H8523209   5.516   3.861   2.374  0.1005 -0.3400  0.4778
   83MOL    C8623210   4.912   3.680   2.189 -0.1694 -0.2061 -0.6047
   83MOL    C8723211   4.818   3.787   2.181 -0.4360  0.1185 -0.0965
   83MOL    C8823212   4.690   3.763   2.137  0.4403 -0.2527 -0.5892
   83MOL    C8923213   4.642   3.629   2.116  0.7683 -0.2697  0.4185
   83MOL    C9023214   4.498   3.613   2.075  0.2658  0.5509 -0.3995
   83MOL    C9123215   4.445   3.511   2.006 -0.4956  0.8383 -0.3649
   83MOL    C9223216   4.739   3.530   2.108 -0.7608 -0.4040  0.1371
   83MOL    C9323217   4.874   3.552   2.150  0.0032 -0.2021 -0.1023
   83MOL    H9423218   4.851   3.886   2.211  1.7581 -0.7035  0.3516
   83MOL    H9523219   4.623   3.848   2.134  0.7667 -0.0422 -2.6261
   83MOL    H9623220   4.431   3.691   2.104 -1.1943 -1.1287  0.8652
   83MOL    H9723221   4.503   3.428   1.968 -0.6133  0.7506 -0.3535
   83MOL    H9823222   4.701   3.433   2.079  1.3920 -0.6696 -1.9316
   83MOL    H9923223   4.945   3.471   2.165  0.2922 -0.0435 -0.5887
   83MOL   C10023224   4.308   3.497   1.960  0.3460  0.1728 -0.0339
   83MOL   C10123225   4.261   3.368   1.946  0.7994 -0.3529  0.0534
   83MOL   C10223226   4.131   3.347   1.897 -0.5619  0.1985 -0.0737
   83MOL   C10323227   4.037   3.448   1.883 -0.4944 -0.5928 -0.3724
   83MOL   C10423228   3.900   3.422   1.846 -0.0222  0.1254 -0.2275
   83MOL   C10523229   3.843   3.311   1.810 -0.3686  0.1297  0.5642
   83MOL   C10623230   4.081   3.582   1.916  0.4251  0.4099  0.0542
   83MOL   C10723231   4.214   3.605   1.952  0.2033 -0.3828 -0.3875
   83MOL   H10823232   4.328   3.283   1.949  1.2406 -0.0202 -0.4150
   83MOL   H10923233   4.104   3.244   1.880 -1.9361  0.3980  0.8423
   83MOL   H11023234   3.843   3.514   1.854 -2.7950 -1.5792  0.3462
   83MOL   H11123235   3.907   3.224   1.813  0.7037  0.8900  0.2146
   83MOL   H11223236   4.009   3.662   1.907 -0.0201  0.0674  0.5195
   83MOL   H11323237   4.241   3.707   1.972  2.8754 -1.1035 -0.1006
   83MOL   C11423238   3.704   3.305   1.771  0.2318 -0.2554 -1.2265
   83MOL   C11523239   3.610   3.408   1.807 -0.1632 -0.4553 -0.1748
   83MOL   C11623240   3.474   3.399   1.772 -0.6843 -0.3540  0.0654
   83MOL   C11723241   3.420   3.283   1.704 -0.2598 -0.4732 -0.5470
   83MOL   C11823242   3.279   3.270   1.683  0.4093  0.1465 -0.2408
   83MOL   C11923243   3.218   3.184   1.593 -0.7723  0.1516  0.2131
   83MOL   C12023244   3.522   3.187   1.657 -0.2400  0.1388  0.4748
   83MOL   C12123245   3.656   3.194   1.699  0.1510  0.0673  0.2905
   83MOL   H12223246   3.646   3.495   1.859  3.1066 -0.6214 -1.9870
   83MOL   H12323247   3.402   3.474   1.801  1.8053  1.9749  0.4944
   83MOL   H12423248   3.228   3.340   1.747 -0.1696  0.2211 -0.7831
   83MOL   H12523249   3.280   3.112   1.542 -1.3560  2.0346 -3.2982
   83MOL   H12623250   3.491   3.094   1.613  2.2202 -0.2001 -0.6417
   83MOL   H12723251   3.720   3.109   1.680 -0.3337 -0.7371  2.1138
   83MOL   C12823252   3.077   3.169   1.570  0.1788  1.0753 -0.3175
   83MOL   C12923253   3.036   3.081   1.462 -0.4918 -0.4524  0.2048
   83MOL   C13023254   2.900   3.058   1.441 -0.2455  0.4327 -0.6747
   83MOL   C13123255   2.798   3.127   1.505  1.0361  0.1362  0.0498
   83MOL   C13223256   2.659   3.124   1.465  0.3659 -0.2322 -0.2608
   83MOL   C13323257   2.598   3.046   1.373  0.4949  0.8501 -0.5890
   83MOL   C13423258   2.837   3.217   1.608 -0.0780 -0.5203  0.2040
   83MOL   C13523259   2.974   3.236   1.644 -0.4582  0.0784 -0.4335
   83MOL   H13623260   3.116   3.033   1.407  2.4733  2.5250  1.7038
   83MOL   H13723261   2.875   2.996   1.356 -2.7716  0.9820 -0.3653
   83MOL   H13823262   2.609   3.200   1.523  0.2383 -2.6093  2.9215
   83MOL   H13923263   2.650   2.965   1.323  0.2083  0.9123 -0.9890
   83MOL   H14023264   2.763   3.270   1.665  2.1179  0.2655  2.4390
   83MOL   H14123265   3.012   3.298   1.725 -0.1650 -1.2919  0.4857
   83MOL   C14223266   2.453   3.055   1.343  0.4910 -0.4401  0.5438
   83MOL   C14323267   2.369   3.140   1.411  0.4549  0.8298 -0.5782
   83MOL   C14423268   2.238   3.156   1.376 -0.7106 -0.5521  0.0834
   83MOL   C14523269   2.182   3.088   1.270 -0.2506  0.6600  0.5567
   83MOL   C14623270   2.042   3.118   1.224 -0.3872 -0.2003 -0.1930
   83MOL   C14723271   1.986   3.242   1.216  0.0419  0.1166  0.7035
   83MOL   C14823272   2.262   2.995   1.201 -0.6724  0.4905 -0.9899
   83MOL   C14923273   2.398   2.986   1.234 -0.4518  0.9521  1.0565
   83MOL   H15023274   2.410   3.219   1.473  2.2090  0.5107 -1.2880
   83MOL   H15123275   2.179   3.235   1.419  1.3041  1.9193 -1.5714
   83MOL   H15223276   1.982   3.031   1.202  0.1113 -1.3402  2.6967
   83MOL   H15323277   2.052   3.326   1.231 -2.5492  2.1312  1.1710
   83MOL   H15423278   2.218   2.951   1.112 -3.0957 -0.9506  0.8616
   83MOL   H15523279   2.470   2.926   1.181 -1.6427 -0.7641  1.3458
   83MOL   C15623280   1.846   3.277   1.188  0.4054  0.6291 -0.5837
   83MOL   C15723281   1.814   3.387   1.120 -0.6324 -0.4711  0.8366
   83MOL   C15823282   1.677   3.426   1.105  0.0646 -0.3673 -0.0061
   83MOL   C15923283   1.575   3.355   1.162 -0.1550  1.2267  0.3522
   83MOL   C16023284   1.432   3.398   1.166 -0.2594 -0.3031 -0.6499
   83MOL   C16123285   1.344   3.379   1.271  0.0784 -0.5199  1.2945
   83MOL   C16223286   1.608   3.234   1.220 -0.0330 -0.3980  0.3910
   83MOL   C16323287   1.742   3.191   1.230  0.1141  0.4859  0.1435
   83MOL   H16423288   1.894   3.456   1.098 -0.9114 -0.0701  1.0642
   83MOL   H16523289   1.659   3.523   1.064 -3.1225 -0.8396  0.1975
   83MOL   H16623290   1.387   3.452   1.085 -2.3799  0.7028  1.1368
   83MOL   H16723291   1.390   3.321   1.349  0.5949 -0.9347  0.6776
   83MOL   H16823292   1.531   3.166   1.253  0.5751 -0.3958  1.8557
   83MOL   H16923293   1.764   3.100   1.284  0.5945 -0.1306 -1.0617
   83MOL   C17023294   1.206   3.414   1.278 -0.0238 -1.1239 -0.5065
   83MOL   C17123295   1.148   3.397   1.408 -0.2558  0.8437  0.2111
   83MOL   C17223296   1.019   3.445   1.434  0.4501 -0.0368  0.0628
   83MOL   C17323297   0.946   3.512   1.338 -0.5582  0.2133  0.3816
   83MOL   C17423298   0.817   3.573   1.368  0.3371 -0.4931 -0.9461
   83MOL   C17523299   0.777   3.604   1.493 -0.0183  0.5429  0.2878
   83MOL   C17623300   1.004   3.525   1.210  0.4517  0.1952 -0.2556
   83MOL   C17723301   1.135   3.484   1.180  0.3944  0.8664  0.2305
   83MOL   H17823302   1.199   3.346   1.489 -1.9699 -1.5175 -0.1578
   83MOL   H17923303   0.961   3.424   1.523  0.3244  0.1076  0.0154
   83MOL   H18023304   0.750   3.569   1.284  0.8794  0.1526 -1.4166
   83MOL   H18123305   0.841   3.590   1.580  0.0855 -0.1816  0.0941
   83MOL   H18223306   0.945   3.579   1.137 -0.9843 -0.7718  0.1543
   83MOL   H18323307   1.178   3.491   1.082  1.4242  0.8934  0.6746
   83MOL   C18423308   0.636   3.652   1.525  0.0227 -0.3225 -0.6604
   83MOL   C18523309   0.584   3.646   1.658  0.0027 -1.1244  0.2860
   83MOL   C18623310   0.459   3.692   1.686 -0.1777 -0.5185  0.3164
   83MOL   C18723311   0.364   3.724   1.584 -0.2016  0.7037  0.8053
   83MOL   C18823312   0.226   3.751   1.611  1.0111 -0.4007  0.6538
   83MOL   C18923313   0.156   3.717   1.719 -0.4801 -0.5145  0.1066
   83MOL   C19023314   0.409   3.710   1.453 -0.4047  0.1225 -0.4009
   83MOL   C19123315   0.549   3.695   1.422  0.0312 -0.2551  0.2760
   83MOL   H19223316   0.659   3.621   1.731  3.0346 -0.6944 -2.5653
   83MOL   H19323317   0.425   3.698   1.789 -2.4819  1.1501 -0.5109
   83MOL   H19423318   0.171   3.807   1.536  1.1531 -0.5227  0.4566
   83MOL   H19523319   0.219   3.678   1.797  0.9377  1.4201 -0.0223
   83MOL   H19623320   0.338   3.720   1.373 -1.0924 -1.5119 -0.0130
   83MOL   H19723321   0.589   3.694   1.322  1.4552 -1.1597  0.8354
   83MOL   C19823322   0.010   3.730   1.744 -0.1711 -0.5792  0.0972
   83MOL   C19923323   8.070   3.761   1.641 -0.4859  0.1568  0.6827
   83MOL   C20023324   7.928   3.776   1.656  0.5092  0.5537  0.3559
   83MOL   C20123325   7.872   3.773   1.785 -0.7413  0.1499 -0.5971
   83MOL   C20223326   7.734   3.805   1.801 -0.3850 -0.2408  0.4133
   83MOL   C20323327   7.676   3.876   1.900 -0.3849  0.4864 -0.1003
   83MOL   C20423328   7.962   3.742   1.894 -0.1117 -0.2246  0.0631
   83MOL   C20523329   8.100   3.717   1.867  0.4227 -0.1663 -0.9516
   83MOL   H20623330   8.110   3.784   1.544 -3.1441  0.6650 -0.3343
   83MOL   H20723331   7.877   3.793   1.563  2.9888 -2.0672 -1.5825
   83MOL   H20823332   7.671   3.769   1.720  0.4573 -1.3308  0.2254
   83MOL   H20923333   7.743   3.897   1.982  0.0867  1.5661 -0.7444
   83MOL   H21023334   7.927   3.738   1.996  1.6332 -0.2102  0.6715
   83MOL   H21123335   0.028   3.687   1.941  0.7814  0.0479 -1.2173
   83MOL   C21223336   7.531   3.910   1.913 -0.3549 -0.0718 -0.0558
   83MOL   C21323337   7.432   3.878   1.814  0.0248  0.1415  0.5528
   83MOL   C21423338   7.296   3.901   1.837 -0.0281 -0.7207 -0.8841
   83MOL   C21523339   7.257   3.963   1.958 -0.0459  0.3418 -0.0734
   83MOL   C21623340   7.122   4.004   1.988  0.4246  0.8891  0.1503
   83MOL   C21723341   7.022   4.001   1.896  0.0878 -0.5447  0.4747
   83MOL   C21823342   7.354   4.009   2.047  0.0498  0.3545 -0.0651
   83MOL   C21923343   7.494   3.985   2.033  0.1240 -0.1812  0.6983
   83MOL   H22023344   7.464   3.817   1.730  1.5573 -2.1663  2.7294
   83MOL   H22123345   7.226   3.865   1.763 -0.6609 -2.6192  0.5934
   83MOL   H22223346   7.107   4.040   2.089  0.8375  2.4040 -0.3150
   83MOL   H22323347   7.035   3.966   1.795 -3.3033 -0.4591 -0.0518
   83MOL   H22423348   7.318   4.050   2.140 -0.6982 -1.5611  0.5239
   83MOL   H22523349   7.574   4.005   2.103  0.3826  3.8632 -0.6332
   83MOL   C22623350   6.892   4.055   1.911 -0.2868  0.7856 -0.3268
   83MOL   C22723351   6.838   4.094   2.035  0.3012  0.4106  0.1850
   83MOL   C22823352   6.703   4.134   2.047 -0.0985  0.1053 -0.0508
   83MOL   C22923353   6.623   4.126   1.928 -0.1703  0.3009  0.0691
   83MOL   C23023354   6.477   4.156   1.927  0.6857  0.1484 -0.5344
   83MOL   C23123355   6.394   4.192   2.033 -0.3234  0.0382  0.2061
   83MOL   C23223356   6.681   4.097   1.803 -0.4767 -0.1893 -0.7979
   83MOL   C23323357   6.813   4.059   1.799  0.1191 -0.1909  0.4607
   83MOL   H23423358   6.898   4.095   2.124  0.8144 -0.9696 -0.1438
   83MOL   H23523359   6.667   4.168   2.143 -1.2653 -0.4241 -0.2947
   83MOL   H23623360   6.435   4.151   1.828  0.4965 -0.5110 -0.4212
   83MOL   H23723361   6.428   4.190   2.136 -0.9149  0.5721  0.4178
   83MOL   H23823362   6.614   4.106   1.719  0.4293  2.2264 -1.2799
   83MOL   H23923363   6.849   4.034   1.701 -0.0695 -1.4245  0.6961
   83MOL   C24023364   6.252   4.229   2.022 -0.0509 -0.2915 -0.5773
   83MOL   C24123365   6.192   4.247   1.895 -0.9880  0.7468 -0.6304
   83MOL   C24223366   6.061   4.294   1.886 -0.3867  0.2495  0.0473
   83MOL   C24323367   5.985   4.331   2.005  0.3285 -0.3241 -0.4399
   83MOL   C24423368   5.851   4.391   1.985  0.6983  0.0863 -0.6095
   83MOL   C24523369   5.761   4.394   2.084  0.5698 -0.0895 -0.0472
   83MOL   C24623370   6.045   4.304   2.129 -0.4896  0.5739  0.5621
   83MOL   C24723371   6.182   4.256   2.139  0.3707 -1.1700  0.0538
   83MOL   H24823372   6.253   4.233   1.807  2.1514 -0.1812  1.6006
   83MOL   H24923373   6.023   4.315   1.787  0.2614 -2.2644 -0.7515
   83MOL   H25023374   5.839   4.436   1.888  3.9058  1.4694 -0.4407
   83MOL   H25123375   5.780   4.351   2.181 -3.3602 -0.0082  0.8316
   83MOL   H25223376   5.995   4.331   2.221 -0.8217 -0.6440  0.7394
   83MOL   H25323377   6.224   4.256   2.238  1.9231  0.9413 -0.5549
   83MOL   C25423378   5.631   4.460   2.067  0.3428  0.3304 -0.4653
   83MOL   C25523379   5.556   4.478   2.187 -0.3715  0.5600  0.1583
   83MOL   C25623380   5.426   4.531   2.187 -0.3891  0.0556 -0.1463
   83MOL   C25723381   5.371   4.568   2.059 -0.0901 -0.3437 -0.2436
   83MOL   C25823382   5.236   4.629   2.035 -0.5251 -0.3119 -0.0481
   83MOL   C25923383   5.166   4.703   2.117 -0.0138  0.3956  0.0316
   83MOL   C26023384   5.451   4.562   1.946  0.5216 -0.0570 -0.3272
   83MOL   C26123385   5.581   4.506   1.944  0.2217  0.4933  0.0585
   83MOL   H26223386   5.599   4.454   2.283 -2.9980 -1.3201  0.9316
   83MOL   H26323387   5.364   4.541   2.275  0.5043  0.3188  0.4508
   83MOL   H26423388   5.198   4.606   1.936  0.4426 -1.8629 -0.0790
   83MOL   H26523389   5.069   4.736   2.085  0.5136  1.1617 -0.7807
   83MOL   H26623390   5.416   4.603   1.852  1.2927 -0.1659 -0.6596
   83MOL   H26723391   5.641   4.507   1.854  1.6773 -1.6513  0.9729
   83MOL   C26823392   5.194   4.753   2.249  0.0143  0.3286  0.0574
   83MOL   C26923393   5.098   4.752   2.350 -0.1109 -0.6141  0.3503
   83MOL   C27023394   5.126   4.780   2.485  0.1406 -0.4628  0.0146
   83MOL   C27123395   5.253   4.819   2.521 -0.4462  0.4104  0.4782
   83MOL   C27223396   5.298   4.852   2.664 -0.1459 -0.4379  0.5248
   83MOL   C27323397   5.211   4.869   2.768  0.4957 -0.9854 -0.3591
   83MOL   C27423398   5.353   4.827   2.421 -0.1768 -0.0736 -0.3476
   83MOL   C27523399   5.325   4.798   2.287 -0.0500  0.4135 -0.3619
   83MOL   H27623400   4.997   4.718   2.332 -0.7152  1.9212 -1.2610
   83MOL   H27723401   5.043   4.775   2.555 -0.4786 -1.6457 -0.7861
   83MOL   H27823402   5.403   4.872   2.678  0.1704 -1.9016  0.3186
   83MOL   H27923403   5.108   4.844   2.750  0.5937 -1.8809  0.3441
   83MOL   H28023404   5.453   4.848   2.454 -0.4493 -0.0414  0.4634
   83MOL   H28123405   5.405   4.795   2.214 -0.3615  1.2904 -0.7401
   83MOL   H28223406   5.248   4.902   2.864  0.1999  1.7179 -1.1267
   84MOL     C123407   1.242   3.055   1.786 -0.3691  0.0697  0.8914
   84MOL     C223408   1.326   3.161   1.815  0.2251 -0.4351 -0.3583
   84MOL     C323409   1.317   3.223   1.943 -1.2308  0.4156  0.6621
   84MOL     C423410   1.228   3.174   2.036  0.4096 -0.0707 -0.7279
   84MOL     C523411   1.218   3.238   2.170 -0.5718 -0.1664  0.4459
   84MOL     C623412   1.102   3.295   2.207  0.5223 -0.1170 -0.3862
   84MOL     C723413   1.149   3.064   2.009  0.2580 -0.6615  0.0915
   84MOL     C823414   1.145   3.013   1.881 -0.5228  0.5075  0.2849
   84MOL     H923415   1.392   3.197   1.738 -1.2936  1.8787 -0.6247
   84MOL    H1023416   1.385   3.304   1.966 -1.7174  0.3125  2.4902
   84MOL    H1123417   1.306   3.224   2.231  0.5239  2.4944 -0.4811
   84MOL    H1223418   1.023   3.296   2.133  0.8371 -0.7267 -0.7345
   84MOL    H1323419   1.076   3.022   2.078 -0.7771 -1.6993 -1.5976
   84MOL    H1423420   1.072   2.941   1.846  0.8489 -1.1066  0.6803
   84MOL    H1523421   1.234   3.012   1.687 -0.3393  1.1527  0.4063
   84MOL    C1623422   1.084   3.365   2.333  0.5472 -0.5971  0.3910
   84MOL    C1723423   1.196   3.394   2.415 -0.2784 -0.5807 -0.4732
   84MOL    C1823424   1.183   3.450   2.547 -0.1444  0.0651  0.0676
   84MOL    C1923425   1.054   3.485   2.587 -0.2360  0.7653 -0.7909
   84MOL    C2023426   1.026   3.551   2.719 -0.6357  0.5374 -0.3320
   84MOL    C2123427   1.107   3.572   2.820 -0.4406  0.0883  0.7299
   84MOL    C2223428   0.943   3.468   2.503 -0.0081 -0.2572 -0.0395
   84MOL    C2323429   0.956   3.414   2.374 -0.0478  0.4324  0.0129
   84MOL    H2423430   1.293   3.367   2.378 -0.4212 -1.8051  0.0395
   84MOL    H2523431   1.268   3.469   2.612  0.1352  0.4454 -0.4040
   84MOL    H2623432   0.923   3.581   2.734 -0.5773  1.1864 -1.1739
   84MOL    H2723433   1.213   3.556   2.809 -0.4833  0.4907 -0.3145
   84MOL    H2823434   0.848   3.507   2.539  0.3882  0.0722  0.6631
   84MOL    H2923435   0.868   3.393   2.316 -0.2247 -0.0412  0.4475
   84MOL    C3023436   1.071   3.642   2.950 -0.3127  0.5349  0.1152
   84MOL    C3123437   1.177   3.674   3.040  0.2163 -0.1968 -0.7091
   84MOL    C3223438   1.144   3.737   3.164 -0.8703  0.3849  0.1959
   84MOL    C3323439   1.012   3.763   3.195  0.0310 -0.5531 -0.3420
   84MOL    C3423440   0.987   3.825   3.325  0.0874 -0.4061 -0.8675
   84MOL    C3523441   0.876   3.883   3.362  0.1442  0.1145 -0.0332
   84MOL    C3623442   0.909   3.747   3.097  0.2477  0.4013  0.5093
   84MOL    C3723443   0.939   3.678   2.976 -0.3277  0.1911  0.3697
   84MOL    H3823444   1.275   3.637   3.015 -0.8527 -1.7426 -2.7783
   84MOL    H3923445   1.223   3.740   3.238 -0.7165 -0.4216  0.0640
   84MOL    H4023446   1.071   3.809   3.391 -0.8301 -1.6071  0.0424
   84MOL    H4123447   0.799   3.906   3.290  1.1553  0.0874 -1.1229
   84MOL    H4223448   0.806   3.777   3.106 -0.3643 -0.9555 -1.4148
   84MOL    H4323449   0.859   3.676   2.904 -0.3248 -0.3846  0.3846
   84MOL    C4423450   0.846   3.925   3.504 -0.4347 -0.4538 -0.2798
   84MOL    C4523451   0.725   3.997   3.521  0.0636  0.6403 -0.0596
   84MOL    C4623452   0.685   4.041   3.648  0.6265 -0.0149  0.0073
   84MOL    C4723453   0.763   4.022   3.765 -0.2716 -1.0746 -0.7913
   84MOL    C4823454   0.711   4.074   3.889  0.1857  0.3578 -0.1869
   84MOL    C4923455   0.776   4.082   4.003  0.9995 -0.2415 -0.0889
   84MOL    C5023456   0.891   3.968   3.750 -0.1313 -0.1446  0.3372
   84MOL    C5123457   0.933   3.916   3.619 -0.2465 -0.3389  0.0779
   84MOL    H5223458   0.666   4.025   3.435 -0.8418 -2.0409 -0.3375
   84MOL    H5323459   0.589   4.092   3.655  1.6008  2.0810 -1.4012
   84MOL    H5423460   0.613   4.119   3.878  0.8034  1.4679 -1.2268
   84MOL    H5523461   0.872   4.035   4.022  0.7090 -0.3356  1.1998
   84MOL    H5623462   0.953   3.945   3.836 -0.9107  1.6829  1.4268
   84MOL    H5723463   1.032   3.874   3.616  0.0988  0.4204  0.7536
   84MOL    C5823464   0.733   4.151   4.121  0.0173  1.1209 -0.1180
   84MOL    C5923465   0.786   4.122   4.247 -0.2559  0.4019 -0.4917
   84MOL    C6023466   0.737   4.177   4.372  0.3888  0.3862  1.0173
   84MOL    C6123467   0.618   4.261   4.364 -0.4387 -0.7724 -0.4336
   84MOL    C6223468   0.541   4.301   4.485  0.7626 -0.7500  0.0680
   84MOL    C6323469   0.569   4.274   4.612 -0.0709  0.0982 -0.5154
   84MOL    C6423470   0.573   4.303   4.236  0.7057 -0.6355  0.5892
   84MOL    C6523471   0.630   4.246   4.117 -0.1821 -0.0161  0.6759
   84MOL    H6623472   0.864   4.048   4.258 -0.7180  0.3523  3.2827
   84MOL    H6723473   0.772   4.154   4.471  0.8736 -1.0925  0.5072
   84MOL    H6823474   0.451   4.355   4.459  0.9072 -1.6296 -2.3538
   84MOL    H6923475   0.663   4.226   4.635  0.3904  0.3345 -1.8847
   84MOL    H7023476   0.482   4.361   4.228  1.5419  0.7094  0.6098
   84MOL    H7123477   0.574   4.270   4.028  1.2553  1.2729  0.0977
   84MOL    C7223478   0.474   4.294   4.722  0.0112  0.1508 -0.2204
   84MOL    C7323479   0.353   4.361   4.708 -0.1145 -0.2125 -0.4930
   84MOL    C7423480   0.266   4.377   4.818  0.2193 -0.2073  0.2395
   84MOL    C7523481   0.295   4.327   4.947  0.2667  0.2396  0.5852
   84MOL    C7623482   0.187   4.316   5.044 -0.0532 -0.1113 -0.6183
   84MOL    C7723483   0.181   4.242   5.163 -0.3236  0.2128  0.5194
   84MOL    C7823484   0.418   4.266   4.965  0.1744  0.0949  0.4945
   84MOL    C7923485   0.507   4.255   4.856  0.3347  0.5630  0.0808
   84MOL    H8023486   0.320   4.402   4.614  0.0876  2.3570  0.5193
   84MOL    H8123487   0.166   4.415   4.802  0.3792  0.2727  0.3750
   84MOL    H8223488   0.102   4.372   5.011 -2.0221 -1.8097  1.4305
   84MOL    H8323489   0.270   4.189   5.192 -0.3463 -0.3623 -0.4189
   84MOL    H8423490   0.453   4.226   5.058  0.0618  1.8076  1.2875
   84MOL    H8523491   0.598   4.199   4.870  0.4518  0.6040 -0.4703
   84MOL    C8623492   0.059   4.212   5.242 -0.2942  0.3726  0.3287
   84MOL    C8723493   8.086   4.293   5.229 -0.3656  0.3401  0.3014
   84MOL    C8823494   7.965   4.251   5.288 -0.2716 -0.3060  0.4305
   84MOL    C8923495   7.947   4.134   5.359  0.4327  0.3298  0.2280
   84MOL    C9023496   7.811   4.100   5.398  0.3862 -0.6863  0.0616
   84MOL    C9123497   7.775   3.976   5.443  0.1580 -0.3260 -0.8238
   84MOL    C9223498   8.065   4.058   5.378  0.6597  0.7149 -0.0395
   84MOL    C9323499   0.045   4.096   5.319 -0.3386 -0.7249  0.5867
   84MOL    H9423500   8.084   4.382   5.167 -0.0461 -0.4273 -0.8242
   84MOL    H9523501   7.878   4.314   5.279 -0.8128 -1.2367 -1.0693
   84MOL    H9623502   7.734   4.176   5.389  1.2024  0.2461  0.7757
   84MOL    H9723503   7.849   3.900   5.463 -1.1223 -0.9227  1.9267
   84MOL    H9823504   8.063   3.962   5.428  0.2654 -0.3301 -1.9813
   84MOL    H9923505   0.132   4.038   5.344  1.6144  0.6100 -2.7501
   84MOL   C10023506   7.630   3.940   5.459 -0.1683 -0.5894 -0.7380
   84MOL   C10123507   7.526   4.000   5.385 -1.0114 -0.6230 -0.0589
   84MOL   C10223508   7.394   3.940   5.392 -0.8452 -0.4349  0.8702
   84MOL   C10323509   7.368   3.822   5.466 -0.6381 -0.2572  0.2986
   84MOL   C10423510   7.239   3.751   5.468 -0.7617 -0.4202 -0.1041
   84MOL   C10523511   7.122   3.808   5.437 -0.2776 -0.0092  0.4248
   84MOL   C10623512   7.466   3.778   5.553  0.1933 -0.1877 -0.6980
   84MOL   C10723513   7.600   3.829   5.543  0.3856  0.4986  0.3789
   84MOL   H10823514   7.537   4.086   5.320 -2.2014 -0.1367  0.3636
   84MOL   H10923515   7.319   3.967   5.320  0.3062 -0.7128 -0.4468
   84MOL   H11023516   7.241   3.646   5.495 -1.7460 -0.5861 -0.6864
   84MOL   H11123517   7.116   3.913   5.410  0.4876  0.2303  1.1423
   84MOL   H11223518   7.454   3.687   5.610  0.2880 -0.4530 -1.0966
   84MOL   H11323519   7.677   3.775   5.597  0.1016 -0.4129 -0.1215
   84MOL   C11423520   6.990   3.740   5.422 -0.2077 -0.3844 -0.3866
   84MOL   C11523521   6.974   3.600   5.451 -0.4908 -0.0148  0.2246
   84MOL   C11623522   6.855   3.539   5.435  0.3200 -0.3054  0.6288
   84MOL   C11723523   6.745   3.612   5.393 -0.4313  0.0845 -0.0941
   84MOL   C11823524   6.619   3.542   5.384 -0.3479  0.4526 -0.1254
   84MOL   C11923525   6.506   3.569   5.311 -0.4197 -0.3593 -0.5247
   84MOL   C12023526   6.756   3.749   5.371  0.4148  0.5521  0.5589
   84MOL   C12123527   6.881   3.806   5.375  0.4539  0.1991 -0.0601
   84MOL   H12223528   7.065   3.553   5.483  0.0679  1.3919  0.7382
   84MOL   H12323529   6.848   3.433   5.456 -1.6984 -0.4677 -0.7603
   84MOL   H12423530   6.627   3.454   5.446 -2.2057 -0.9420 -1.8170
   84MOL   H12523531   6.500   3.656   5.247 -0.6703  1.0363  1.3721
   84MOL   H12623532   6.663   3.799   5.348 -0.6565 -1.5059  0.2967
   84MOL   H12723533   6.883   3.912   5.353 -0.4621  0.1449 -0.3988
   84MOL   C12823534   6.383   3.484   5.313 -0.5711  0.0360 -0.3308
   84MOL   C12923535   6.360   3.377   5.401  0.4099  0.0845  0.2526
   84MOL   C13023536   6.246   3.296   5.393 -0.4153 -0.6107 -0.5196
   84MOL   C13123537   6.151   3.322   5.292  0.2331  0.3739  0.3060
   84MOL   C13223538   6.030   3.245   5.287  0.3749  0.1651  0.0496
   84MOL   C13323539   5.921   3.263   5.206  0.1137  0.2869  0.2704
   84MOL   C13423540   6.175   3.417   5.194 -0.1233  0.1986  0.8906
   84MOL   C13523541   6.289   3.500   5.206 -0.7945 -0.4587 -0.8383
   84MOL   H13623542   6.439   3.349   5.468  1.6777 -2.7400 -2.2861
   84MOL   H13723543   6.237   3.213   5.461  0.4825  0.4372  0.9138
   84MOL   H13823544   6.029   3.177   5.371  0.2572 -0.5675 -0.5496
   84MOL   H13923545   5.919   3.346   5.137  0.8131 -0.1932 -0.3353
   84MOL   H14023546   6.108   3.439   5.112 -0.5195 -1.2176  0.8201
   84MOL   H14123547   6.307   3.564   5.121 -1.7824 -0.7849 -1.2950
   84MOL   C14223548   5.794   3.187   5.200 -0.0653  0.4254 -0.1802
   84MOL   C14323549   5.682   3.234   5.125 -0.0967  0.3552  0.9382
   84MOL   C14423550   5.561   3.159   5.116 -0.4708  0.5236 -0.6994
   84MOL   C14523551   5.555   3.033   5.181  0.0144 -0.3993 -0.3115
   84MOL   C14623552   5.440   2.947   5.189 -0.1218 -1.0424  0.2127
   84MOL   C14723553   5.321   2.991   5.143 -0.1413 -0.5947  0.5133
   84MOL   C14823554   5.666   2.990   5.263  0.0385 -0.0268 -0.7814
   84MOL   C14923555   5.781   3.071   5.281 -0.6689 -1.0005 -1.0905
   84MOL   H15023556   5.682   3.334   5.086  0.5079  0.4307  1.1248
   84MOL   H15123557   5.479   3.197   5.057 -0.3648  1.7512 -0.0486
   84MOL   H15223558   5.454   2.843   5.216 -1.1803 -1.0133  0.8768
   84MOL   H15323559   5.318   3.093   5.107  2.5026 -1.3144 -2.0024
   84MOL   H15423560   5.651   2.894   5.311  1.1671  1.0817  1.8954
   84MOL   H15523561   5.864   3.040   5.342 -0.7336  1.3762  0.2499
   84MOL   C15623562   5.195   2.916   5.120 -0.1881  0.2873  0.5561
   84MOL   C15723563   5.168   2.786   5.144 -0.0306  0.0913  0.4406
   84MOL   C15823564   5.047   2.723   5.110 -0.2239 -0.0606 -0.0590
   84MOL   C15923565   4.944   2.791   5.053  0.2583  0.7395 -0.6494
   84MOL   C16023566   4.812   2.717   5.036 -0.2788  0.4235  0.4217
   84MOL   C16123567   4.704   2.773   4.976  0.0559  0.3281 -0.8308
   84MOL   C16223568   4.967   2.928   5.026  0.3250  1.0089 -0.6890
   84MOL   C16323569   5.092   2.989   5.060 -0.0184 -0.3588 -0.2088
   84MOL   H16423570   5.249   2.724   5.181 -1.4259 -1.4906  0.9132
   84MOL   H16523571   5.040   2.621   5.145  0.2251 -0.5377 -1.3179
   84MOL   H16623572   4.805   2.615   5.070  0.6778  0.4858  0.8390
   84MOL   H16723573   4.712   2.878   4.952 -1.5720  0.3824 -1.1795
   84MOL   H16823574   4.890   2.985   4.978  2.7237  2.9588 -2.3055
   84MOL   H16923575   5.101   3.096   5.053 -2.5370  0.0365  1.6205
   84MOL   C17023576   4.575   2.713   4.949 -0.0976  0.7045 -0.0306
   84MOL   C17123577   4.538   2.579   4.969 -0.3250 -0.2340  0.5040
   84MOL   C17223578   4.416   2.526   4.931  0.1226 -0.0283  0.4211
   84MOL   C17323579   4.323   2.613   4.876  0.6940  0.0522  0.1211
   84MOL   C17423580   4.181   2.568   4.848 -0.2753 -0.0088 -0.7531
   84MOL   C17523581   4.134   2.443   4.867 -0.7195  0.0938 -0.7626
   84MOL   C17623582   4.354   2.751   4.863 -0.1941 -0.4085  0.0104
   84MOL   C17723583   4.480   2.799   4.899  0.0399 -1.0015 -0.1105
   84MOL   H17823584   4.612   2.517   5.019 -2.0305 -1.3495  1.6873
   84MOL   H17923585   4.390   2.427   4.964  1.7893 -0.3142  0.9282
   84MOL   H18023586   4.121   2.647   4.806 -1.4113  0.3897  1.5058
   84MOL   H18123587   4.194   2.360   4.903 -1.9141 -0.6352 -0.4154
   84MOL   H18223588   4.272   2.811   4.828 -0.0238 -0.5733 -0.6801
   84MOL   H18323589   4.511   2.900   4.877 -2.2890  0.4127  2.7702
   84MOL   C18423590   3.989   2.408   4.845 -0.1916 -0.2904  0.2144
   84MOL   C18523591   3.895   2.509   4.829  0.6917  0.6151  0.1625
   84MOL   C18623592   3.761   2.471   4.789 -0.2837 -0.5460  0.0303
   84MOL   C18723593   3.726   2.335   4.782  0.4469 -0.2295  0.4286
   84MOL   C18823594   3.593   2.297   4.745  0.0851  0.4788 -0.3888
   84MOL   C18923595   3.534   2.175   4.750  0.1552  0.2897 -0.0378
   84MOL   C19023596   3.818   2.239   4.816  0.3408  0.3127  0.3636
   84MOL   C19123597   3.951   2.275   4.847  0.4298 -0.1578  0.3341
   84MOL   H19223598   3.918   2.614   4.835  2.5585  0.1935  0.7684
   84MOL   H19323599   3.694   2.550   4.757  1.5270  2.0575  2.3183
   84MOL   H19423600   3.530   2.376   4.706  1.4383  1.7140 -0.1287
   84MOL   H19523601   3.594   2.094   4.791 -0.0093 -0.3647 -1.0645
   84MOL   H19623602   3.794   2.136   4.793 -1.9923  0.4881  1.7875
   84MOL   H19723603   4.020   2.193   4.859 -0.1328 -0.6367  0.3098
   84MOL   C19823604   3.395   2.141   4.696  0.6763  0.0191  0.2642
   84MOL   C19923605   3.368   2.003   4.679 -0.1352 -0.1838  0.1394
   84MOL   C20023606   3.241   1.953   4.652  0.5379 -0.2979  0.7351
   84MOL   C20123607   3.135   2.038   4.633 -0.0647 -0.1512  0.6900
   84MOL   C20223608   3.003   1.982   4.609 -0.2287  0.3901  0.7053
   84MOL   C20323609   2.900   2.032   4.542 -0.5337 -0.2426 -0.1144
   84MOL   C20423610   3.159   2.179   4.636  0.3371  0.9204  0.2428
   84MOL   C20523611   3.293   2.230   4.673  0.5911  0.5136 -0.5280
   84MOL   H20623612   3.449   1.933   4.693  0.7921  1.0570  1.0856
   84MOL   H20723613   3.217   1.848   4.652  0.5353 -0.2977 -0.1228
   84MOL   H20823614   2.989   1.878   4.635  2.6694 -0.7202 -1.7895
   84MOL   H20923615   2.909   2.133   4.507  0.7192  0.9347  3.4105
   84MOL   H21023616   3.081   2.244   4.600  0.1574  1.3232  1.3274
   84MOL   H21123617   3.322   2.332   4.691  0.8438  0.9525 -3.2014
   84MOL   C21223618   2.777   1.965   4.501  0.7136 -0.0808 -0.8794
   84MOL   C21323619   2.752   1.829   4.500  0.3958 -0.3795 -0.0467
   84MOL   C21423620   2.624   1.780   4.461 -0.1145 -0.1820  0.2546
   84MOL   C21523621   2.523   1.867   4.419 -0.0450 -0.1606 -0.6602
   84MOL   C21623622   2.389   1.820   4.379  0.0056 -0.0843 -0.2002
   84MOL   C21723623   2.353   1.689   4.374 -0.0593  0.0527 -0.2672
   84MOL   C21823624   2.548   2.002   4.418  0.4663 -0.8066 -0.2445
   84MOL   C21923625   2.676   2.056   4.458  0.4872  1.2141  0.5428
   84MOL   H22023626   2.835   1.763   4.522 -1.0387 -2.1772  0.0659
   84MOL   H22123627   2.607   1.674   4.447 -0.7788 -0.2586  1.5619
   84MOL   H22223628   2.315   1.896   4.354 -1.5178 -1.7378 -0.8291
   84MOL   H22323629   2.429   1.621   4.409  1.5839  1.3674 -1.1797
   84MOL   H22423630   2.471   2.076   4.400  1.8346  0.6438 -0.2321
   84MOL   H22523631   2.695   2.162   4.458  1.9512  0.9708 -0.4256
   84MOL   C22623632   2.222   1.637   4.342  0.7135 -0.5473 -0.6608
   84MOL   C22723633   2.207   1.504   4.375  0.8780  0.5310  0.4934
   84MOL   C22823634   2.086   1.437   4.354 -0.1714 -0.5664 -0.4933
   84MOL   C22923635   1.976   1.507   4.296  0.0323  0.1623 -0.2332
   84MOL   C23023636   1.849   1.432   4.278  0.4513  0.5055  0.1266
   84MOL   C23123637   1.838   1.298   4.260 -0.4326 -0.7649  0.2357
   84MOL   C23223638   1.994   1.637   4.256 -0.4789 -0.0447  0.5120
   84MOL   C23323639   2.114   1.711   4.279  0.0478 -0.4412 -0.3746
   84MOL   H23423640   2.286   1.444   4.418  0.4713 -0.5402 -0.2156
   84MOL   H23523641   2.079   1.333   4.382  2.3747 -1.1624 -1.9220
   84MOL   H23623642   1.762   1.497   4.273 -0.3595 -0.6981 -2.0999
   84MOL   H23723643   1.926   1.235   4.256  0.7099  0.7923  0.5197
   84MOL   H23823644   1.914   1.684   4.201  0.4489  3.0107  1.7154
   84MOL   H23923645   2.128   1.813   4.247 -0.1876 -0.0075  0.9176
   84MOL   C24023646   1.715   1.224   4.245  0.8695  0.6127  0.1183
   84MOL   C24123647   1.710   1.090   4.255 -0.3717  0.4926 -0.5976
   84MOL   C24223648   1.591   1.022   4.257 -0.0318  0.3995  0.1002
   84MOL   C24323649   1.470   1.086   4.223 -0.3409 -0.2544  0.4404
   84MOL   C24423650   1.347   1.010   4.234 -0.1938 -0.6962 -0.4283
   84MOL   C24523651   1.225   1.061   4.250 -0.1926  0.3538 -0.0313
   84MOL   C24623652   1.475   1.223   4.201 -0.1746 -0.2808  0.1755
   84MOL   C24723653   1.595   1.292   4.219  1.1399 -0.4413 -0.2382
   84MOL   H24823654   1.802   1.040   4.280 -0.7589 -0.1926 -0.5437
   84MOL   H24923655   1.603   0.915   4.249  2.0728  0.7005 -1.3784
   84MOL   H25023656   1.360   0.903   4.232 -2.3975 -0.9796 -0.7672
   84MOL   H25123657   1.215   1.167   4.269 -1.3071  0.2800 -0.2032
   84MOL   H25223658   1.379   1.263   4.174  0.4154 -0.9598 -3.1395
   84MOL   H25323659   1.588   1.397   4.196  1.9412 -0.2206  0.5021
   84MOL   C25423660   1.090   0.997   4.265 -0.7504 -0.0528  1.1994
   84MOL   C25523661   1.081   0.858   4.283 -0.1643 -0.2625 -0.6633
   84MOL   C25623662   0.954   0.798   4.300 -0.0442 -0.4173  0.0283
   84MOL   C25723663   0.836   0.881   4.283 -0.0380  0.3039 -0.2336
   84MOL   C25823664   0.698   0.830   4.301  0.3144 -0.4173  0.2450
   84MOL   C25923665   0.654   0.727   4.371 -0.3465 -0.1103  0.0417
   84MOL   C26023666   0.849   1.017   4.251 -0.2539  0.4038  0.3341
   84MOL   C26123667   0.980   1.075   4.242 -0.5649  0.0267 -0.2056
   84MOL   H26223668   1.172   0.801   4.298  0.1062  0.9991  3.3387
   84MOL   H26323669   0.942   0.698   4.338 -1.7902  0.2077  1.2107
   84MOL   H26423670   0.616   0.878   4.249  2.3860  3.0609  0.0346
   84MOL   H26523671   0.550   0.704   4.357 -0.0784  0.5038 -3.1456
   84MOL   H26623672   0.763   1.081   4.236  0.4786  0.9698 -1.6256
   84MOL   H26723673   0.988   1.180   4.218  1.7905  0.2423  1.3571
   84MOL   C26823674   0.730   0.634   4.465 -0.3515 -1.3643 -0.0788
   84MOL   C26923675   0.719   0.495   4.458 -0.1662  0.2986  0.3566
   84MOL   C27023676   0.779   0.414   4.555 -0.2080  0.5687  0.2216
   84MOL   C27123677   0.854   0.468   4.657 -0.5184 -0.1315  0.7020
   84MOL   C27223678   0.919   0.367   4.742  0.1598 -0.5186 -0.6304
   84MOL   C27323679   1.031   0.398   4.811  1.0843  0.0353 -0.7232
   84MOL   C27423680   0.880   0.605   4.656  0.1185 -0.4763 -0.6496
   84MOL   C27523681   0.813   0.691   4.569 -0.2986 -1.0401  0.3987
   84MOL   H27623682   0.665   0.455   4.374  1.0528 -0.2803 -0.1637
   84MOL   H27723683   0.782   0.308   4.533  1.2616  0.0447  2.6872
   84MOL   H27823684   0.876   0.267   4.744  0.4083 -0.7055 -2.8104
   84MOL   H27923685   1.083   0.492   4.804  0.7931  0.4358  2.0057
   84MOL   H28023686   0.954   0.650   4.721 -0.2169 -0.7239 -0.0986
   84MOL   H28123687   0.833   0.797   4.570 -0.2197 -1.0617  0.8867
   84MOL   H28223688   1.070   0.324   4.881 -0.4187 -1.6785 -1.6549
   85MOL     C123689   4.615   2.167   4.760 -0.3363  0.3967 -0.5738
   85MOL     C223690   4.532   2.276   4.733 -0.4394  0.3573 -0.0620
   85MOL     C323691   4.397   2.253   4.691 -0.2887  0.3991  0.4119
   85MOL     C423692   4.346   2.117   4.686 -0.4479 -0.1143 -0.4247
   85MOL     C523693   4.204   2.099   4.649 -1.0103  0.5974 -0.0509
   85MOL     C623694   4.144   1.978   4.663  0.3775 -0.1288 -0.5959
   85MOL     C723695   4.432   2.007   4.721 -0.1363 -0.1332  0.4000
   85MOL     C823696   4.569   2.036   4.747  0.1464  0.2289 -1.2594
   85MOL     H923697   4.583   2.371   4.740  0.7864 -0.1521 -1.6910
   85MOL    H1023698   4.334   2.338   4.669  1.0899  0.7323 -2.6192
   85MOL    H1123699   4.150   2.179   4.600 -0.8204  0.8087  0.0821
   85MOL    H1223700   4.191   1.891   4.707  0.9120  1.4437  2.0872
   85MOL    H1323701   4.401   1.905   4.703 -1.5689  0.2013  0.9228
   85MOL    H1423702   4.631   1.951   4.773  1.4418  0.8865 -2.1032
   85MOL    H1523703   4.721   2.185   4.774 -0.2021 -0.6823 -0.1460
   85MOL    C1623704   4.006   1.945   4.618 -0.3383  0.9159  0.4269
   85MOL    C1723705   3.963   1.812   4.624 -0.0382  0.4226  0.3753
   85MOL    C1823706   3.830   1.778   4.580 -0.0765 -0.2805  0.0428
   85MOL    C1923707   3.748   1.872   4.519 -0.0256  0.5167  0.2364
   85MOL    C2023708   3.616   1.831   4.473  0.1428 -0.5835  0.7305
   85MOL    C2123709   3.545   1.721   4.498  0.8951 -0.2895 -0.0897
   85MOL    C2223710   3.799   2.001   4.503  0.3545 -0.4158 -0.1123
   85MOL    C2323711   3.929   2.037   4.546 -0.0354  0.1784 -0.1621
   85MOL    H2423712   4.022   1.736   4.674  0.4969 -0.0274 -0.9283
   85MOL    H2523713   3.797   1.675   4.590 -1.0447 -0.0848 -1.0015
   85MOL    H2623714   3.569   1.913   4.421  1.4982 -0.1791  0.1418
   85MOL    H2723715   3.593   1.638   4.547  1.5493 -0.6585 -1.3430
   85MOL    H2823716   3.744   2.077   4.449  2.2885  0.3184 -1.1087
   85MOL    H2923717   3.969   2.137   4.539  2.6812 -0.7147  1.8428
   85MOL    C3023718   3.404   1.709   4.455  0.1632  0.4951  0.3306
   85MOL    C3123719   3.327   1.609   4.511 -0.0153  0.7431  0.0783
   85MOL    C3223720   3.195   1.591   4.470  0.1744 -0.5153  0.0228
   85MOL    C3323721   3.135   1.664   4.372  0.3896  0.2089 -0.2546
   85MOL    C3423722   3.003   1.638   4.316  0.4871  0.0931 -0.3962
   85MOL    C3523723   2.925   1.534   4.353 -0.0992  0.0871  0.4184
   85MOL    C3623724   3.217   1.762   4.310 -0.0424  0.1413 -0.4328
   85MOL    C3723725   3.346   1.786   4.356 -0.7358  0.6007  0.4058
   85MOL    H3823726   3.365   1.539   4.584 -0.0677  0.7270  0.0901
   85MOL    H3923727   3.137   1.509   4.510  0.4819 -0.9021 -0.3186
   85MOL    H4023728   2.964   1.712   4.248 -0.2343 -1.6832 -1.9705
   85MOL    H4123729   2.971   1.461   4.417 -0.0715 -0.8732 -0.6739
   85MOL    H4223730   3.182   1.813   4.222 -0.5497 -0.8206 -0.7996
   85MOL    H4323731   3.411   1.847   4.296  0.5636 -0.5147  0.6544
   85MOL    C4423732   2.790   1.510   4.310  0.3827  0.1806 -0.0021
   85MOL    C4523733   2.708   1.421   4.380  1.0846 -0.1835 -0.3155
   85MOL    C4623734   2.581   1.383   4.324 -0.9810  0.0458  0.1275
   85MOL    C4723735   2.534   1.441   4.203  1.1211 -0.2361  0.5130
   85MOL    C4823736   2.409   1.393   4.128 -0.1283 -0.2887  0.4190
   85MOL    C4923737   2.362   1.269   4.123 -0.4206  0.0933  0.8210
   85MOL    C5023738   2.613   1.542   4.142  0.4254 -0.1382 -0.2348
   85MOL    C5123739   2.739   1.574   4.192  0.3513 -0.3991  0.2231
   85MOL    H5223740   2.749   1.381   4.472 -1.9042 -0.2609  1.0680
   85MOL    H5323741   2.529   1.301   4.371 -0.2834 -0.9335 -0.7983
   85MOL    H5423742   2.355   1.469   4.073  0.7057  0.3075  0.4107
   85MOL    H5523743   2.418   1.192   4.172 -2.5604 -1.0335  1.5738
   85MOL    H5623744   2.575   1.585   4.050  0.2897 -0.4598 -0.3311
   85MOL    H5723745   2.805   1.630   4.127 -0.2326  0.5284  0.4217
   85MOL    C5823746   2.241   1.222   4.051  0.4609 -0.1120 -0.0075
   85MOL    C5923747   2.122   1.299   4.049 -0.3222  0.2046 -0.6483
   85MOL    C6023748   2.009   1.256   3.973 -0.7998 -0.0485  0.1324
   85MOL    C6123749   2.016   1.138   3.891  0.5721  0.7292 -0.0749
   85MOL    C6223750   1.905   1.107   3.789  0.2444 -1.0021 -0.2309
   85MOL    C6323751   1.902   0.992   3.726 -0.2985 -0.1396  0.3356
   85MOL    C6423752   2.133   1.058   3.895 -0.0087 -0.2042 -0.5137
   85MOL    C6523753   2.245   1.107   3.973 -0.9333  0.1094 -0.2108
   85MOL    H6623754   2.116   1.397   4.094 -2.5705  1.3191 -3.2232
   85MOL    H6723755   1.925   1.323   3.982 -1.1063 -0.4778  0.5307
   85MOL    H6823756   1.838   1.190   3.773  1.0404 -0.4908 -0.9152
   85MOL    H6923757   1.969   0.914   3.761 -1.5002 -0.9914  0.7543
   85MOL    H7023758   2.154   0.967   3.840 -0.1728 -1.0340  0.7866
   85MOL    H7123759   2.335   1.048   3.984  1.2132  3.1376 -1.1513
   85MOL    C7223760   1.830   0.966   3.594 -0.0537 -0.2831  0.3839
   85MOL    C7323761   1.835   0.834   3.549 -0.0634  0.4694  0.0548
   85MOL    C7423762   1.793   0.803   3.422  0.4496  0.2097  0.2775
   85MOL    C7523763   1.734   0.902   3.332 -0.4557 -0.1199 -0.2268
   85MOL    C7623764   1.712   0.873   3.189  0.4036 -1.0270 -0.1141
   85MOL    C7723765   1.622   0.940   3.111  0.8035 -0.4060 -0.0715
   85MOL    C7823766   1.716   1.030   3.389  0.5901  0.1541 -0.1542
   85MOL    C7923767   1.758   1.058   3.521  0.3017 -0.1055  0.5330
   85MOL    H8023768   1.876   0.761   3.617  0.2528  1.1017  0.5491
   85MOL    H8123769   1.807   0.701   3.391 -0.9226 -0.7388  2.6965
   85MOL    H8223770   1.781   0.808   3.138  0.2233 -0.9099 -0.5075
   85MOL    H8323771   1.546   1.010   3.142  1.3699  0.1846  0.0012
   85MOL    H8423772   1.671   1.115   3.340  1.1078  2.2205  2.8761
   85MOL    H8523773   1.751   1.160   3.555 -0.0622 -0.1815  0.6849
   85MOL    C8623774   1.629   0.915   2.959  0.5405  0.7904 -0.2178
   85MOL    C8723775   1.525   0.839   2.908  0.3567 -0.0313  0.2266
   85MOL    C8823776   1.520   0.820   2.765  0.0889  0.5051  0.1691
   85MOL    C8923777   1.616   0.872   2.682 -0.2505  0.5537 -0.1509
   85MOL    C9023778   1.617   0.834   2.543 -0.0154 -0.3140  0.0688
   85MOL    C9123779   1.720   0.869   2.460 -0.4095 -0.0549 -0.0213
   85MOL    C9223780   1.719   0.949   2.745  0.2013  1.1821 -0.3753
   85MOL    C9323781   1.729   0.973   2.877  0.7122  0.1565 -0.1488
   85MOL    H9423782   1.461   0.794   2.983  0.7140  0.3686  0.7771
   85MOL    H9523783   1.448   0.747   2.729 -0.9906  1.1378  1.0334
   85MOL    H9623784   1.540   0.770   2.501  1.3686 -1.2826 -1.0670
   85MOL    H9723785   1.804   0.927   2.494  0.1305 -0.9286  0.1779
   85MOL    H9823786   1.802   0.984   2.684  0.5175  0.3922 -0.4073
   85MOL    H9923787   1.813   1.034   2.910 -0.5687  1.2782  1.1067
   85MOL   C10023788   1.736   0.828   2.316 -0.2236  0.1239 -0.2960
   85MOL   C10123789   1.634   0.764   2.244  0.4169  0.2051 -1.0706
   85MOL   C10223790   1.667   0.693   2.123 -0.3240 -0.2909  0.2632
   85MOL   C10323791   1.798   0.705   2.067 -0.1892 -0.3327 -0.1027
   85MOL   C10423792   1.833   0.609   1.958  0.2882  0.5276 -0.3437
   85MOL   C10523793   1.958   0.577   1.920 -0.2575 -0.6002 -0.4739
   85MOL   C10623794   1.900   0.775   2.133  0.1655  0.4164  0.1865
   85MOL   C10723795   1.868   0.829   2.260  0.3520 -0.0100 -0.2277
   85MOL   H10823796   1.535   0.762   2.286  1.4101 -1.0554  1.3198
   85MOL   H10923797   1.591   0.638   2.070 -1.0648 -0.3427  1.3577
   85MOL   H11023798   1.752   0.566   1.902 -0.5209  0.6265  0.7528
   85MOL   H11123799   2.041   0.624   1.970 -1.3542  0.7157  0.1109
   85MOL   H11223800   1.996   0.789   2.085  0.3705  1.8126  0.9513
   85MOL   H11323801   1.945   0.890   2.305  0.4084  1.3629 -2.0889
   85MOL   C11423802   2.001   0.480   1.826 -0.6653 -0.5111 -0.8437
   85MOL   C11523803   1.916   0.421   1.729  0.5348 -0.3445 -0.0425
   85MOL   C11623804   1.966   0.323   1.637  0.9667  0.4370  0.0772
   85MOL   C11723805   2.106   0.287   1.638 -0.0882 -1.0036 -0.5356
   85MOL   C11823806   2.160   0.189   1.550  0.0075 -0.2865 -0.8519
   85MOL   C11923807   2.219   0.079   1.585 -0.2880 -0.5258 -0.5138
   85MOL   C12023808   2.187   0.334   1.746  0.6617  0.2264  0.3266
   85MOL   C12123809   2.133   0.431   1.830  0.6505 -0.1149 -0.1357
   85MOL   H12223810   1.812   0.451   1.729  0.7135  0.3042 -1.1244
   85MOL   H12323811   1.903   0.274   1.564  0.2605  0.9279  0.3441
   85MOL   H12423812   2.146   0.216   1.446  2.0979 -0.7660 -1.2826
   85MOL   H12523813   2.209   0.054   1.690 -3.6467 -1.7076 -1.0519
   85MOL   H12623814   2.292   0.311   1.745  1.1117  2.2336 -0.7610
   85MOL   H12723815   2.196   0.492   1.894 -1.0011  1.2412  0.2286
   85MOL   C12823816   2.305   0.002   1.497 -0.5194 -0.4573  0.6546
   85MOL   C12923817   2.361   0.048   1.380  0.4087 -0.7703 -0.4028
   85MOL   C13023818   2.436   8.113   1.288 -0.3945  0.8224 -1.1131
   85MOL   C13123819   2.469   7.985   1.333 -0.3882  0.1907 -0.0663
   85MOL   C13223820   2.558   7.894   1.249 -0.0297  0.4399  0.4096
   85MOL   C13323821   2.643   7.927   1.145  0.1928  0.3808 -0.6473
   85MOL   C13423822   2.417   7.928   1.448  0.2516 -0.9457 -0.4082
   85MOL   C13523823   2.334   8.008   1.533 -0.8716 -0.5736 -0.6153
   85MOL   H13623824   2.340   0.151   1.352 -1.5383 -0.8541  0.6722
   85MOL   H13723825   2.464   0.003   1.190  1.4428  0.1072 -0.8665
   85MOL   H13823826   2.549   7.793   1.286  0.8738  0.5050  0.8198
   85MOL   H13923827   2.637   8.030   1.114  1.3225  1.0875  1.3640
   85MOL   H14023828   2.444   7.827   1.478  2.4235 -0.5749 -1.0315
   85MOL   H14123829   2.280   7.970   1.618  0.3038  1.0279  0.8525
   85MOL   C14223830   2.749   7.840   1.086  0.0512 -0.4252  0.3413
   85MOL   C14323831   2.823   7.890   0.981  0.3825  1.1703  0.5877
   85MOL   C14423832   2.936   7.821   0.936 -0.1998 -0.0700 -0.1007
   85MOL   C14523833   2.976   7.698   0.991 -0.1171 -0.2224  0.3758
   85MOL   C14623834   3.087   7.627   0.930 -0.2920 -0.2725  0.6781
   85MOL   C14723835   3.106   7.493   0.940 -0.2602 -0.2245  0.1931
   85MOL   C14823836   2.903   7.648   1.097  1.1268  0.3731 -0.1855
   85MOL   C14923837   2.784   7.718   1.145 -0.6576  0.0041  0.4015
   85MOL   H15023838   2.787   7.981   0.935 -1.8654 -0.2102 -0.5148
   85MOL   H15123839   2.999   7.858   0.856 -2.2688 -0.5121 -1.9753
   85MOL   H15223840   3.158   7.690   0.879  1.1166 -0.4536  2.3851
   85MOL   H15323841   3.037   7.437   1.001  1.4113  0.4117  2.7631
   85MOL   H15423842   2.937   7.558   1.145 -0.8139  0.8242  2.1778
   85MOL   H15523843   2.737   7.670   1.230 -0.3310 -1.8424 -0.4196
   85MOL   C15623844   3.215   7.412   0.877  0.2632  0.5058  0.1775
   85MOL   C15723845   3.283   7.455   0.765 -0.1332  0.0100 -0.6238
   85MOL   C15823846   3.411   7.386   0.727  0.2810 -0.2463  0.3785
   85MOL   C15923847   3.455   7.268   0.790  0.3089 -0.1984  0.3268
   85MOL   C16023848   3.576   7.205   0.747 -0.2075  0.1373  0.0762
   85MOL   C16123849   3.604   7.077   0.766 -0.3958  0.6490  0.3393
   85MOL   C16223850   3.372   7.227   0.900 -0.3999 -0.1845  0.4810
   85MOL   C16323851   3.260   7.299   0.948 -0.0102 -0.2974  0.0073
   85MOL   H16423852   3.241   7.541   0.714  0.9676  0.6928 -0.4089
   85MOL   H16523853   3.464   7.439   0.648 -0.5254 -0.7366 -0.5043
   85MOL   H16623854   3.641   7.280   0.704  0.4386 -0.8015 -0.6038
   85MOL   H16723855   3.528   7.014   0.809  1.7244 -1.6522  0.8044
   85MOL   H16823856   3.396   7.132   0.946 -0.1997 -0.6993 -0.6390
   85MOL   H16923857   3.222   7.262   1.042  0.1501  2.2971  1.1514
   85MOL   C17023858   3.731   7.007   0.743 -1.2305  0.4020  0.3325
   85MOL   C17123859   3.853   7.080   0.745 -0.0984 -0.7504  0.0008
   85MOL   C17223860   3.975   7.014   0.724 -0.1631 -0.0639 -0.0773
   85MOL   C17323861   3.978   6.877   0.701  0.1738 -0.4376 -0.7114
   85MOL   C17423862   4.109   6.810   0.670 -0.6958 -0.4319 -0.2498
   85MOL   C17523863   4.128   6.689   0.601  0.1503  0.7519  0.4083
   85MOL   C17623864   3.855   6.803   0.691  0.5845  0.1133 -0.7479
   85MOL   C17723865   3.734   6.873   0.709 -0.2648  0.2127 -0.0696
   85MOL   H17823866   3.860   7.187   0.754  2.9780 -0.9739  0.7797
   85MOL   H17923867   4.066   7.071   0.720 -1.9407  2.7506 -2.5910
   85MOL   H18023868   4.193   6.862   0.712 -0.9752  0.2942 -0.5854
   85MOL   H18123869   4.040   6.644   0.559  0.9905 -0.4779 -0.0791
   85MOL   H18223870   3.850   6.697   0.671 -0.1179 -0.5920  2.7754
   85MOL   H18323871   3.647   6.809   0.707  0.9180 -1.3990 -2.2872
   85MOL   C18423872   4.260   6.633   0.564  0.1155  0.7548 -0.2527
   85MOL   C18523873   4.270   6.496   0.542  0.4040  0.0548 -0.4062
   85MOL   C18623874   4.395   6.437   0.513 -0.2092  0.3799  0.1042
   85MOL   C18723875   4.505   6.514   0.486  0.0369 -0.2039  0.1554
   85MOL   C18823876   4.629   6.440   0.450 -0.0850 -0.3391  0.7878
   85MOL   C18923877   4.657   6.312   0.469 -0.7741 -0.2542 -0.1934
   85MOL   C19023878   4.494   6.654   0.506 -0.2402 -0.7910 -0.0072
   85MOL   C19123879   4.375   6.711   0.548 -0.0973 -0.1864  0.1534
   85MOL   H19223880   4.176   6.442   0.544 -0.6262  1.8182 -0.5055
   85MOL   H19323881   4.387   6.330   0.498 -2.8162  0.8032 -1.9945
   85MOL   H19423882   4.703   6.498   0.398 -1.9971 -0.8997 -2.6984
   85MOL   H19523883   4.582   6.249   0.514  0.0322 -0.3470  1.0349
   85MOL   H19623884   4.580   6.716   0.486 -1.4875  0.9123 -0.1758
   85MOL   H19723885   4.380   6.817   0.567  0.9930 -0.0848 -0.6155
   85MOL   C19823886   4.787   6.246   0.430  0.5120  0.5998 -0.0996
   85MOL   C19923887   4.898   6.310   0.374  0.1428 -0.0094  0.7836
   85MOL   C20023888   5.012   6.239   0.331 -0.3057  0.7085 -0.1638
   85MOL   C20123889   5.009   6.096   0.322 -0.1150  1.0910  0.4466
   85MOL   C20223890   5.133   6.032   0.270  0.6057  0.1875 -0.1401
   85MOL   C20323891   5.172   5.905   0.292  0.4158 -0.4712 -0.4221
   85MOL   C20423892   4.898   6.032   0.375 -0.3131  0.4254  0.1470
   85MOL   C20523893   4.787   6.106   0.431 -0.2110 -0.2578 -0.2953
   85MOL   H20623894   4.897   6.417   0.388 -1.6685 -0.0897  1.5159
   85MOL   H20723895   5.098   6.298   0.302 -0.4854  1.6415  1.1297
   85MOL   H20823896   5.193   6.098   0.210  1.3030 -3.1629 -3.2886
   85MOL   H20923897   5.116   5.836   0.354  0.0580 -1.2004 -1.5427
   85MOL   H21023898   4.895   5.924   0.369 -2.4129  0.6002 -3.2140
   85MOL   H21123899   4.690   6.061   0.444 -1.2012  1.9873  0.2987
   85MOL   C21223900   5.290   5.840   0.245 -0.1258 -0.3344 -0.8775
   85MOL   C21323901   5.364   5.915   0.152 -0.4716  0.9388 -0.5514
   85MOL   C21423902   5.476   5.847   0.096 -0.7115 -0.7130  0.4131
   85MOL   C21523903   5.522   5.719   0.139  0.0754  0.0011  0.4019
   85MOL   C21623904   5.659   5.677   0.084 -0.4329 -0.2655 -0.2378
   85MOL   C21723905   5.722   5.561   0.101 -0.1915 -0.2217 -1.0998
   85MOL   C21823906   5.440   5.651   0.231 -0.1672 -0.0010 -0.3688
   85MOL   C21923907   5.327   5.711   0.287 -0.5737 -0.1521 -0.2581
   85MOL   H22023908   5.359   6.016   0.116 -0.9982  0.4386 -1.9153
   85MOL   H22123909   5.539   5.898   0.025  0.3872 -1.7523  0.6280
   85MOL   H22223910   5.711   5.748   0.022 -1.4851  1.0305  0.3290
   85MOL   H22323911   5.659   5.490   0.151  1.1449  0.3771  1.5204
   85MOL   H22423912   5.462   5.553   0.271  0.7886  0.3487 -0.0335
   85MOL   H22523913   5.257   5.656   0.347  0.7427 -3.0135 -1.2745
   85MOL   C22623914   5.853   5.520   0.050 -0.7319  0.1792 -0.3233
   85MOL   C22723915   5.903   5.395   0.088  0.3796 -0.1889 -0.2812
   85MOL   C22823916   6.036   5.372   0.055 -0.1978  0.2624 -0.1516
   85MOL   C22923917   6.120   5.460   8.125  0.5934  0.2751 -0.3266
   85MOL   C23023918   6.248   5.439   8.074  0.2773 -0.1951 -0.5788
   85MOL   C23123919   6.320   5.326   8.099 -0.0589 -0.2170 -0.1693
   85MOL   C23223920   6.066   5.586   8.107  0.4638 -0.3667 -0.5312
   85MOL   C23323921   5.933   5.616   8.129 -0.1301  0.1108  0.2215
   85MOL   H23423922   5.836   5.325   0.136 -1.2441  1.3621 -0.2409
   85MOL   H23523923   6.084   5.277   0.076  0.3398 -0.1431 -2.9289
   85MOL   H23623924   6.291   5.526   8.025  0.7076 -0.8684 -1.3953
   85MOL   H23723925   6.284   5.237   0.005 -2.1614 -1.2648 -3.3858
   85MOL   H23823926   6.121   5.661   8.053 -0.1326 -2.4943 -4.3052
   85MOL   H23923927   5.897   5.714   8.102  0.2533  0.4914  1.0692
   85MOL   C24023928   6.462   5.306   8.066  0.9649 -0.5887  0.3478
   85MOL   C24123929   6.522   5.179   8.047  0.4079  0.8044  0.1254
   85MOL   C24223930   6.657   5.165   8.011 -0.0919  0.0228 -0.4041
   85MOL   C24323931   6.743   5.276   7.988 -1.2550  0.9777 -0.1028
   85MOL   C24423932   6.881   5.256   7.949 -0.8486  0.3114 -0.5107
   85MOL   C24523933   6.965   5.353   7.898  1.3201  0.0527  0.4812
   85MOL   C24623934   6.687   5.403   8.006 -0.1298 -0.1155 -0.1493
   85MOL   C24723935   6.550   5.415   8.030 -0.1750 -0.5713 -0.0342
   85MOL   H24823936   6.459   5.092   8.056  3.5512 -1.4009  1.6616
   85MOL   H24923937   6.695   5.064   8.007  1.2734  0.4511  1.2410
   85MOL   H25023938   6.927   5.158   7.956  0.6867  1.1790  2.1536
   85MOL   H25123939   6.910   5.445   7.882 -0.4260 -1.0458  0.0937
   85MOL   H25223940   6.740   5.496   7.993 -3.0176  1.3468 -1.7637
   85MOL   H25323941   6.503   5.511   8.045  2.4100  0.5414  1.1176
   85MOL   C25423942   7.104   5.353   7.858 -0.1397 -0.1939 -0.5523
   85MOL   C25523943   7.149   5.446   7.762  0.0458  0.1990 -0.3085
   85MOL   C25623944   7.286   5.438   7.721  0.9661 -0.2618 -0.2857
   85MOL   C25723945   7.372   5.344   7.768 -0.1241 -0.5941  0.4236
   85MOL   C25823946   7.498   5.323   7.701  1.0147  0.2339 -0.3224
   85MOL   C25923947   7.529   5.331   7.573  0.0293 -0.4150  0.3454
   85MOL   C26023948   7.325   5.251   7.856 -0.2294 -0.5048 -0.1425
   85MOL   C26123949   7.194   5.253   7.900 -0.2772  0.9586 -0.7149
   85MOL   H26223950   7.079   5.518   7.723 -0.6545 -0.7147 -0.7749
   85MOL   H26323951   7.309   5.513   7.647  0.5758  0.0903 -0.0542
   85MOL   H26423952   7.569   5.284   7.772 -0.4082 -0.7507  0.5925
   85MOL   H26523953   7.629   5.300   7.550  0.6111  0.0702  2.0990
   85MOL   H26623954   7.386   5.167   7.886 -0.1679 -0.0525  1.0090
   85MOL   H26723955   7.147   5.178   7.962  2.0518 -0.1127 -0.2248
   85MOL   C26823956   7.447   5.363   7.457 -0.7287  0.6305  0.2781
   85MOL   C26923957   7.485   5.457   7.360 -0.3311  0.3426 -0.6758
   85MOL   C27023958   7.406   5.477   7.240  0.3526  0.5946 -0.6399
   85MOL   C27123959   7.293   5.397   7.214 -0.9816  0.8470  0.9290
   85MOL   C27223960   7.223   5.403   7.082 -0.0791 -0.2443  0.7521
   85MOL   C27323961   7.122   5.322   7.045  0.9572 -0.2546 -0.1064
   85MOL   C27423962   7.255   5.306   7.313  0.7090 -0.1783 -0.2488
   85MOL   C27523963   7.330   5.286   7.429  0.3501 -0.0660  1.2568
   85MOL   H27623964   7.576   5.511   7.381  0.1782 -1.2476  1.3534
   85MOL   H27723965   7.438   5.556   7.174  2.0881  1.1022  0.7723
   85MOL   H27823966   7.250   5.484   7.015 -1.6706 -0.5987 -0.3460
   85MOL   H27923967   7.085   5.240   7.105  0.7263 -0.1945 -0.1667
   85MOL   H28023968   7.171   5.240   7.300 -0.1016 -0.2315  4.4257
   85MOL   H28123969   7.294   5.208   7.495 -0.6941 -0.9867 -0.3728
   85MOL   H28223970   7.073   5.336   6.949 -0.1843  0.4030  0.5594
   86MOL     C123971   2.949   7.271   7.626 -0.0105  0.0236 -0.6786
   86MOL     C223972   3.051   7.356   7.665  0.4797  0.1878 -0.0653
   86MOL     C323973   3.173   7.346   7.595  0.9375 -0.1033 -0.2328
   86MOL     C423974   3.202   7.237   7.512  0.0006  0.0108 -0.2066
   86MOL     C523975   3.329   7.218   7.453 -0.6772  0.3625  0.1462
   86MOL     C623976   3.430   7.309   7.445 -0.4697  0.0723 -0.0851
   86MOL     C723977   3.101   7.138   7.491 -0.3097  0.5681  0.1636
   86MOL     C823978   2.976   7.159   7.549 -0.3993  0.3112  0.1817
   86MOL     H923979   3.026   7.433   7.736 -2.7321  1.4896 -2.4670
   86MOL    H1023980   3.252   7.415   7.618  3.2868 -2.6419 -0.3986
   86MOL    H1123981   3.338   7.123   7.404 -1.4659 -0.4156  1.4689
   86MOL    H1223982   3.426   7.408   7.487  0.4665  0.0660  0.0282
   86MOL    H1323983   3.123   7.050   7.433 -0.9847  0.7102 -0.3032
   86MOL    H1423984   2.893   7.094   7.525 -1.7396  1.7506  0.8051
   86MOL    H1523985   2.851   7.288   7.669 -0.2285  0.3882 -1.3117
   86MOL    C1623986   3.556   7.282   7.373  0.2612 -0.1802 -0.2236
   86MOL    C1723987   3.598   7.154   7.330 -0.6285 -0.6265 -0.5598
   86MOL    C1823988   3.718   7.145   7.255 -0.1038  0.4046 -0.5850
   86MOL    C1923989   3.804   7.260   7.233 -0.2263  0.1392 -0.0988
   86MOL    C2023990   3.937   7.241   7.173 -0.5631  0.1269 -0.0503
   86MOL    C2123991   4.024   7.339   7.137 -0.4054  0.2271 -0.3845
   86MOL    C2223992   3.756   7.383   7.271  1.0045 -0.2604 -0.6839
   86MOL    C2323993   3.630   7.395   7.340  0.8895  0.0842  0.1408
   86MOL    H2423994   3.549   7.058   7.339  0.7003 -1.4804 -2.1489
   86MOL    H2523995   3.758   7.052   7.218 -1.3063  0.0026 -0.8855
   86MOL    H2623996   3.959   7.136   7.163 -0.4846  0.0344  0.9979
   86MOL    H2723997   3.996   7.443   7.145  0.5739  0.3853  1.3019
   86MOL    H2823998   3.813   7.474   7.273  0.3284  0.1492  0.3813
   86MOL    H2923999   3.590   7.491   7.369 -0.4110  0.1345 -1.7354
   86MOL    C3024000   4.158   7.329   7.078  0.5456 -0.0924  0.2377
   86MOL    C3124001   4.212   7.200   7.049  0.0188 -0.2978 -0.7484
   86MOL    C3224002   4.336   7.180   6.996 -0.0258 -0.4090  0.3340
   86MOL    C3324003   4.414   7.289   6.959 -0.2453 -0.6363 -0.0573
   86MOL    C3424004   4.551   7.265   6.912  0.1062 -0.5570 -0.9972
   86MOL    C3524005   4.634   7.181   6.975  0.0165 -0.1314  0.5686
   86MOL    C3624006   4.361   7.417   6.984 -0.3705  0.0708  0.8886
   86MOL    C3724007   4.236   7.442   7.040  0.6477 -0.2614 -0.0482
   86MOL    H3824008   4.154   7.111   7.073 -0.3869 -0.2880 -1.6616
   86MOL    H3924009   4.370   7.077   6.992  1.6162  0.0593  1.6787
   86MOL    H4024010   4.579   7.311   6.818 -1.2458  2.8079  0.1559
   86MOL    H4124011   4.598   7.137   7.067 -1.4354 -0.6078 -0.2135
   86MOL    H4224012   4.443   7.485   6.965 -1.4912  1.1958 -0.0450
   86MOL    H4324013   4.209   7.544   7.064  0.4787 -0.3372  0.0955
   86MOL    C4424014   4.771   7.142   6.939  0.5584 -0.6211  0.4170
   86MOL    C4524015   4.827   7.174   6.817  0.0408 -0.2969 -0.7573
   86MOL    C4624016   4.958   7.137   6.782 -0.2266  0.8101 -0.1426
   86MOL    C4724017   5.042   7.071   6.880  0.2960 -0.0159 -0.4800
   86MOL    C4824018   5.185   7.044   6.842  0.0221 -0.0205  0.3923
   86MOL    C4924019   5.265   6.964   6.921  0.6883 -0.0144  0.0101
   86MOL    C5024020   4.988   7.046   7.007  0.3995  0.5489 -0.1218
   86MOL    C5124021   4.854   7.086   7.035  0.0385  0.8349  0.1664
   86MOL    H5224022   4.772   7.233   6.745  0.0491 -1.8224 -2.0294
   86MOL    H5324023   4.986   7.165   6.682  1.5189  1.7313  0.5857
   86MOL    H5424024   5.228   7.084   6.751  0.5167  1.3657  1.2148
   86MOL    H5524025   5.219   6.924   7.010 -1.0640  0.9431 -0.4354
   86MOL    H5624026   5.033   6.983   7.081 -0.3344  4.3304  3.7170
   86MOL    H5724027   4.808   7.068   7.131  0.1127  0.6732  0.1718
   86MOL    C5824028   5.396   6.918   6.895  0.6300 -0.1526  0.1229
   86MOL    C5924029   5.456   6.938   6.768 -0.4515  0.0716 -0.4742
   86MOL    C6024030   5.595   6.903   6.745  0.0276 -0.7148  0.4311
   86MOL    C6124031   5.673   6.866   6.856 -0.5846 -1.3017 -0.2541
   86MOL    C6224032   5.813   6.820   6.831 -0.6348  0.4978 -0.3679
   86MOL    C6324033   5.874   6.802   6.709  0.3771  0.1952 -0.8068
   86MOL    C6424034   5.615   6.855   6.986 -0.1578  0.1870  0.5728
   86MOL    C6524035   5.478   6.879   7.006 -0.2274  0.0604  0.4590
   86MOL    H6624036   5.395   6.973   6.686 -3.5047  0.9038  2.0484
   86MOL    H6724037   5.644   6.910   6.649  0.1091 -0.7896  0.4678
   86MOL    H6824038   5.876   6.796   6.915 -0.4394 -2.0957 -1.2306
   86MOL    H6924039   5.827   6.810   6.612 -0.2698 -2.1235 -0.6996
   86MOL    H7024040   5.676   6.838   7.074  2.8688  0.0920 -1.4467
   86MOL    H7124041   5.446   6.861   7.107 -1.4372  0.7756  0.2105
   86MOL    C7224042   6.017   6.770   6.702  0.0259  0.5882 -0.5908
   86MOL    C7324043   6.063   6.711   6.580 -0.2013 -0.4490 -0.2416
   86MOL    C7424044   6.194   6.660   6.562  0.0639 -0.8681  0.0637
   86MOL    C7524045   6.286   6.678   6.664 -0.1241 -0.7407 -0.7020
   86MOL    C7624046   6.416   6.601   6.656 -0.3055  0.0905 -0.9056
   86MOL    C7724047   6.511   6.583   6.755 -0.2871 -0.0102  0.3100
   86MOL    C7824048   6.249   6.750   6.780 -0.3199 -0.0388 -0.2057
   86MOL    C7924049   6.114   6.788   6.800 -0.6682  0.4131  0.7098
   86MOL    H8024050   5.988   6.678   6.511 -1.4892 -0.2763  1.0552
   86MOL    H8124051   6.227   6.599   6.480  0.2555 -0.7632  0.0624
   86MOL    H8224052   6.431   6.551   6.561 -0.4187 -0.8033 -0.4535
   86MOL    H8324053   6.486   6.626   6.851  0.1642  0.0936  0.3792
   86MOL    H8424054   6.319   6.769   6.861 -0.1209  2.8419 -0.9751
   86MOL    H8524055   6.087   6.836   6.893  1.0282  2.2430  0.3000
   86MOL    C8624056   6.637   6.512   6.736 -0.1177 -0.4209 -0.5086
   86MOL    C8724057   6.701   6.476   6.612  0.3318  0.0192  0.0504
   86MOL    C8824058   6.814   6.393   6.608 -0.2187  0.0315  0.2511
   86MOL    C8924059   6.861   6.334   6.727  0.3104  0.5872 -0.7909
   86MOL    C9024060   6.960   6.228   6.711 -0.2938 -0.2971  0.3917
   86MOL    C9124061   7.027   6.170   6.809 -0.3901 -0.0515  0.2693
   86MOL    C9224062   6.803   6.370   6.853  0.0244  0.5508  0.5610
   86MOL    C9324063   6.691   6.454   6.853 -0.0883 -0.0039 -0.2916
   86MOL    H9424064   6.665   6.516   6.518 -1.5922 -1.2520  0.2311
   86MOL    H9524065   6.861   6.371   6.513  0.0879 -1.7562  0.7836
   86MOL    H9624066   6.965   6.205   6.606 -3.8953  0.3229  0.0188
   86MOL    H9724067   7.013   6.208   6.909 -0.3711  0.6920 -0.0034
   86MOL    H9824068   6.831   6.325   6.947 -2.8613  1.0598  1.7184
   86MOL    H9924069   6.656   6.478   6.952 -1.7769 -0.8812 -0.6548
   86MOL   C10024070   7.118   6.060   6.796  0.3395 -0.4752  0.2656
   86MOL   C10124071   7.164   6.006   6.916  0.5552  0.0717 -0.4721
   86MOL   C10224072   7.238   5.888   6.913 -0.6389 -0.0878  0.5801
   86MOL   C10324073   7.261   5.819   6.791  0.5954 -0.2644 -0.2048
   86MOL   C10424074   7.333   5.688   6.792  0.7844  0.1703  0.4835
   86MOL   C10524075   7.359   5.615   6.684  0.1065 -0.4252 -0.5588
   86MOL   C10624076   7.203   5.864   6.674 -0.2733 -0.7651 -0.2499
   86MOL   C10724077   7.138   5.990   6.673 -0.4787  0.1581 -0.5703
   86MOL   H10824078   7.137   6.061   7.005  0.5151 -0.4754 -0.1454
   86MOL   H10924079   7.286   5.853   7.003 -0.4373  1.7807  1.2221
   86MOL   H11024080   7.369   5.650   6.887  3.8611  0.7726 -0.3787
   86MOL   H11124081   7.338   5.655   6.586 -0.5147  0.8252  0.0741
   86MOL   H11224082   7.208   5.818   6.576 -1.5621  2.5221 -1.9304
   86MOL   H11324083   7.087   6.027   6.585  0.5810 -2.3660 -2.2945
   86MOL   C11424084   7.413   5.482   6.676  0.3267  0.5123  0.1468
   86MOL   C11524085   7.460   5.415   6.789 -0.2027 -0.3448  0.1839
   86MOL   C11624086   7.476   5.276   6.799 -0.2781 -0.0133 -0.0295
   86MOL   C11724087   7.448   5.195   6.687  0.6631  0.1747  0.3218
   86MOL   C11824088   7.447   5.048   6.701  1.0001 -0.0758  0.6255
   86MOL   C11924089   7.444   4.958   6.600  0.2076  0.6053  0.2400
   86MOL   C12024090   7.420   5.264   6.561  0.1699  0.0037 -0.6144
   86MOL   C12124091   7.398   5.405   6.556  0.0334  0.6740  0.1343
   86MOL   H12224092   7.477   5.472   6.879 -0.9587 -0.8789  0.6672
   86MOL   H12324093   7.507   5.237   6.895 -2.5598 -0.7377  0.4457
   86MOL   H12424094   7.439   5.011   6.803 -0.0906  1.2339  1.0292
   86MOL   H12524095   7.452   4.984   6.496  1.2730  2.7704  0.8444
   86MOL   H12624096   7.403   5.201   6.475 -1.9285 -2.6452  1.6652
   86MOL   H12724097   7.386   5.443   6.456  1.0464 -1.0096 -0.6333
   86MOL   C12824098   7.422   4.814   6.621 -0.3370  0.3624  0.1219
   86MOL   C12924099   7.389   4.760   6.753 -0.3254  0.0392  0.8831
   86MOL   C13024100   7.364   4.625   6.767 -0.3314 -0.2425 -0.1128
   86MOL   C13124101   7.375   4.536   6.656  0.2384 -0.1810  0.2406
   86MOL   C13224102   7.324   4.396   6.673  0.3541  0.2024  0.2166
   86MOL   C13324103   7.316   4.306   6.571  0.2543 -0.4256  0.2530
   86MOL   C13424104   7.411   4.592   6.533 -0.7153 -0.1782 -0.7581
   86MOL   C13524105   7.435   4.729   6.513 -0.2731  0.2027 -0.0673
   86MOL   H13624106   7.390   4.819   6.844  2.5485  0.6049  0.5521
   86MOL   H13724107   7.343   4.581   6.863 -1.3814 -1.8392 -1.0479
   86MOL   H13824108   7.288   4.368   6.771 -0.4630 -0.6490 -0.3089
   86MOL   H13924109   7.356   4.326   6.472 -0.1228 -0.5507  0.0747
   86MOL   H14024110   7.414   4.525   6.449 -0.9469 -1.2821  0.0909
   86MOL   H14124111   7.448   4.777   6.417  1.9201  1.1071  0.6548
   86MOL   C14224112   7.245   4.181   6.582  0.1992 -0.2711 -0.1689
   86MOL   C14324113   7.273   4.074   6.500  0.1338  0.2645  0.6385
   86MOL   C14424114   7.203   3.953   6.507 -0.0822  0.3622 -0.1687
   86MOL   C14524115   7.085   3.944   6.586 -0.4137  0.2693 -0.3932
   86MOL   C14624116   6.990   3.833   6.576 -0.5462 -0.9360  0.2530
   86MOL   C14724117   6.861   3.834   6.622  0.1384  0.3650 -0.1671
   86MOL   C14824118   7.062   4.047   6.679  0.7415  0.1671  0.9607
   86MOL   C14924119   7.139   4.163   6.674  0.4847 -0.2303 -0.1100
   86MOL   H15024120   7.354   4.087   6.430 -1.6754  0.1729 -1.4970
   86MOL   H15124121   7.223   3.877   6.434 -0.4861  0.4820 -0.4102
   86MOL   H15224122   7.033   3.745   6.531  1.5285 -0.2775  0.8940
   86MOL   H15324123   6.820   3.924   6.665 -0.5351  0.2906 -0.6543
   86MOL   H15424124   6.990   4.049   6.759 -0.0123 -2.7391  0.4180
   86MOL   H15524125   7.117   4.242   6.744  0.0903 -0.6415  0.2303
   86MOL   C15624126   6.761   3.726   6.615 -0.2222  0.6311  0.1326
   86MOL   C15724127   6.637   3.755   6.677 -0.0951  0.3846 -0.3593
   86MOL   C15824128   6.535   3.655   6.669  0.2385 -0.0310  0.1356
   86MOL   C15924129   6.559   3.542   6.591  1.4480 -0.0750  0.2929
   86MOL   C16024130   6.448   3.452   6.570  0.2900 -0.5458  0.4067
   86MOL   C16124131   6.372   3.396   6.664  0.0306 -0.1259  0.6686
   86MOL   C16224132   6.685   3.510   6.539 -0.2063  0.4856 -0.1669
   86MOL   C16324133   6.788   3.604   6.546  0.1512  0.8211 -0.7277
   86MOL   H16424134   6.635   3.843   6.740  2.3288  0.1993  0.0348
   86MOL   H16524135   6.444   3.675   6.724  0.6623  1.3325  0.3576
   86MOL   H16624136   6.430   3.422   6.468 -0.1638 -1.2756  0.6945
   86MOL   H16724137   6.385   3.438   6.763 -0.8960  0.1446  0.6900
   86MOL   H16824138   6.689   3.413   6.491  1.7591  0.8315 -0.7262
   86MOL   H16924139   6.892   3.584   6.522 -0.0334 -1.2037  0.1164
   86MOL   C17024140   6.254   3.311   6.652  0.0995 -0.1433  0.3429
   86MOL   C17124141   6.210   3.284   6.519 -0.2141 -0.3510  0.0877
   86MOL   C17224142   6.094   3.210   6.493  0.3983 -0.1041  0.1959
   86MOL   C17324143   6.022   3.152   6.602 -0.7301 -0.2994  0.2548
   86MOL   C17424144   5.903   3.072   6.592 -0.0468  0.5264  0.1991
   86MOL   C17524145   5.829   3.045   6.488  0.2468  0.2502  0.0151
   86MOL   C17624146   6.076   3.171   6.730  0.1857  0.0882 -0.1318
   86MOL   C17724147   6.186   3.259   6.755 -0.2418  0.3780 -0.4010
   86MOL   H17824148   6.260   3.321   6.431  2.5469 -2.3764  0.7423
   86MOL   H17924149   6.066   3.195   6.389 -0.3610 -0.2235  0.4117
   86MOL   H18024150   5.871   3.033   6.687  0.7114 -0.4250  0.0712
   86MOL   H18124151   5.862   3.095   6.399  0.5617  1.7968  0.9779
   86MOL   H18224152   6.025   3.135   6.818  0.3471 -0.6943 -0.3515
   86MOL   H18324153   6.218   3.281   6.856  0.2930 -0.7557 -0.3157
   86MOL   C18424154   5.697   2.978   6.481  0.2356  0.3326  0.0697
   86MOL   C18524155   5.640   2.960   6.353 -0.5776  0.2159 -0.2121
   86MOL   C18624156   5.509   2.897   6.345  0.1839  0.6622 -0.8290
   86MOL   C18724157   5.441   2.854   6.464 -0.3339  0.9279  0.8296
   86MOL   C18824158   5.306   2.787   6.466 -0.3546  0.6094  0.4036
   86MOL   C18924159   5.232   2.753   6.355  0.5705 -0.2611  0.7036
   86MOL   C19024160   5.505   2.874   6.586 -0.2329 -0.3883 -0.3972
   86MOL   C19124161   5.629   2.939   6.595 -0.2925 -0.3974 -0.2732
   86MOL   H19224162   5.704   2.992   6.272 -1.2564 -1.3144 -1.3652
   86MOL   H19324163   5.466   2.859   6.253  0.0595 -1.2770  0.0014
   86MOL   H19424164   5.266   2.765   6.564 -2.8132 -1.1156 -0.9059
   86MOL   H19524165   5.269   2.766   6.254  0.0864  2.5813  0.8426
   86MOL   H19624166   5.454   2.860   6.680  1.3763 -0.7026  0.4437
   86MOL   H19724167   5.670   2.968   6.691 -0.9823  1.3478 -0.4841
   86MOL   C19824168   5.097   2.691   6.364 -0.0398 -0.0717 -0.1802
   86MOL   C19924169   5.010   2.694   6.256 -0.1577  0.0025 -0.1008
   86MOL   C20024170   4.882   2.638   6.257 -0.9396  0.7770 -0.1558
   86MOL   C20124171   4.838   2.568   6.374 -0.3931 -1.0193  0.6003
   86MOL   C20224172   4.709   2.502   6.395  0.5775 -0.2949  0.0842
   86MOL   C20324173   4.611   2.486   6.299 -0.1596 -0.0656  0.7723
   86MOL   C20424174   4.927   2.568   6.484 -0.5041  0.2570  0.5709
   86MOL   C20524175   5.055   2.629   6.485 -0.5895  0.4573  0.3868
   86MOL   H20624176   5.040   2.737   6.162 -2.0345  3.1031  0.6485
   86MOL   H20724177   4.822   2.647   6.167  0.4756  2.5461 -0.9748
   86MOL   H20824178   4.689   2.458   6.491  0.2648 -1.9884 -0.7414
   86MOL   H20924179   4.622   2.526   6.200  0.7701 -0.1217  0.8525
   86MOL   H21024180   4.901   2.529   6.581  2.1897 -1.0148  0.8008
   86MOL   H21124181   5.104   2.635   6.581 -0.3728  1.6532  0.2109
   86MOL   C21224182   4.485   2.428   6.332 -0.0566 -0.4436  0.6385
   86MOL   C21324183   4.399   2.387   6.229  0.1862 -0.2287  0.7180
   86MOL   C21424184   4.272   2.331   6.255  0.7803  0.4711  0.2252
   86MOL   C21524185   4.221   2.313   6.385 -0.2454  0.1786 -0.6542
   86MOL   C21624186   4.079   2.274   6.406 -1.2729 -0.0092  0.0529
   86MOL   C21724187   4.011   2.304   6.518 -0.9532 -0.0394 -0.2452
   86MOL   C21824188   4.311   2.357   6.488  0.0547 -0.3272  0.2011
   86MOL   C21924189   4.436   2.417   6.462 -0.3606  0.1818 -0.2252
   86MOL   H22024190   4.430   2.405   6.127 -1.2986  0.2566  0.3361
   86MOL   H22124191   4.201   2.298   6.181 -2.2256 -1.1595  3.6892
   86MOL   H22224192   4.028   2.216   6.331 -0.8494 -0.8377  0.3984
   86MOL   H22324193   4.056   2.352   6.604  0.4483  0.2718 -1.1269
   86MOL   H22424194   4.277   2.337   6.588  1.6587 -0.9969  0.6273
   86MOL   H22524195   4.491   2.437   6.552 -1.9166 -1.9706  1.2704
   86MOL   C22624196   3.874   2.264   6.542 -0.4838 -0.2351 -0.3065
   86MOL   C22724197   3.791   2.355   6.620  0.7546 -0.1386  0.2400
   86MOL   C22824198   3.652   2.316   6.660 -0.6804  0.8711  0.3253
   86MOL   C22924199   3.602   2.185   6.618 -0.6293 -0.0791 -0.4973
   86MOL   C23024200   3.478   2.121   6.681  0.4936 -0.4988  0.1762
   86MOL   C23124201   3.410   2.176   6.783  0.5615 -0.3476  0.3632
   86MOL   C23224202   3.686   2.109   6.537 -1.2481 -1.0539 -0.3959
   86MOL   C23324203   3.817   2.149   6.492  0.4840 -0.4251  0.0059
   86MOL   H23424204   3.834   2.448   6.653  0.9758 -0.3686  0.6070
   86MOL   H23524205   3.606   2.384   6.731 -1.2150  0.2149  0.6142
   86MOL   H23624206   3.455   2.022   6.644 -1.5421  0.5700 -1.4909
   86MOL   H23724207   3.440   2.278   6.800 -2.7074  1.2092 -2.6536
   86MOL   H23824208   3.662   2.008   6.507 -3.9489 -0.1579 -1.3761
   86MOL   H23924209   3.873   2.079   6.433  1.4257 -1.1388  1.6978
   86MOL   C24024210   3.301   2.123   6.870  0.4706 -0.0680 -0.2164
   86MOL   C24124211   3.222   2.197   6.960 -0.3985 -0.1743 -0.1155
   86MOL   C24224212   3.125   2.140   7.046 -0.2331 -0.0925  0.5820
   86MOL   C24324213   3.099   2.001   7.036  0.3268  0.5228 -0.6083
   86MOL   C24424214   2.998   1.949   7.131  0.1091 -0.5007 -0.1133
   86MOL   C24524215   2.947   1.826   7.134 -0.5784 -0.2513 -0.4986
   86MOL   C24624216   3.168   1.921   6.944 -0.1798  0.2126  0.2800
   86MOL   C24724217   3.269   1.983   6.864  0.3986 -0.1559 -0.3010
   86MOL   H24824218   3.242   2.304   6.965 -1.6732  0.0751 -0.2144
   86MOL   H24924219   3.082   2.208   7.118 -1.6388 -2.0919  1.6964
   86MOL   H25024220   2.968   2.018   7.209 -0.5156 -0.2325 -0.5838
   86MOL   H25124221   2.976   1.766   7.049 -2.1995 -1.5638 -0.1479
   86MOL   H25224222   3.155   1.814   6.937 -1.4063  0.4551 -1.6469
   86MOL   H25324223   3.323   1.914   6.801 -1.9106 -0.4737 -1.9987
   86MOL   C25424224   2.867   1.763   7.235  0.8962  0.2724  0.0773
   86MOL   C25524225   2.795   1.645   7.212 -0.5052  0.3957 -0.0943
   86MOL   C25624226   2.702   1.597   7.308  0.2359  0.5832 -0.4044
   86MOL   C25724227   2.689   1.658   7.434 -0.1963  0.0037  1.2327
   86MOL   C25824228   2.600   1.613   7.535  0.9621  0.5931 -0.2348
   86MOL   C25924229   2.565   1.486   7.564 -0.3966  0.3164  0.4191
   86MOL   C26024230   2.770   1.775   7.458 -0.4340  0.2545 -0.3317
   86MOL   C26124231   2.852   1.830   7.358 -0.6078  0.4181 -0.6836
   86MOL   H26224232   2.806   1.592   7.119 -0.6060  1.2210 -0.5760
   86MOL   H26324233   2.648   1.505   7.291  0.4148  0.5675 -0.8937
   86MOL   H26424234   2.556   1.688   7.598  0.4979  0.0302  0.1159
   86MOL   H26524235   2.491   1.461   7.638 -0.4941  0.5338  0.3921
   86MOL   H26624236   2.771   1.828   7.553 -1.0338 -0.2737 -0.0246
   86MOL   H26724237   2.903   1.920   7.391 -0.6743  0.3530 -0.4000
   86MOL   C26824238   2.619   1.365   7.502  0.4696  0.6581 -0.1417
   86MOL   C26924239   2.521   1.279   7.452  0.0690  0.9539 -0.3332
   86MOL   C27024240   2.559   1.164   7.381  0.1501 -0.3623  0.5214
   86MOL   C27124241   2.695   1.122   7.381  0.7591 -0.2226 -0.5254
   86MOL   C27224242   2.718   0.990   7.323  0.8198  0.1902 -0.8665
   86MOL   C27324243   2.825   0.917   7.365  0.1035  0.0230 -0.4739
   86MOL   C27424244   2.789   1.205   7.438 -0.2063 -0.0639  0.5045
   86MOL   C27524245   2.752   1.330   7.492 -0.9676 -0.4859 -0.1722
   86MOL   H27624246   2.415   1.298   7.464 -0.0189 -0.0067  0.4242
   86MOL   H27724247   2.485   1.094   7.345  1.0308 -0.6360 -0.8027
   86MOL   H27824248   2.644   0.966   7.248 -2.4158 -0.1237  2.2759
   86MOL   H27924249   2.881   0.956   7.448 -1.0514  1.5934 -0.4191
   86MOL   H28024250   2.891   1.171   7.445 -0.3036 -0.2477  1.1414
   86MOL   H28124251   2.834   1.384   7.538 -1.3826 -0.4675  0.5495
   86MOL   H28224252   2.855   0.823   7.321  1.4247  0.5419 -0.6870
   87MOL     C124253   0.940   7.766   7.842 -0.3742 -0.6171 -0.1235
   87MOL     C224254   0.962   7.673   7.733  0.1906 -0.0164 -0.6797
   87MOL     C324255   1.050   7.566   7.762  0.4381  0.3547 -0.0316
   87MOL     C424256   1.108   7.543   7.890 -0.1854  0.4149  0.1413
   87MOL     C524257   1.200   7.430   7.919  0.1711 -0.4676  0.7174
   87MOL     C624258   1.273   7.356   7.834  0.2626  0.5894 -0.1572
   87MOL     C724259   1.082   7.637   7.995 -0.4233 -0.0420  0.1958
   87MOL     C824260   0.996   7.746   7.973  0.2941 -0.4365 -0.4920
   87MOL     H924261   0.919   7.695   7.637 -2.3347  1.2896  0.7040
   87MOL    H1024262   1.069   7.499   7.680  0.0261 -0.4643  0.5419
   87MOL    H1124263   1.215   7.417   8.025 -0.1312 -0.0787  0.8109
   87MOL    H1224264   1.264   7.375   7.728  0.8856  0.4734 -0.2319
   87MOL    H1324265   1.122   7.618   8.094  2.5173  1.1063 -0.7309
   87MOL    H1424266   0.986   7.811   8.059  1.6793 -2.5027  1.3147
   87MOL    H1524267   0.864   7.842   7.833 -0.6808 -0.6644  1.9812
   87MOL    C1624268   1.381   7.260   7.867  0.1392 -0.6603 -0.0254
   87MOL    C1724269   1.397   7.202   7.991 -0.0043  0.0447  0.9653
   87MOL    C1824270   1.506   7.111   8.017  0.3201 -0.2880 -0.5712
   87MOL    C1924271   1.596   7.082   7.913  0.0784  0.6188 -0.1085
   87MOL    C2024272   1.715   6.995   7.919  0.1664  0.3731 -0.3032
   87MOL    C2124273   1.748   6.925   8.031 -0.2615  0.1197 -0.4678
   87MOL    C2224274   1.587   7.156   7.790 -0.4138 -0.3157 -0.7112
   87MOL    C2324275   1.477   7.240   7.767  0.0152 -0.5534  0.3218
   87MOL    H2424276   1.324   7.203   8.070 -1.0367 -1.2891  0.0386
   87MOL    H2524277   1.507   7.062   8.113 -0.6007  3.6946  1.5484
   87MOL    H2624278   1.777   6.989   7.831  2.8293  0.3572  1.5341
   87MOL    H2724279   1.698   6.932   8.127  2.2095 -1.1050  0.9773
   87MOL    H2824280   1.660   7.141   7.711 -0.3920  0.9706 -0.9468
   87MOL    H2924281   1.475   7.289   7.671 -3.0894 -1.7662 -0.2865
   87MOL    C3024282   1.860   6.826   8.043 -0.1167 -0.2479  0.6455
   87MOL    C3124283   1.945   6.777   7.942 -0.1261  0.1425  0.3827
   87MOL    C3224284   2.053   6.696   7.972 -0.2864 -0.1024 -0.2292
   87MOL    C3324285   2.074   6.643   8.103 -0.0213  0.2838  0.7607
   87MOL    C3424286   2.187   6.559   8.137 -0.4349 -0.3875 -0.2072
   87MOL    C3524287   2.284   6.502   8.060 -0.0368  0.3368 -0.1887
   87MOL    C3624288   1.976   6.676   0.055 -0.2713 -0.0622  0.1718
   87MOL    C3724289   1.878   6.772   0.029  0.2271 -1.1574  0.4857
   87MOL    H3824290   1.937   6.819   7.843  1.2892 -0.0220  0.1851
   87MOL    H3924291   2.127   6.672   7.896 -2.4233 -2.2452 -1.6932
   87MOL    H4024292   2.191   6.548   0.100  0.8062 -0.9847 -0.3029
   87MOL    H4124293   2.275   6.522   7.955 -1.1925  3.0776  0.3860
   87MOL    H4224294   1.981   6.633   0.154  1.5669 -0.4564 -0.0685
   87MOL    H4324295   1.824   6.814   0.112 -0.0655 -1.3911  0.4117
   87MOL    C4424296   2.398   6.421   8.108  0.5527  0.2936  0.2924
   87MOL    C4524297   2.500   6.388   8.014 -0.4909 -0.2460  0.0534
   87MOL    C4624298   2.613   6.311   8.057 -0.0128 -0.4981  0.3103
   87MOL    C4724299   2.624   6.269   0.047  0.5353 -0.5842 -0.3656
   87MOL    C4824300   2.748   6.199   0.088 -0.4976  0.5851  0.0483
   87MOL    C4924301   2.775   6.151   0.214  0.8160 -0.5676  1.4636
   87MOL    C5024302   2.523   6.306   0.136  0.1889 -0.8879 -0.0584
   87MOL    C5124303   2.407   6.378   0.097  0.6203  0.2454  0.2267
   87MOL    H5224304   2.502   6.432   7.915  1.0469 -2.0537 -0.7693
   87MOL    H5324305   2.703   6.312   7.998 -0.5042 -2.0300 -0.4905
   87MOL    H5424306   2.824   6.187   0.012 -0.0620  0.0791  0.5520
   87MOL    H5524307   2.703   6.177   0.291 -2.3739  2.9033 -2.4604
   87MOL    H5624308   2.528   6.275   0.240 -0.3719 -2.6139 -0.5192
   87MOL    H5724309   2.330   6.398   0.170  1.8023 -0.4726  1.6931
   87MOL    C5824310   2.889   6.077   0.269  0.1524 -0.7895 -0.3344
   87MOL    C5924311   3.001   6.045   0.190  0.1250 -0.0527 -0.0868
   87MOL    C6024312   3.107   5.967   0.236 -0.8830  0.3127 -0.2992
   87MOL    C6124313   3.095   5.922   0.368  0.6011 -0.5198 -0.5493
   87MOL    C6224314   3.219   5.857   0.420  0.0449 -0.7427 -0.1087
   87MOL    C6324315   3.250   5.820   0.544  0.0469  0.5050 -0.2981
   87MOL    C6424316   2.979   5.940   0.450 -0.8691 -0.1632  0.7849
   87MOL    C6524317   2.876   6.018   0.395  0.3795  0.0248  0.3439
   87MOL    H6624318   3.020   6.095   0.096 -1.5236  0.3975 -0.1989
   87MOL    H6724319   3.193   5.950   0.172 -0.9424 -0.3831 -0.1960
   87MOL    H6824320   3.289   5.840   0.339 -0.3295 -1.5895 -0.2660
   87MOL    H6924321   3.181   5.834   0.626  0.8587 -2.3185  0.9110
   87MOL    H7024322   2.974   5.890   0.546 -1.3752 -1.8855 -0.1243
   87MOL    H7124323   2.784   6.029   0.450 -0.3476  1.2454 -1.0885
   87MOL    C7224324   3.373   5.751   0.573  0.5081 -0.3452  0.2960
   87MOL    C7324325   3.427   5.675   0.469  0.3597 -0.2709  0.6272
   87MOL    C7424326   3.552   5.624   0.477  0.3602  0.0233 -0.3133
   87MOL    C7524327   3.632   5.649   0.588 -0.2372  0.2087 -0.4821
   87MOL    C7624328   3.766   5.594   0.579  0.0113  0.0698 -0.6391
   87MOL    C7724329   3.838   5.557   0.688  0.5317  0.0969 -0.4156
   87MOL    C7824330   3.583   5.720   0.695  0.6608  0.2814 -0.3845
   87MOL    C7924331   3.448   5.768   0.688  0.1971  0.1883  0.2933
   87MOL    H8024332   3.368   5.654   0.381 -0.2618  0.0034  0.9690
   87MOL    H8124333   3.596   5.572   0.392  0.6785 -2.3204  1.2376
   87MOL    H8224334   3.801   5.578   0.479  0.1575 -0.2904 -0.5334
   87MOL    H8324335   3.801   5.571   0.789 -0.6401  2.0112 -1.0748
   87MOL    H8424336   3.635   5.724   0.790  0.7266 -1.2109 -0.3464
   87MOL    H8524337   3.399   5.823   0.766 -1.5402 -1.4542  0.4125
   87MOL    C8624338   3.975   5.515   0.685 -0.0536 -0.5306  0.6930
   87MOL    C8724339   4.051   5.490   0.566 -0.2063 -0.4113  0.0114
   87MOL    C8824340   4.179   5.436   0.564 -0.0673  0.7472  0.1079
   87MOL    C8924341   4.244   5.397   0.683  0.6778  0.3389  0.6904
   87MOL    C9024342   4.375   5.332   0.699  0.0399  0.2331 -0.2412
   87MOL    C9124343   4.444   5.260   0.613 -0.9359  1.0181 -0.4601
   87MOL    C9224344   4.166   5.418   0.800  0.6170 -0.1492 -0.5574
   87MOL    C9324345   4.041   5.484   0.805 -1.3042 -0.2346  0.2086
   87MOL    H9424346   4.011   5.526   0.472  1.8749  0.5907 -0.5165
   87MOL    H9524347   4.233   5.424   0.472 -1.9573 -0.3487 -0.8908
   87MOL    H9624348   4.420   5.343   0.796 -1.1438 -1.0221  0.4489
   87MOL    H9724349   4.400   5.259   0.514 -0.1717 -1.4709 -0.7931
   87MOL    H9824350   4.202   5.382   0.896 -0.8231  2.1201  0.9068
   87MOL    H9924351   3.996   5.499   0.903 -0.1036 -2.4493  1.1326
   87MOL   C10024352   4.564   5.191   0.632  0.1183 -0.3117 -0.4039
   87MOL   C10124353   4.606   5.130   0.752 -0.7971  0.0705 -0.4461
   87MOL   C10224354   4.716   5.046   0.751 -0.5783  0.1666  0.4814
   87MOL   C10324355   4.793   5.025   0.631 -0.0398  0.0924  0.4941
   87MOL   C10424356   4.910   4.935   0.632  0.1335 -1.0358 -0.5396
   87MOL   C10524357   4.939   4.841   0.722  0.6101 -0.0673 -0.0502
   87MOL   C10624358   4.751   5.090   0.510 -0.3779  0.2748  1.0879
   87MOL   C10724359   4.639   5.171   0.515  0.5634 -0.0569 -0.1000
   87MOL   H10824360   4.560   5.147   0.849  2.5506  2.2372  0.8582
   87MOL   H10924361   4.738   4.990   0.840  0.4011 -0.1050  0.0853
   87MOL   H11024362   4.978   4.954   0.551 -1.2372  0.2239 -1.4247
   87MOL   H11124363   4.866   4.823   0.800  0.7724 -0.0035  0.1173
   87MOL   H11224364   4.800   5.071   0.416 -2.0244  0.3065  0.2226
   87MOL   H11324365   4.609   5.214   0.420  0.9702  0.7108  0.1159
   87MOL   C11424366   5.060   4.762   0.736  0.1046 -0.3437  0.2899
   87MOL   C11524367   5.057   4.633   0.796  0.4157  0.1025  0.3206
   87MOL   C11624368   5.173   4.555   0.808  0.8167 -0.1029 -0.6236
   87MOL   C11724369   5.296   4.600   0.768  0.9383 -0.0842 -0.4312
   87MOL   C11824370   5.420   4.522   0.773 -0.5210  0.6962  0.1369
   87MOL   C11924371   5.424   4.395   0.751  0.0582 -0.5033 -0.5997
   87MOL   C12024372   5.306   4.728   0.710 -0.4095 -0.3912 -0.2414
   87MOL   C12124373   5.187   4.806   0.688  0.1901 -0.0964 -0.3249
   87MOL   H12224374   4.959   4.595   0.819  1.3131 -1.4131  1.7833
   87MOL   H12324375   5.157   4.458   0.851 -1.8219  0.6884  0.2517
   87MOL   H12424376   5.505   4.574   0.814 -0.2420 -0.6302  1.2900
   87MOL   H12524377   5.338   4.339   0.717  0.1685 -0.7033 -0.5474
   87MOL   H12624378   5.403   4.771   0.685  0.9321 -1.1302  3.4025
   87MOL   H12724379   5.190   4.906   0.648  1.2895  0.0185  0.0309
   87MOL   C12824380   5.542   4.310   0.771 -0.1571  0.0111  0.4706
   87MOL   C12924381   5.559   4.186   0.702 -0.5089 -0.4423 -0.3497
   87MOL   C13024382   5.677   4.112   0.733  0.5555 -0.2828 -0.3837
   87MOL   C13124383   5.776   4.153   0.824  0.6335  0.2061  0.4118
   87MOL   C13224384   5.892   4.072   0.855 -0.2233 -0.2584 -0.0157
   87MOL   C13324385   5.913   3.947   0.815  0.6924 -0.3504 -0.1832
   87MOL   C13424386   5.753   4.273   0.891 -0.0939 -0.2711  0.2474
   87MOL   C13524387   5.641   4.353   0.864 -0.1352  0.0188  0.5053
   87MOL   H13624388   5.494   4.147   0.625 -1.5480  1.3435 -0.4001
   87MOL   H13724389   5.686   4.016   0.683 -1.4243 -1.3830  1.2691
   87MOL   H13824390   5.970   4.121   0.912  0.7818 -1.0165 -0.7077
   87MOL   H13924391   5.839   3.884   0.768  2.6268 -2.0044 -1.1213
   87MOL   H14024392   5.832   4.317   0.949 -1.7238 -1.2469  3.3576
   87MOL   H14124393   5.634   4.452   0.907 -0.9582 -0.7786  2.2526
   87MOL   C14224394   6.043   3.876   0.821 -0.5886  0.2757 -0.5579
   87MOL   C14324395   6.057   3.748   0.767  0.3311 -0.7256  0.2204
   87MOL   C14424396   6.187   3.697   0.755 -0.6687  0.2765 -0.3695
   87MOL   C14524397   6.297   3.763   0.804 -0.1137 -0.0456  0.3098
   87MOL   C14624398   6.433   3.713   0.789  0.4571 -0.0918  0.1935
   87MOL   C14724399   6.468   3.597   0.726 -0.4319  0.4164 -0.1867
   87MOL   C14824400   6.281   3.881   0.874  0.4131 -0.1028  0.8385
   87MOL   C14924401   6.155   3.934   0.880  0.0494 -0.1131  0.4248
   87MOL   H15024402   5.970   3.704   0.719 -1.0814  0.5415  1.5757
   87MOL   H15124403   6.193   3.605   0.697  1.6243 -0.1285  0.4683
   87MOL   H15224404   6.507   3.773   0.839  1.1403  0.2245 -1.1848
   87MOL   H15324405   6.401   3.535   0.669  0.0332 -0.3264  0.0590
   87MOL   H15424406   6.369   3.924   0.920  1.6239 -3.3619  1.7385
   87MOL   H15524407   6.149   4.029   0.931  0.6566  0.1071  0.0985
   87MOL   C15624408   6.604   3.537   0.711  0.1968  0.1201  0.1637
   87MOL   C15724409   6.642   3.444   0.612  0.0737  0.1663 -0.3293
   87MOL   C15824410   6.769   3.426   0.570 -0.3277  0.5773  0.7095
   87MOL   C15924411   6.878   3.491   0.627  1.2170  0.1943 -0.3605
   87MOL   C16024412   7.005   3.510   0.554 -0.4991 -0.2216  0.3488
   87MOL   C16124413   7.038   3.471   0.431  0.5430 -0.0289 -0.7447
   87MOL   C16224414   6.843   3.572   0.739 -0.0381  0.7348 -0.5293
   87MOL   C16324415   6.711   3.595   0.780  0.7057  0.2565 -0.0548
   87MOL   H16424416   6.556   3.406   0.559 -1.5823 -0.4001  2.6167
   87MOL   H16524417   6.788   3.368   0.481 -0.0029  2.4342 -0.4529
   87MOL   H16624418   7.073   3.581   0.597  0.5908  0.1949 -1.9947
   87MOL   H16724419   6.974   3.407   0.372  1.7284 -0.3956 -1.6609
   87MOL   H16824420   6.922   3.623   0.791  2.4982 -1.0856 -2.5114
   87MOL   H16924421   6.708   3.655   0.870  0.2946  0.1660 -0.0077
   87MOL   C17024422   7.149   3.525   0.358  0.3500 -0.1194  0.0598
   87MOL   C17124423   7.251   3.602   0.415 -0.0488 -0.3448 -0.3229
   87MOL   C17224424   7.341   3.676   0.332  0.4649  0.1710  0.5622
   87MOL   C17324425   7.326   3.668   0.192 -0.1446 -0.0733  0.2531
   87MOL   C17424426   7.408   3.754   0.109 -0.8871 -0.3210  0.5581
   87MOL   C17524427   7.518   3.830   0.144  0.1750  0.0550  0.2972
   87MOL   C17624428   7.226   3.583   0.137  0.5312  0.9962  0.2256
   87MOL   C17724429   7.139   3.507   0.220  0.7825 -0.5958 -0.2412
   87MOL   H17824430   7.259   3.603   0.522 -0.0505 -1.0600 -0.3121
   87MOL   H17924431   7.413   3.741   0.380  2.0052 -1.7484  0.9297
   87MOL   H18024432   7.384   3.751   0.004 -1.1707  0.5645  0.6018
   87MOL   H18124433   7.541   3.833   0.249 -0.5059  0.3331  0.4460
   87MOL   H18224434   7.206   3.575   0.032 -0.6301  1.7512  0.3830
   87MOL   H18324435   7.067   3.441   0.175 -1.8466  2.4269 -0.6914
   87MOL   C18424436   7.592   3.926   0.060 -0.5327  0.8585 -0.0701
   87MOL   C18524437   7.731   3.939   0.055 -0.2972  0.2305  0.3108
   87MOL   C18624438   7.801   4.017   8.107  0.4118  0.0968  0.3523
   87MOL   C18724439   7.728   4.083   8.008 -0.3562 -0.0220 -0.3357
   87MOL   C18824440   7.804   4.148   7.902  0.1061 -0.1955  0.0726
   87MOL   C18924441   7.740   4.212   7.802 -0.3336  0.0069 -0.0596
   87MOL   C19024442   7.585   4.078   8.013  0.0525  0.2863  0.5760
   87MOL   C19124443   7.524   3.995   8.108  0.3652 -1.0805  0.2960
   87MOL   H19224444   7.784   3.884   0.132  0.1486 -2.3136 -1.7511
   87MOL   H19324445   7.908   4.031   8.105  0.1542  2.5020  1.2435
   87MOL   H19424446   7.911   4.142   7.909  0.1454 -1.8034 -1.7056
   87MOL   H19524447   7.633   4.219   7.788 -0.1982 -1.0130 -1.7567
   87MOL   H19624448   7.520   4.118   7.937 -0.3985 -1.0841  0.2329
   87MOL   H19724449   7.418   3.971   8.106  0.5158 -1.7333 -0.2094
   87MOL   C19824450   7.809   4.288   7.695 -0.0680  0.1979 -0.3623
   87MOL   C19924451   7.733   4.379   7.622  0.1923 -0.2874 -0.0044
   87MOL   C20024452   7.796   4.461   7.531 -0.6007 -0.5415  0.2979
   87MOL   C20124453   7.935   4.459   7.514 -0.0250  0.1047 -0.2971
   87MOL   C20224454   8.010   4.544   7.427  0.3843  0.3818  0.0388
   87MOL   C20324455   7.960   4.649   7.355 -0.4438 -0.0993 -1.1467
   87MOL   C20424456   8.010   4.366   7.588 -0.6312 -0.7269  0.2826
   87MOL   C20524457   7.949   4.277   7.682 -0.3926 -1.0312  0.1749
   87MOL   H20624458   7.627   4.398   7.622  0.4174  0.9869 -1.2746
   87MOL   H20724459   7.736   4.528   7.472 -0.7238 -0.2834  0.7202
   87MOL   H20824460   8.114   4.519   7.418  0.7128  0.9050  2.2139
   87MOL   H20924461   7.853   4.668   7.354 -1.0263 -3.2348 -1.9664
   87MOL   H21024462   8.116   4.360   7.573 -0.4169 -1.3519  1.9644
   87MOL   H21124463   8.007   4.211   7.744 -0.6658  0.6236  2.2195
   87MOL   C21224464   8.037   4.747   7.275 -0.3924 -0.2643  0.1238
   87MOL   C21324465   0.038   4.752   7.262 -0.2608  0.0806 -0.2264
   87MOL   C21424466   0.107   4.857   7.190  0.0722  0.3355  0.1522
   87MOL   C21524467   0.031   4.965   7.129  0.1105  0.3506  0.0021
   87MOL   C21624468   0.096   5.077   7.059 -0.3099  0.4002 -0.5401
   87MOL   C21724469   0.038   5.172   6.980 -0.1060  0.4071 -0.2087
   87MOL   C21824470   8.030   4.955   7.136  0.0677  0.0500 -0.8913
   87MOL   C21924471   7.968   4.849   7.209  0.0988  0.4701  0.1760
   87MOL   H22024472   0.093   4.669   7.304 -0.0992  0.5198  0.4340
   87MOL   H22124473   0.215   4.850   7.182 -0.0400 -1.3539 -0.1264
   87MOL   H22224474   0.204   5.080   7.066 -0.2511 -1.7132 -0.0471
   87MOL   H22324475   8.076   5.157   6.961 -0.3937 -2.0330  2.9044
   87MOL   H22424476   7.984   5.030   7.074  0.6730  1.5447  0.4486
   87MOL   H22524477   7.860   4.842   7.204  0.1578 -1.6461  1.2020
   87MOL   C22624478   0.105   5.284   6.913  0.2518  0.3790 -0.0328
   87MOL   C22724479   0.033   5.364   6.821 -0.2690  0.4402 -0.7120
   87MOL   C22824480   0.096   5.472   6.756  0.2850  0.3212  0.4338
   87MOL   C22924481   0.228   5.511   6.778  0.2846 -0.2759 -0.5411
   87MOL   C23024482   0.297   5.622   6.708 -0.5184 -0.9533  1.0320
   87MOL   C23124483   0.232   5.704   6.632  0.1345 -0.1578 -0.4552
   87MOL   C23224484   0.299   5.443   6.881  0.2924  0.5146 -0.0517
   87MOL   C23324485   0.239   5.327   6.943  0.0061 -0.8143  0.2836
   87MOL   H23424486   8.074   5.347   6.796  0.1912 -2.0991 -1.0572
   87MOL   H23524487   0.048   5.526   6.675  1.8287  2.2517  0.7773
   87MOL   H23624488   0.400   5.644   6.733 -0.5308  0.0306  0.2622
   87MOL   H23724489   0.132   5.687   6.597  0.0088 -0.6671  0.1257
   87MOL   H23824490   0.403   5.463   6.902  0.7936 -1.1391 -0.8270
   87MOL   H23924491   0.290   5.271   7.019 -1.4860 -0.7542  1.3487
   87MOL   C24024492   0.293   5.821   6.567 -0.0485 -0.1622  0.2694
   87MOL   C24124493   0.434   5.849   6.567 -0.8441 -0.6314  0.2735
   87MOL   C24224494   0.482   5.961   6.497 -0.4569  0.0394 -0.5830
   87MOL   C24324495   0.406   6.043   6.419  0.3206 -0.1564 -0.2700
   87MOL   C24424496   0.474   6.149   6.345 -0.0889  0.0806 -0.5406
   87MOL   C24524497   0.398   6.247   6.290  0.2060 -0.0991 -0.0426
   87MOL   C24624498   0.267   6.015   6.425 -0.2452  1.0744  0.3814
   87MOL   C24724499   0.217   5.905   6.495  0.4774 -0.4029 -0.2439
   87MOL   H24824500   0.510   5.794   6.620  0.0303  0.6048  0.3518
   87MOL   H24924501   0.586   5.988   6.504 -0.3723 -0.4604  0.1532
   87MOL   H25024502   0.579   6.143   6.321  0.2101  1.5502  0.3369
   87MOL   H25124503   0.292   6.249   6.312  0.1137 -2.1609 -0.2480
   87MOL   H25224504   0.200   6.072   6.363 -1.7701 -0.9283  0.1310
   87MOL   H25324505   0.110   5.896   6.486  0.5668 -1.8668  0.1164
   87MOL   C25424506   0.449   6.356   6.209  0.0237 -0.5734  0.4481
   87MOL   C25524507   0.400   6.489   6.235  0.0175  0.4531  0.2111
   87MOL   C25624508   0.455   6.593   6.160 -0.0571 -0.1758  0.1969
   87MOL   C25724509   0.556   6.569   6.060 -0.1343 -0.1271  0.2944
   87MOL   C25824510   0.585   6.684   5.965 -0.1075  0.2106  0.8119
   87MOL   C25924511   0.652   6.802   5.981  0.2988  0.1421  0.0991
   87MOL   C26024512   0.602   6.437   6.032  0.6927  0.3793  1.6061
   87MOL   C26124513   0.547   6.327   6.108  0.1811  0.0257 -0.1622
   87MOL   H26224514   0.323   6.524   6.301 -0.3651  1.2492 -0.6445
   87MOL   H26324515   0.410   6.690   6.173 -0.7108 -0.5064  0.4184
   87MOL   H26424516   0.536   6.684   5.869 -2.2582 -0.4243  1.8569
   87MOL   H26524517   0.648   6.864   5.892  1.9672  1.1576  0.7042
   87MOL   H26624518   0.655   6.416   5.940 -0.7721  1.2555  0.5178
   87MOL   H26724519   0.574   6.226   6.084  0.7492 -0.4219  2.2069
   87MOL   C26824520   0.717   6.851   6.102 -0.1352 -0.2693  0.5411
   87MOL   C26924521   0.783   6.756   6.183  0.3087  0.2117 -0.5218
   87MOL   C27024522   0.848   6.794   6.301 -0.6342  0.1756 -0.2111
   87MOL   C27124523   0.853   6.931   6.333 -0.4240 -1.1441  0.4597
   87MOL   C27224524   0.917   6.965   6.462  0.0019  0.3064 -0.3880
   87MOL   C27324525   0.946   6.887   6.567  0.6611 -0.8255 -0.3244
   87MOL   C27424526   0.784   7.026   6.252 -0.1598  0.1436 -0.1832
   87MOL   C27524527   0.719   6.990   6.136  0.1379  0.0865 -0.2396
   87MOL   H27624528   0.776   6.653   6.154  0.9762  0.1111 -0.3234
   87MOL   H27724529   0.883   6.710   6.359 -3.1311 -0.5239  0.3802
   87MOL   H27824530   0.943   7.070   6.471 -2.2509  1.0524 -1.9701
   87MOL   H27924531   0.926   6.780   6.562  2.3735 -1.1170 -1.3734
   87MOL   H28024532   0.776   7.124   6.297  0.0198  0.8787 -1.7125
   87MOL   H28124533   0.679   7.065   6.069  0.5318 -0.9071 -1.5974
   87MOL   H28224534   0.994   6.917   6.658 -0.6965 -1.3554  0.5906
   88MOL     C124535   7.529   0.168   0.118  0.3820 -0.8787  0.4196
   88MOL     C224536   7.537   0.171   8.121 -0.6634 -0.1813  0.6350
   88MOL     C324537   7.661   0.204   8.066  0.5193  0.5598 -0.0685
   88MOL     C424538   7.764   0.252   8.141 -0.3125 -0.2512  0.3295
   88MOL     C524539   7.891   0.287   8.082 -0.3215 -0.2146 -0.1622
   88MOL     C624540   7.923   0.307   7.950  0.5881 -0.6244  0.4138
   88MOL     C724541   7.753   0.265   0.135  0.1357 -0.9265 -0.2936
   88MOL     C824542   7.635   0.223   0.195  0.4364  0.0775 -0.1987
   88MOL     H924543   7.461   0.138   8.051 -1.3108  1.4004  0.5715
   88MOL    H1024544   7.677   0.204   7.959  0.7391 -1.2889 -0.0550
   88MOL    H1124545   7.968   0.305   0.011 -0.5831  0.9660 -0.1653
   88MOL    H1224546   7.848   0.298   7.873  1.0533 -0.6751 -0.0448
   88MOL    H1324547   7.839   0.291   0.195 -0.3074 -2.1751  0.9221
   88MOL    H1424548   7.628   0.219   0.302  2.1164  0.7207 -0.0637
   88MOL    H1524549   7.433   0.152   0.165 -0.4495  0.3369 -0.8373
   88MOL    C1624550   8.055   0.344   7.895 -0.2033 -0.1379  0.7602
   88MOL    C1724551   8.087   0.333   7.762 -0.1336 -0.1554  0.3379
   88MOL    C1824552   0.068   0.367   7.706  0.0216  0.3595  0.5266
   88MOL    C1924553   0.173   0.398   7.792 -0.1917 -0.3236 -0.0011
   88MOL    C2024554   0.297   0.434   7.733  0.5620  0.7410 -0.6660
   88MOL    C2124555   0.384   0.528   7.782 -0.4146  0.1315 -0.2080
   88MOL    C2224556   0.146   0.417   7.925  0.5638 -0.2502  0.0200
   88MOL    C2324557   0.014   0.395   7.976  0.1858 -0.0877  0.6518
   88MOL    H2424558   8.007   0.298   7.697  0.4003 -0.5266 -0.1234
   88MOL    H2524559   0.094   0.361   7.601 -1.2526 -0.8940  0.2745
   88MOL    H2624560   0.316   0.376   7.644 -0.1633 -0.9793  0.2754
   88MOL    H2724561   0.361   0.587   7.869  1.1569  0.7512 -0.1998
   88MOL    H2824562   0.225   0.439   7.995 -0.8080 -1.6067  2.0378
   88MOL    H2924563   8.144   0.429   8.078 -2.3774 -1.2766  0.7325
   88MOL    C3024564   0.516   0.565   7.727 -0.2886 -0.6203 -0.3927
   88MOL    C3124565   0.565   0.498   7.608  0.6144 -0.1843  0.1079
   88MOL    C3224566   0.688   0.532   7.554 -0.1355 -0.5387 -0.5429
   88MOL    C3324567   0.780   0.619   7.616 -0.7377  0.2571 -0.5289
   88MOL    C3424568   0.915   0.639   7.563 -0.2166 -0.1801  0.5231
   88MOL    C3524569   1.011   0.728   7.606  0.1049 -0.5727 -0.0309
   88MOL    C3624570   0.736   0.679   7.739  0.0068  0.2317 -0.4766
   88MOL    C3724571   0.606   0.656   7.793  0.2454  0.5489 -0.5237
   88MOL    H3824572   0.502   0.440   7.542  1.6084  1.6456 -2.5277
   88MOL    H3924573   0.719   0.495   7.458  0.4074  1.0470 -0.9959
   88MOL    H4024574   0.941   0.579   7.477 -1.9617  0.7893 -0.7034
   88MOL    H4124575   0.982   0.796   7.685 -2.1145 -0.1888 -1.1321
   88MOL    H4224576   0.804   0.738   7.798  0.6297 -0.5483 -0.4062
   88MOL    H4324577   0.563   0.712   7.874 -2.7341 -0.8403 -1.0996
   88MOL    C4424578   1.150   0.733   7.562 -0.9509 -0.1149 -0.3267
   88MOL    C4524579   1.217   0.860   7.564 -0.3260  0.3761 -0.1144
   88MOL    C4624580   1.352   0.864   7.509 -0.0424  0.4525  0.4737
   88MOL    C4724581   1.425   0.746   7.471  0.2176 -0.3101 -0.1682
   88MOL    C4824582   1.562   0.758   7.423  0.1874 -0.4618 -0.3751
   88MOL    C4924583   1.617   0.660   7.347 -0.9584 -0.1234 -0.6869
   88MOL    C5024584   1.361   0.621   7.481 -0.2827  0.5619 -0.8111
   88MOL    C5124585   1.221   0.618   7.519  0.2877 -0.7972 -0.1348
   88MOL    H5224586   1.175   0.956   7.590 -0.2822  0.5454 -0.6626
   88MOL    H5324587   1.408   0.956   7.499  1.6369 -0.4459  1.3136
   88MOL    H5424588   1.623   0.843   7.449 -2.2203  1.3458 -0.4450
   88MOL    H5524589   1.551   0.576   7.328 -0.7912 -0.0030 -1.8289
   88MOL    H5624590   1.408   0.526   7.461 -0.9403  0.0070  0.2519
   88MOL    H5724591   1.174   0.522   7.506 -0.9691 -0.0377 -1.3211
   88MOL    C5824592   1.750   0.655   7.283 -0.1454 -0.5047 -0.2894
   88MOL    C5924593   1.849   0.755   7.296  0.6888 -0.0026 -0.4663
   88MOL    C6024594   1.964   0.771   7.214 -0.1745  0.6297 -0.2064
   88MOL    C6124595   1.984   0.673   7.111  0.0299 -0.7946  0.4572
   88MOL    C6224596   2.086   0.687   7.010  0.1889  0.2050  0.4997
   88MOL    C6324597   2.159   0.581   6.961  0.1020  0.6685 -0.1295
   88MOL    C6424598   1.887   0.571   7.093  0.5067  0.0307 -0.2899
   88MOL    C6524599   1.773   0.562   7.178 -0.2417 -0.3744  0.6786
   88MOL    H6624600   1.839   0.834   7.369  1.8174 -1.2608  1.0954
   88MOL    H6724601   2.050   0.835   7.231  1.3635 -2.2100  3.4811
   88MOL    H6824602   2.106   0.787   6.975  1.3658  0.3552  1.5552
   88MOL    H6924603   2.138   0.483   7.002 -1.8785  0.5775 -1.2703
   88MOL    H7024604   1.905   0.505   7.009  1.2036  0.4242 -0.4514
   88MOL    H7124605   1.700   0.487   7.153 -0.3867 -0.5675  1.6629
   88MOL    C7224606   2.268   0.585   6.858  0.0569 -0.3471  0.6276
   88MOL    C7324607   2.330   0.469   6.812 -0.0965 -0.1718 -1.0011
   88MOL    C7424608   2.423   0.472   6.710 -0.2971  0.1715  0.5785
   88MOL    C7524609   2.450   0.588   6.638 -0.2493 -0.5432 -0.7267
   88MOL    C7624610   2.546   0.595   6.526  0.5470 -0.2738  0.0295
   88MOL    C7724611   2.596   0.484   6.463  0.7230 -0.1320  0.0831
   88MOL    C7824612   2.385   0.707   6.684  0.4561  0.0804 -0.3561
   88MOL    C7924613   2.293   0.702   6.789 -0.5633  0.5282 -0.0060
   88MOL    H8024614   2.318   0.382   6.874  2.3404 -0.3329 -0.6894
   88MOL    H8124615   2.477   0.383   6.680  1.8639  2.2318 -1.9047
   88MOL    H8224616   2.585   0.693   6.502  0.9054 -0.6667 -1.0442
   88MOL    H8324617   2.556   0.389   6.495 -2.2247  1.4881  1.4332
   88MOL    H8424618   2.397   0.805   6.638 -0.2971  0.9772  1.3128
   88MOL    H8524619   2.243   0.795   6.814  1.7376  1.9028 -0.3529
   88MOL    C8624620   2.700   0.483   6.359 -0.0557 -0.0490 -0.6809
   88MOL    C8724621   2.737   0.360   6.305 -0.0682  0.3990 -0.1332
   88MOL    C8824622   2.822   0.359   6.194 -0.2359 -0.1857 -0.2819
   88MOL    C8924623   2.866   0.477   6.126  0.8251  0.6666 -0.1600
   88MOL    C9024624   2.936   0.461   6.000 -0.0415 -1.1055  0.0789
   88MOL    C9124625   2.966   0.557   5.910  0.4328  0.2745 -0.0260
   88MOL    C9224626   2.814   0.598   6.178  0.4223 -0.7386  0.0057
   88MOL    C9324627   2.735   0.605   6.295 -0.6610 -0.1718  0.5404
   88MOL    H9424628   2.692   0.268   6.339 -1.3359  0.4256 -1.6573
   88MOL    H9524629   2.842   0.260   6.155  2.2133  0.0498  0.2981
   88MOL    H9624630   2.962   0.359   5.977 -0.6159 -1.0452 -0.8748
   88MOL    H9724631   2.935   0.655   5.944 -0.6824 -0.4148  0.9822
   88MOL    H9824632   2.844   0.691   6.132 -1.4237 -0.2657 -0.2805
   88MOL    H9924633   2.702   0.704   6.325  0.6797  0.3894  0.1976
   88MOL   C10024634   3.033   0.557   5.784 -0.6381 -0.3010  1.2221
   88MOL   C10124635   3.085   0.443   5.723  0.4736 -0.0973  0.5515
   88MOL   C10224636   3.122   0.449   5.586  0.2519  0.4994  0.0069
   88MOL   C10324637   3.110   0.568   5.514  0.2184  1.3412 -0.0573
   88MOL   C10424638   3.148   0.567   5.372 -0.8125 -0.2380 -0.2313
   88MOL   C10524639   3.159   0.678   5.299 -0.1153 -0.4898 -0.9983
   88MOL   C10624640   3.068   0.683   5.580  0.0766  0.1670 -0.0992
   88MOL   C10724641   3.026   0.678   5.713 -0.5961 -0.1393  0.6587
   88MOL   H10824642   3.077   0.349   5.777 -2.5768  0.2450  0.8267
   88MOL   H10924643   3.156   0.364   5.529  0.5665 -0.0883  1.0555
   88MOL   H11024644   3.166   0.471   5.325  3.2379  0.9079 -1.1896
   88MOL   H11124645   3.146   0.775   5.345 -0.9584 -0.8583 -0.4713
   88MOL   H11224646   3.067   0.782   5.536 -0.0387 -0.1267 -0.7615
   88MOL   H11324647   2.973   0.759   5.761 -0.6852 -1.0684  2.1878
   88MOL   C11424648   3.197   0.682   5.155  0.0610  0.1382  0.0057
   88MOL   C11524649   3.247   0.801   5.093 -0.0670 -0.5008  0.0086
   88MOL   C11624650   3.248   0.815   4.953 -0.3036  0.3860 -0.0282
   88MOL   C11724651   3.202   0.712   4.867  0.4914 -0.1355 -0.3489
   88MOL   C11824652   3.192   0.740   4.721 -0.4415 -0.3630 -0.3606
   88MOL   C11924653   3.115   0.684   4.628 -0.2938  0.0664  0.7177
   88MOL   C12024654   3.149   0.598   4.929 -0.3653 -0.3090  0.0042
   88MOL   C12124655   3.152   0.579   5.071 -0.0380  0.6712  0.5561
   88MOL   H12224656   3.275   0.883   5.157 -0.5612 -1.0242  0.9140
   88MOL   H12324657   3.273   0.916   4.924  1.8244 -0.2527 -0.5708
   88MOL   H12424658   3.260   0.814   4.682  1.6830 -1.8624  0.4453
   88MOL   H12524659   3.046   0.608   4.663  0.3109 -0.9906 -0.3452
   88MOL   H12624660   3.089   0.523   4.879 -0.9005 -0.5622  1.0155
   88MOL   H12724661   3.100   0.493   5.112  1.2214  0.7958  2.4434
   88MOL   C12824662   3.097   0.730   4.486  0.5932 -0.9144 -0.1454
   88MOL   C12924663   3.032   0.646   4.389 -0.6461 -0.4202 -1.0962
   88MOL   C13024664   3.025   0.680   4.252 -0.4415 -0.9417  0.1349
   88MOL   C13124665   3.073   0.809   4.213 -0.2000 -0.7976  0.4816
   88MOL   C13224666   3.067   0.854   4.072  0.4828 -1.3646 -0.4392
   88MOL   C13324667   2.997   0.787   3.978  0.5108  0.1499  0.1972
   88MOL   C13424668   3.136   0.895   4.308  0.1398  0.4778 -0.1823
   88MOL   C13524669   3.146   0.856   4.446  0.0657 -0.1505 -0.9814
   88MOL   H13624670   2.993   0.549   4.414 -1.1833 -0.6215 -2.6339
   88MOL   H13724671   2.971   0.608   4.193  1.2004  0.2433 -2.9011
   88MOL   H13824672   3.121   0.944   4.048  0.4834 -1.9702 -2.8230
   88MOL   H13924673   2.938   0.699   4.000 -1.3499  0.8945 -1.7035
   88MOL   H14024674   3.176   0.991   4.279  2.1826 -0.0205  0.9128
   88MOL   H14124675   3.187   0.927   4.517  3.5250 -1.3159 -1.7133
   88MOL   C14224676   2.981   0.817   3.835 -0.0340 -0.5552 -0.6623
   88MOL   C14324677   2.879   0.754   3.762  0.1819  0.0776 -0.3651
   88MOL   C14424678   2.858   0.802   3.630 -0.0182 -0.8039  0.2384
   88MOL   C14524679   2.934   0.905   3.572  0.8883  0.1809  0.3123
   88MOL   C14624680   2.917   0.935   3.430 -0.0010  0.2172  0.1120
   88MOL   C14724681   3.016   0.972   3.346 -0.0027  0.3192  0.6591
   88MOL   C14824682   3.044   0.964   3.647  0.1737 -0.4717  0.3305
   88MOL   C14924683   3.057   0.922   3.778 -0.4393  0.4212  0.1240
   88MOL   H15024684   2.812   0.685   3.811  1.9071 -2.1826 -1.0474
   88MOL   H15124685   2.793   0.752   3.560  0.9859  1.7571 -2.6324
   88MOL   H15224686   2.816   0.943   3.393 -0.4404 -0.5779  1.1248
   88MOL   H15324687   3.113   0.975   3.393  0.1690  0.8806  0.2768
   88MOL   H15424688   3.109   1.041   3.607 -0.6815  0.4541  0.7122
   88MOL   H15524689   3.136   0.963   3.839  0.1509  0.8535 -0.9201
   88MOL   C15624690   3.008   1.016   3.206 -0.6257 -0.5437  0.0165
   88MOL   C15724691   3.126   1.056   3.134 -0.0675 -0.1716 -0.3441
   88MOL   C15824692   3.122   1.102   3.001 -0.1689  0.7754  0.0432
   88MOL   C15924693   2.994   1.122   2.935 -0.6736 -0.3280  0.7859
   88MOL   C16024694   2.998   1.172   2.795  0.2013  0.0732  0.0315
   88MOL   C16124695   2.891   1.173   2.716 -0.1827 -0.1679 -0.0345
   88MOL   C16224696   2.875   1.081   3.008 -0.6635  0.1571 -1.3701
   88MOL   C16324697   2.885   1.027   3.138  0.0795  0.5056 -0.1543
   88MOL   H16424698   3.226   1.053   3.176 -0.3924  2.6809  0.7114
   88MOL   H16524699   3.213   1.130   2.948  0.7489  0.0891  1.2445
   88MOL   H16624700   3.095   1.202   2.758  0.9413 -0.7193  1.3133
   88MOL   H16724701   2.793   1.156   2.758 -1.4626  0.1644 -2.7820
   88MOL   H16824702   2.781   1.085   2.955 -2.2606 -2.3141  1.1672
   88MOL   H16924703   2.792   1.007   3.188  0.8208 -1.9486  0.3159
   88MOL   C17024704   2.893   1.202   2.572  0.7823 -0.9282 -0.5133
   88MOL   C17124705   2.773   1.180   2.504 -1.3573 -0.5597 -0.2229
   88MOL   C17224706   2.770   1.200   2.362 -0.0039 -0.3711  0.2921
   88MOL   C17324707   2.888   1.213   2.285  0.0216  0.6414 -0.1192
   88MOL   C17424708   2.885   1.224   2.140 -0.2725  0.4442 -0.0348
   88MOL   C17524709   2.783   1.241   2.051  0.3108 -0.2157 -0.9385
   88MOL   C17624710   3.006   1.229   2.358 -0.0264  0.2898 -0.2656
   88MOL   C17724711   3.010   1.223   2.497 -0.3294 -0.7604 -0.1987
   88MOL   H17824712   2.682   1.154   2.556 -1.3572  1.4262  0.8122
   88MOL   H17924713   2.672   1.199   2.317 -0.0662 -2.2537  0.4558
   88MOL   H18024714   2.984   1.215   2.098 -0.2413 -2.9742  0.6644
   88MOL   H18124715   2.682   1.260   2.083  0.2248 -4.2296  1.4032
   88MOL   H18224716   3.100   1.227   2.304 -1.8659 -0.3842 -3.5426
   88MOL   H18324717   3.113   1.227   2.531 -0.3299  2.6936 -0.3515
   88MOL   C18424718   2.786   1.246   1.903 -0.1756  0.2754 -0.2273
   88MOL   C18524719   2.655   1.257   1.842 -0.4383  0.0505 -0.5606
   88MOL   C18624720   2.641   1.280   1.700  0.4923 -0.3826  0.1694
   88MOL   C18724721   2.761   1.292   1.623  0.4950  0.1760  0.9957
   88MOL   C18824722   2.754   1.293   1.476  0.3256  0.3481  0.1518
   88MOL   C18924723   2.645   1.291   1.399 -0.2195  0.3446  0.1619
   88MOL   C19024724   2.889   1.294   1.687 -0.4360  0.1127  0.1281
   88MOL   C19124725   2.899   1.268   1.827  0.0391  0.2538 -0.4147
   88MOL   H19224726   2.568   1.254   1.906 -1.1331  0.4179 -1.4651
   88MOL   H19324727   2.544   1.277   1.654  0.2110 -1.1462  0.7891
   88MOL   H19424728   2.849   1.293   1.426  0.0734  0.4964 -0.3274
   88MOL   H19524729   2.547   1.282   1.443 -0.1363  1.2739  0.5491
   88MOL   H19624730   2.972   1.306   1.620  0.3274 -0.3931  0.9691
   88MOL   H19724731   2.991   1.279   1.882 -0.9820 -1.1422  1.6610
   88MOL   C19824732   2.640   1.285   1.252  0.3158  0.0600  0.4738
   88MOL   C19924733   2.518   1.243   1.190  0.2328 -0.8711 -0.1533
   88MOL   C20024734   2.506   1.237   1.050  0.7393  0.0112 -0.5000
   88MOL   C20124735   2.622   1.264   0.969 -0.8558 -0.2652 -0.3553
   88MOL   C20224736   2.616   1.236   0.825 -0.6325 -0.6016 -0.1087
   88MOL   C20324737   2.510   1.233   0.745  0.2588 -0.3655 -0.7691
   88MOL   C20424738   2.743   1.301   1.029  0.5762  0.1721 -0.6137
   88MOL   C20524739   2.749   1.319   1.171  0.0601  0.0527 -0.5077
   88MOL   H20624740   2.425   1.231   1.244  0.1683  1.1585  0.2034
   88MOL   H20724741   2.409   1.221   1.006  0.4008  1.7186 -0.4366
   88MOL   H20824742   2.712   1.215   0.779 -0.7392  1.5780 -1.3922
   88MOL   H20924743   2.418   1.255   0.797  0.4517 -1.0092 -0.1423
   88MOL   H21024744   2.824   1.319   0.960  0.4594 -0.1203 -0.8288
   88MOL   H21124745   2.842   1.351   1.216  1.0966 -0.2595 -2.4016
   88MOL   C21224746   2.497   1.187   0.606  0.2194  0.1523  0.0770
   88MOL   C21324747   2.369   1.190   0.550 -0.4960  0.5393 -0.6993
   88MOL   C21424748   2.348   1.148   0.415  0.1471 -0.2669  0.4807
   88MOL   C21524749   2.446   1.089   0.337 -0.0198 -0.3341 -0.1638
   88MOL   C21624750   2.422   1.012   0.210 -0.9013  0.2403  0.2700
   88MOL   C21724751   2.299   0.972   0.175  0.1843 -0.2997  0.3756
   88MOL   C21824752   2.579   1.091   0.389  0.1324 -0.0381 -0.3779
   88MOL   C21924753   2.601   1.133   0.529  0.1466 -0.3799  0.4591
   88MOL   H22024754   2.289   1.230   0.610 -0.5297  0.8462 -0.9510
   88MOL   H22124755   2.250   1.167   0.373  1.1012  3.0369 -0.4334
   88MOL   H22224756   2.501   0.979   0.144 -1.6323 -1.3519  0.1732
   88MOL   H22324757   2.216   1.003   0.237  0.7056  2.7401 -0.3700
   88MOL   H22424758   2.650   1.041   0.326  0.0697 -1.0523  0.3478
   88MOL   H22524759   2.698   1.114   0.573  0.9618  0.6862 -0.8307
   88MOL   C22624760   2.271   0.894   0.056  0.0931  0.6285  0.2902
   88MOL   C22724761   2.137   0.858   0.043  0.9378 -0.5263 -0.5172
   88MOL   C22824762   2.095   0.796   8.067  0.0571  0.0901  0.4875
   88MOL   C22924763   2.189   0.751   7.967  0.0621 -0.3114 -0.3079
   88MOL   C23024764   2.151   0.659   7.860  0.5753 -0.5771 -0.3824
   88MOL   C23124765   2.215   0.626   7.749 -0.1532 -0.1061 -0.6036
   88MOL   C23224766   2.319   0.790   7.979 -0.7129 -0.0124 -0.1158
   88MOL   C23324767   2.366   0.860   8.100 -0.0105 -0.3124 -0.2733
   88MOL   H23424768   2.063   0.888   0.116  0.0422  1.0092 -2.0120
   88MOL   H23524769   1.993   0.767   8.049 -0.8067  1.5019  2.8964
   88MOL   H23624770   2.053   0.615   7.872  0.8718 -1.1534 -0.0128
   88MOL   H23724771   2.313   0.665   7.727 -0.2043  0.6423  0.4550
   88MOL   H23824772   2.393   0.769   7.902 -0.0351  1.1394  0.2175
   88MOL   H23924773   2.463   0.908   8.100 -1.3597  2.5389 -0.0744
   88MOL   C24024774   2.156   0.530   7.647  0.6391  0.1531  0.1995
   88MOL   C24124775   2.183   0.548   7.504 -0.0381 -0.6385 -0.5645
   88MOL   C24224776   2.123   0.468   7.406  0.3076  0.5120  0.4747
   88MOL   C24324777   2.036   0.359   7.437  0.0860 -0.1209 -0.1631
   88MOL   C24424778   1.968   0.267   7.346 -0.1001 -0.1751 -0.3290
   88MOL   C24524779   1.964   0.283   7.212 -0.1376  0.6243 -0.4505
   88MOL   C24624780   2.009   0.340   7.574 -0.5516  0.3590 -0.5968
   88MOL   C24724781   2.065   0.422   7.675 -0.4792  0.7373  0.4514
   88MOL   H24824782   2.248   0.630   7.475  0.1442  0.8631  3.7927
   88MOL   H24924783   2.143   0.497   7.304 -0.0390  3.3151  1.1748
   88MOL   H25024784   1.916   0.183   7.390  2.9504 -1.9104  0.0530
   88MOL   H25124785   2.014   0.365   7.161  0.4651  0.5226 -0.0333
   88MOL   H25224786   1.942   0.261   7.604  0.3852 -0.8605 -1.6533
   88MOL   H25324787   2.025   0.399   7.773  0.1567  0.6674  0.6974
   88MOL   C25424788   1.895   0.188   7.123  0.5490  0.4388  0.4023
   88MOL   C25524789   1.913   0.199   6.986 -0.1012 -0.6323  0.4256
   88MOL   C25624790   1.875   0.096   6.900  0.6221 -0.3492  0.0318
   88MOL   C25724791   1.809   8.130   6.951 -0.6873  0.4780  0.8963
   88MOL   C25824792   1.775   8.019   6.861  0.6839  0.2285  0.6101
   88MOL   C25924793   1.654   7.961   6.846  0.0032 -0.1193  0.6254
   88MOL   C26024794   1.782   8.122   7.085  0.1101 -0.0241 -0.4270
   88MOL   C26124795   1.824   0.075   7.170  0.5507 -0.6690  0.1935
   88MOL   H26224796   1.973   0.278   6.943 -1.5004 -0.7288 -1.7785
   88MOL   H26324797   1.894   0.101   6.794 -3.3743 -0.3325 -0.7394
   88MOL   H26424798   1.854   7.979   6.799  0.2653  2.6527 -1.5709
   88MOL   H26524799   1.654   7.868   6.791  0.0311 -0.2263  0.8015
   88MOL   H26624800   1.724   8.039   7.122 -0.8177  0.1402 -1.4861
   88MOL   H26724801   1.795   0.080   7.273  0.9823  0.9691  0.2508
   88MOL   C26824802   1.525   7.995   6.900 -0.2594  0.8958  0.2747
   88MOL   C26924803   1.430   7.897   6.883  0.0928  0.2356 -0.6095
   88MOL   C27024804   1.295   7.916   6.920 -0.1454 -0.7790 -0.0178
   88MOL   C27124805   1.249   8.038   6.970 -0.5463 -0.0757  0.2183
   88MOL   C27224806   1.102   8.057   6.989  0.8780  0.2837 -0.7436
   88MOL   C27324807   1.044   0.022   7.036 -0.1915 -0.5913  0.1721
   88MOL   C27424808   1.347   8.139   6.985  0.2136 -0.1047 -0.2581
   88MOL   C27524809   1.480   8.121   6.951 -0.9571  0.0712  0.2237
   88MOL   H27624810   1.461   7.805   6.836 -0.5599 -0.7429  0.8147
   88MOL   H27724811   1.224   7.840   6.891 -1.9782  0.6021  0.7921
   88MOL   H27824812   1.037   7.972   6.972 -0.8160  1.4515 -0.2380
   88MOL   H27924813   1.104   0.106   7.066 -1.4055  0.7138 -1.0130
   88MOL   H28024814   1.317   0.096   7.007  5.2271  0.8434  3.1349
   88MOL   H28124815   1.534   0.070   6.944 -0.0218 -0.4795  0.0299
   88MOL   H28224816   0.938   0.034   7.052 -0.6236 -2.7969 -0.8975
   89MOL     C124817   5.406   1.761   7.522  0.8087  0.0431  0.2068
   89MOL     C224818   5.473   1.761   7.394  0.0564  0.0316 -0.4105
   89MOL     C324819   5.600   1.813   7.384  0.6421  0.5189  0.2448
   89MOL     C424820   5.671   1.858   7.494  0.2946  0.0085 -0.0276
   89MOL     C524821   5.795   1.931   7.466 -0.1464 -0.0820  0.1851
   89MOL     C624822   5.854   2.014   7.549 -0.4372  0.2042 -0.2315
   89MOL     C724823   5.606   1.856   7.615  0.2716 -0.6251  0.0520
   89MOL     C824824   5.475   1.809   7.633 -0.1750  0.2153 -0.5124
   89MOL     H924825   5.434   1.714   7.305  0.2911  0.7728 -0.9048
   89MOL    H1024826   5.651   1.800   7.290 -1.7102 -0.7288 -0.9104
   89MOL    H1124827   5.843   1.910   7.371  0.5680  0.3065  0.4565
   89MOL    H1224828   5.815   2.038   7.647  0.8426  2.4626 -0.2494
   89MOL    H1324829   5.644   1.910   7.701 -1.2429 -0.0336  0.3704
   89MOL    H1424830   5.424   1.842   7.722  0.7205  1.1472 -0.3270
   89MOL    H1524831   5.305   1.725   7.524  0.3866  1.1514 -0.5000
   89MOL    C1624832   5.986   2.076   7.523  0.4115 -0.4511 -0.0703
   89MOL    C1724833   6.025   2.175   7.619 -0.7759  0.2594  0.0224
   89MOL    C1824834   6.158   2.227   7.613 -0.2308  0.3032 -0.2978
   89MOL    C1924835   6.242   2.197   7.499  0.7723 -0.0246 -0.4207
   89MOL    C2024836   6.379   2.245   7.492 -0.4539 -0.0093 -0.0308
   89MOL    C2124837   6.430   2.344   7.565  0.2100  0.8589  0.4471
   89MOL    C2224838   6.192   2.112   7.394  0.4237  0.3215  0.4474
   89MOL    C2324839   6.065   2.053   7.412  0.3894  0.1003 -0.1088
   89MOL    H2424840   5.961   2.201   7.702 -1.6076 -1.8021  0.0503
   89MOL    H2524841   6.192   2.285   7.697  0.3132 -1.4729  0.7266
   89MOL    H2624842   6.438   2.194   7.418  1.0391  0.5514  0.7598
   89MOL    H2724843   6.373   2.390   7.643 -0.0303  0.4338  0.5243
   89MOL    H2824844   6.250   2.089   7.306 -0.8646 -1.7922  0.1065
   89MOL    H2924845   6.023   1.978   7.346 -2.2675  1.1941  0.2666
   89MOL    C3024846   6.562   2.404   7.549 -0.2445  0.5720 -0.6309
   89MOL    C3124847   6.601   2.510   7.638 -0.0705  0.2653 -0.6715
   89MOL    C3224848   6.733   2.552   7.644 -0.0010 -0.1410 -0.1539
   89MOL    C3324849   6.828   2.500   7.549  0.8386 -0.1144 -0.6185
   89MOL    C3424850   6.964   2.548   7.529 -0.4850  0.5797 -0.3755
   89MOL    C3524851   7.024   2.644   7.608 -0.1440 -0.6561  0.1040
   89MOL    C3624852   6.789   2.398   7.463 -0.3318 -0.2758 -0.9579
   89MOL    C3724853   6.657   2.343   7.473 -0.3519  0.1250  0.1829
   89MOL    H3824854   6.533   2.540   7.716  2.9742  1.3937  1.6843
   89MOL    H3924855   6.763   2.630   7.713  0.9501  1.3780 -2.2288
   89MOL    H4024856   7.019   2.509   7.445  2.7810  1.7182  1.1344
   89MOL    H4124857   6.963   2.695   7.681 -1.8494 -1.2291 -0.9032
   89MOL    H4224858   6.852   2.358   7.385  0.9538  0.3014 -0.2350
   89MOL    H4324859   6.631   2.271   7.396 -0.3778  1.0254 -0.6612
   89MOL    C4424860   7.166   2.692   7.594 -0.9076 -0.2503  0.5242
   89MOL    C4524861   7.209   2.796   7.665  0.1271  0.5794 -0.2839
   89MOL    C4624862   7.342   2.841   7.651  0.3616  0.3807  0.2730
   89MOL    C4724863   7.424   2.790   7.550  1.2391  0.2980 -0.6806
   89MOL    C4824864   7.563   2.821   7.530  0.1291 -0.6846  0.2135
   89MOL    C4924865   7.644   2.907   7.591 -0.4999  0.5678 -0.3968
   89MOL    C5024866   7.381   2.674   7.478  0.1141 -0.7929 -0.2661
   89MOL    C5124867   7.248   2.631   7.501  0.8550 -0.7401  0.1387
   89MOL    H5224868   7.144   2.849   7.733 -0.8374 -1.0538  0.0845
   89MOL    H5324869   7.377   2.927   7.707  2.3963  1.3145 -2.3018
   89MOL    H5424870   7.602   2.773   7.441 -2.9052  1.0804 -2.1528
   89MOL    H5524871   7.607   2.964   7.676  0.5934  1.5741 -0.5720
   89MOL    H5624872   7.445   2.617   7.412  1.3264  2.0747 -1.6865
   89MOL    H5724873   7.215   2.542   7.450  0.3369  0.6222 -1.9515
   89MOL    C5824874   7.779   2.956   7.547 -0.5675 -0.5581 -0.3514
   89MOL    C5924875   7.841   2.924   7.421  0.1120  0.3207 -0.4627
   89MOL    C6024876   7.968   2.983   7.390 -0.4870  0.3611  0.1562
   89MOL    C6124877   8.031   3.067   7.484  0.0602  0.1254 -0.9099
   89MOL    C6224878   0.023   3.118   7.446  0.9648  0.9189 -0.0478
   89MOL    C6324879   0.089   3.215   7.510 -0.0170  0.2212  0.1321
   89MOL    C6424880   7.966   3.100   7.605 -0.6418 -0.1936  0.8841
   89MOL    C6524881   7.845   3.035   7.641 -0.2262 -0.7323 -0.6232
   89MOL    H6624882   7.797   2.865   7.341  0.3798 -0.3362 -0.1327
   89MOL    H6724883   8.004   2.956   7.292  1.0548 -0.6937  0.9796
   89MOL    H6824884   0.066   3.074   7.357 -0.9554  0.7948 -0.9402
   89MOL    H6924885   0.052   3.264   7.599  0.4756 -0.1105  0.5261
   89MOL    H7024886   8.011   3.167   7.677  2.0817 -0.9280 -0.0836
   89MOL    H7124887   7.796   3.067   7.732  1.7155 -0.8601  0.4998
   89MOL    C7224888   0.220   3.262   7.466  0.6797  0.5399 -0.0805
   89MOL    C7324889   0.278   3.231   7.339  0.0860  0.3191  0.4939
   89MOL    C7424890   0.407   3.274   7.306 -0.4928 -0.4381  0.4870
   89MOL    C7524891   0.486   3.358   7.389  0.4090  0.4661 -0.5552
   89MOL    C7624892   0.625   3.408   7.366 -0.3271 -0.0810  0.4464
   89MOL    C7724893   0.694   3.391   7.253  0.0747  0.3305  0.5089
   89MOL    C7824894   0.418   3.390   7.512 -0.7086 -0.5332  0.6283
   89MOL    C7924895   0.291   3.348   7.550 -0.1913  0.1214 -0.4891
   89MOL    H8024896   0.224   3.175   7.265 -0.1788  1.3276 -0.0824
   89MOL    H8124897   0.445   3.238   7.212  0.3417 -1.3722  1.1792
   89MOL    H8224898   0.677   3.449   7.451 -0.2008 -1.6673  1.1515
   89MOL    H8324899   0.653   3.333   7.172 -0.9047  0.3363  0.9888
   89MOL    H8424900   0.462   3.452   7.589 -0.8592  2.0221 -1.2718
   89MOL    H8524901   0.254   3.379   7.647  0.0975 -0.2006 -0.2731
   89MOL    C8624902   0.828   3.447   7.224  0.1133  0.6813  0.0810
   89MOL    C8724903   0.887   3.414   7.100 -0.5659 -0.7469  0.6243
   89MOL    C8824904   1.018   3.472   7.064  0.3816  0.0604 -0.1787
   89MOL    C8924905   1.081   3.566   7.146  0.3406  0.2206 -0.1073
   89MOL    C9024906   1.206   3.634   7.114 -0.2002 -0.2393 -0.1700
   89MOL    C9124907   1.304   3.581   7.029  0.9944  0.5639  0.4486
   89MOL    C9224908   1.026   3.590   7.272 -0.5336  0.2233 -0.1991
   89MOL    C9324909   0.898   3.539   7.305  0.1041 -0.2525  0.5075
   89MOL    H9424910   0.840   3.362   7.018 -0.6465  0.5861 -0.1913
   89MOL    H9524911   1.052   3.448   6.965 -1.4415 -0.4902 -0.6980
   89MOL    H9624912   1.224   3.734   7.151 -2.7456  0.8786 -1.8001
   89MOL    H9724913   1.286   3.482   6.990  0.3134  0.5018  0.9138
   89MOL    H9824914   1.076   3.656   7.342 -0.0777  2.2035 -2.3343
   89MOL    H9924915   0.855   3.581   7.394  3.3660 -0.3655  2.2387
   89MOL   C10024916   1.433   3.638   6.976 -0.0608 -0.4973 -0.2343
   89MOL   C10124917   1.471   3.770   7.007 -0.1344 -0.0464 -0.0379
   89MOL   C10224918   1.575   3.829   6.937  0.1711 -0.0543 -0.4559
   89MOL   C10324919   1.658   3.750   6.855  0.3060  0.3094  0.7416
   89MOL   C10424920   1.770   3.816   6.782  0.1818 -0.5353  0.9369
   89MOL   C10524921   1.837   3.771   6.672  0.4919 -0.1308 -0.6392
   89MOL   C10624922   1.631   3.614   6.841  0.1620  0.0119  0.6388
   89MOL   C10724923   1.513   3.560   6.895 -0.1582 -0.0072  0.0562
   89MOL   H10824924   1.402   3.835   7.058  2.2175  2.3701  0.1938
   89MOL   H10924925   1.595   3.934   6.948 -2.7024  0.3343  1.7091
   89MOL   H11024926   1.798   3.912   6.823  1.7110 -0.5512 -0.0576
   89MOL   H11124927   1.801   3.676   6.637  0.0418 -0.0498 -0.3996
   89MOL   H11224928   1.693   3.543   6.789  0.3046  0.7211 -0.1602
   89MOL   H11324929   1.483   3.457   6.882 -1.7686  0.6744 -1.8206
   89MOL   C11424930   1.934   3.839   6.592 -0.4164  0.0981 -0.2337
   89MOL   C11524931   1.992   3.955   6.645 -0.3603  0.4231  0.6236
   89MOL   C11624932   2.070   4.040   6.562  0.5611  0.4060 -0.2045
   89MOL   C11724933   2.104   4.006   6.426 -0.3467 -0.4701  0.5084
   89MOL   C11824934   2.180   4.105   6.342  0.0144 -0.5336 -0.1751
   89MOL   C11924935   2.181   4.235   6.354  0.4062  0.0805  0.4402
   89MOL   C12024936   2.048   3.885   6.380 -0.3250  0.5040 -0.4981
   89MOL   C12124937   1.968   3.807   6.458  0.2259 -0.1420  0.7027
   89MOL   H12224938   1.976   3.988   6.746 -2.8752  2.1863 -0.2808
   89MOL   H12324939   2.115   4.128   6.606 -0.0726  0.5023  0.2650
   89MOL   H12424940   2.243   4.055   6.270 -1.6532 -2.5816 -0.2703
   89MOL   H12524941   2.119   4.270   6.435 -2.6856  2.2572 -2.7152
   89MOL   H12624942   2.063   3.849   6.279 -1.6315  0.9246 -0.8564
   89MOL   H12724943   1.934   3.719   6.405 -1.4678  2.5470 -2.9146
   89MOL   C12824944   2.245   4.337   6.270 -0.4972 -0.7867  0.3199
   89MOL   C12924945   2.236   4.471   6.308  0.2846  0.3070 -1.3103
   89MOL   C13024946   2.287   4.578   6.226  0.2050  0.7565 -0.2642
   89MOL   C13124947   2.347   4.549   6.102 -0.4455 -0.0127  0.1692
   89MOL   C13224948   2.389   4.647   6.001  0.7062 -0.4184 -0.2361
   89MOL   C13324949   2.416   4.779   6.029  0.0132  0.3492  0.3494
   89MOL   C13424950   2.357   4.411   6.069 -0.2195 -0.5912  0.3739
   89MOL   C13524951   2.307   4.311   6.148  0.2244  0.1941  0.9655
   89MOL   H13624952   2.176   4.503   6.392 -1.3486 -0.8588 -2.0025
   89MOL   H13724953   2.269   4.680   6.258 -1.8508  0.6383 -0.9745
   89MOL   H13824954   2.400   4.617   5.898  1.2706 -0.9101 -0.0354
   89MOL   H13924955   2.424   4.805   6.133  1.6275 -0.3089  0.4041
   89MOL   H14024956   2.396   4.389   5.971  0.2736 -0.4563  0.5346
   89MOL   H14124957   2.302   4.210   6.109  0.5800  0.6289 -0.2385
   89MOL   C14224958   2.432   4.883   5.923  0.6793 -0.3249 -0.4186
   89MOL   C14324959   2.385   5.012   5.956 -0.5929  0.0359 -0.4042
   89MOL   C14424960   2.378   5.106   5.858 -0.2021  0.2469  0.3356
   89MOL   C14524961   2.408   5.076   5.725 -0.5083 -0.3054  0.1501
   89MOL   C14624962   2.359   5.170   5.619 -0.3473  0.5068  0.0712
   89MOL   C14724963   2.336   5.135   5.490 -0.2001  0.0592 -0.1531
   89MOL   C14824964   2.451   4.948   5.694  0.5313 -0.2502 -0.2395
   89MOL   C14924965   2.461   4.852   5.793 -0.7187  0.2357  0.2414
   89MOL   H15024966   2.371   5.039   6.060  1.1653  1.6184 -0.5461
   89MOL   H15124967   2.334   5.199   5.892 -2.4428 -0.2308 -1.1235
   89MOL   H15224968   2.342   5.269   5.660 -0.3660  0.5386 -0.0125
   89MOL   H15324969   2.357   5.034   5.456  0.3982  0.5677 -1.3242
   89MOL   H15424970   2.492   4.936   5.595 -1.6720  2.5891 -1.6062
   89MOL   H15524971   2.506   4.757   5.769 -2.2445 -0.4903  0.1903
   89MOL   C15624972   2.284   5.219   5.385  0.0359 -0.8512 -0.2639
   89MOL   C15724973   2.288   5.171   5.248 -0.0442 -0.4673  0.1894
   89MOL   C15824974   2.231   5.238   5.144 -0.3193 -0.6425  0.2061
   89MOL   C15924975   2.169   5.365   5.168 -0.3969  0.3349  0.6537
   89MOL   C16024976   2.096   5.443   5.058 -0.3915 -0.3808 -0.4504
   89MOL   C16124977   2.120   5.419   4.928  0.0206  0.5343  0.3340
   89MOL   C16224978   2.152   5.410   5.298  0.1322  0.1176 -0.2218
   89MOL   C16324979   2.212   5.337   5.405 -0.2315 -0.0320 -0.6012
   89MOL   H16424980   2.342   5.080   5.228  1.6907  0.8122 -1.0754
   89MOL   H16524981   2.242   5.187   5.049 -1.2246 -1.0003  0.2899
   89MOL   H16624982   2.020   5.514   5.088 -0.2707  0.5160 -2.2208
   89MOL   H16724983   2.198   5.350   4.898 -1.4827 -1.5327  1.0873
   89MOL   H16824984   2.102   5.505   5.307 -1.5321 -0.6290 -1.3702
   89MOL   H16924985   2.199   5.365   5.508  0.0224  3.8771 -1.5779
   89MOL   C17024986   2.050   5.479   4.811  0.3408 -0.5695 -0.5141
   89MOL   C17124987   1.933   5.557   4.842 -0.4257 -0.2349  0.0286
   89MOL   C17224988   1.853   5.600   4.735 -0.4120  0.1175  0.1179
   89MOL   C17324989   1.875   5.555   4.600 -0.1647  0.3186 -0.3197
   89MOL   C17424990   1.783   5.572   4.482 -0.3609 -0.5658  0.4147
   89MOL   C17524991   1.668   5.638   4.484  0.5513  0.8397  0.0840
   89MOL   C17624992   1.988   5.477   4.577 -0.0369 -0.7337  0.2061
   89MOL   C17724993   2.074   5.444   4.682 -0.2922 -0.7335 -0.3004
   89MOL   H17824994   1.893   5.574   4.941  2.6584  1.6567  1.0191
   89MOL   H17924995   1.763   5.656   4.754 -0.7017  0.1461 -1.3025
   89MOL   H18024996   1.812   5.525   4.389 -1.3256  2.4223 -1.4764
   89MOL   H18124997   1.632   5.685   4.574  0.7615  1.0770  0.0451
   89MOL   H18224998   2.005   5.438   4.478  1.0979 -1.8056  0.8076
   89MOL   H18324999   2.149   5.368   4.667 -0.5563 -1.1635  0.5177
   89MOL   C18425000   1.561   5.645   4.372  0.2654  0.3676  0.0863
   89MOL   C18525001   1.482   5.759   4.349 -0.1344 -0.9653 -0.3077
   89MOL   C18625002   1.369   5.749   4.260  0.1147 -0.4756  0.1533
   89MOL   C18725003   1.333   5.634   4.190  0.1172  0.5287  0.1131
   89MOL   C18825004   1.207   5.610   4.124  0.3089 -0.2760  0.2417
   89MOL   C18925005   1.100   5.685   4.131  0.5479  0.0579  0.5207
   89MOL   C19025006   1.422   5.525   4.212 -0.0569  0.4045 -1.0337
   89MOL   C19125007   1.529   5.530   4.301  0.1140  0.2730  0.0667
   89MOL   H19225008   1.505   5.849   4.403  3.0450 -1.7019 -0.3594
   89MOL   H19325009   1.309   5.838   4.245 -0.1865 -0.3830  1.7590
   89MOL   H19425010   1.201   5.528   4.055  0.3602 -0.6291  0.6534
   89MOL   H19525011   1.097   5.771   4.196 -0.9808 -1.1778  2.1193
   89MOL   H19625012   1.392   5.425   4.182 -0.9941  0.5719 -0.6596
   89MOL   H19725013   1.582   5.438   4.322  2.5790  1.3809 -1.0192
   89MOL   C19825014   0.977   5.656   4.043  0.2398  0.1769 -0.2239
   89MOL   C19925015   0.874   5.751   4.051 -0.4275  0.1003 -0.1972
   89MOL   C20025016   0.766   5.740   3.964  0.4415 -0.6484 -0.4464
   89MOL   C20125017   0.758   5.637   3.871  0.7199  0.6496 -0.2485
   89MOL   C20225018   0.638   5.625   3.784 -0.1312  0.4579 -0.4339
   89MOL   C20325019   0.599   5.526   3.700  0.9098  0.6078  0.0290
   89MOL   C20425020   0.857   5.538   3.873  0.7385  0.1700  0.0288
   89MOL   C20525021   0.968   5.546   3.952  0.1083 -0.2604 -0.3767
   89MOL   H20625022   0.891   5.836   4.116  1.7730 -1.8412  1.8719
   89MOL   H20725023   0.690   5.816   3.975  0.7653 -0.6882  2.3985
   89MOL   H20825024   0.573   5.711   3.780 -2.1540 -1.0397 -0.5495
   89MOL   H20925025   0.669   5.444   3.697 -2.6851 -2.5498 -2.2411
   89MOL   H21025026   0.839   5.454   3.807 -0.2640  2.3336 -2.5634
   89MOL   H21125027   1.046   5.471   3.951 -1.1473 -1.5753 -0.7946
   89MOL   C21225028   0.481   5.517   3.614 -0.3166  0.3014  0.1773
   89MOL   C21325029   0.483   5.410   3.515 -0.2441 -0.2617 -0.1921
   89MOL   C21425030   0.376   5.406   3.424  0.0095  0.1184 -0.1446
   89MOL   C21525031   0.262   5.489   3.430  0.2716  0.5555  0.6958
   89MOL   C21625032   0.136   5.464   3.360 -0.6108  0.5272  0.1975
   89MOL   C21725033   0.126   5.379   3.256 -0.1918  0.2141  0.1926
   89MOL   C21825034   0.264   5.589   3.525 -0.5199  0.4251 -0.2031
   89MOL   C21925035   0.369   5.607   3.624  0.7584  0.2705  0.5171
   89MOL   H22025036   0.563   5.340   3.499  0.9909  1.2523 -0.8052
   89MOL   H22125037   0.375   5.314   3.367  1.4512 -0.4567  0.7167
   89MOL   H22225038   0.043   5.515   3.383  0.0800  2.1328 -0.4720
   89MOL   H22325039   0.217   5.328   3.228  0.3117  1.6316 -0.7975
   89MOL   H22425040   0.176   5.653   3.520 -1.2963 -0.7304 -1.8017
   89MOL   H22525041   0.361   5.688   3.696  0.9120  0.0964  0.7312
   89MOL   C22625042   0.000   5.348   3.175  0.1442 -0.1123 -0.4497
   89MOL   C22725043   8.025   5.422   3.190 -0.0730 -0.6344 -0.6615
   89MOL   C22825044   7.914   5.404   3.111  0.3259  0.1679 -0.0424
   89MOL   C22925045   7.907   5.304   3.011 -0.4589 -0.1192 -1.0595
   89MOL   C23025046   7.796   5.285   2.922 -0.4896  0.4291 -0.7552
   89MOL   C23125047   7.677   5.342   2.938  0.1464 -0.6218 -0.0537
   89MOL   C23225048   8.027   5.224   2.992 -0.6014 -0.4501  0.2580
   89MOL   C23325049   8.140   5.250   3.072 -0.2605  0.2390 -0.1814
   89MOL   H23425050   8.014   5.500   3.263  1.4727 -0.3185 -0.7532
   89MOL   H23525051   7.823   5.461   3.121 -0.4519 -0.9846 -0.4954
   89MOL   H23625052   7.810   5.217   2.840 -1.7298 -0.8823  0.0909
   89MOL   H23725053   7.651   5.404   3.022 -0.5342  0.5795 -1.1481
   89MOL   H23825054   8.026   5.150   2.914 -3.6881 -1.8749  1.5504
   89MOL   H23925055   0.071   5.174   3.067 -0.8440 -0.2998 -0.9463
   89MOL   C24025056   7.558   5.330   2.846 -0.5164  0.2498 -0.5836
   89MOL   C24125057   7.436   5.377   2.893  0.1471  0.3439  0.0350
   89MOL   C24225058   7.319   5.385   2.811  0.1242  0.0428 -0.2884
   89MOL   C24325059   7.321   5.350   2.674 -0.3424 -0.0088 -0.2360
   89MOL   C24425060   7.196   5.372   2.594 -0.4292  0.1239  0.2286
   89MOL   C24525061   7.076   5.337   2.640  0.6102  0.4625 -0.5556
   89MOL   C24625062   7.437   5.277   2.630  0.3554 -0.0146  0.0974
   89MOL   C24725063   7.553   5.272   2.713  0.1682  0.9150  0.0718
   89MOL   H24825064   7.431   5.424   2.991  0.1689 -2.2396  1.2989
   89MOL   H24925065   7.233   5.430   2.858  0.0843 -0.9341  0.5986
   89MOL   H25025066   7.216   5.414   2.496 -1.0351 -2.2771 -0.9667
   89MOL   H25125067   7.077   5.288   2.736  3.2443  2.2767  0.4053
   89MOL   H25225068   7.438   5.231   2.532 -0.9565 -0.4469  0.2720
   89MOL   H25325069   7.640   5.224   2.672 -1.1731 -1.4016 -0.1387
   89MOL   C25425070   6.944   5.363   2.584  0.0789  0.1491  0.8551
   89MOL   C25525071   6.933   5.423   2.454  0.0856  0.4849 -0.1031
   89MOL   C25625072   6.812   5.480   2.420  0.0998 -0.0683 -0.2873
   89MOL   C25725073   6.689   5.444   2.484 -0.0312  0.3134 -0.6268
   89MOL   C25825074   6.563   5.495   2.436  0.1648 -0.3599 -0.1147
   89MOL   C25925075   6.493   5.609   2.466  0.6601  0.3524 -0.2701
   89MOL   C26025076   6.705   5.372   2.606 -0.6017 -0.5159  0.4153
   89MOL   C26125077   6.829   5.336   2.665 -0.1316  0.0334  0.5749
   89MOL   H26225078   7.020   5.443   2.394  0.2602 -0.9147 -0.3212
   89MOL   H26325079   6.804   5.527   2.323  0.8560  1.7520  0.5018
   89MOL   H26425080   6.522   5.430   2.360  0.3861 -2.6977  1.7052
   89MOL   H26525081   6.395   5.604   2.421  0.9197 -1.6795 -0.6903
   89MOL   H26625082   6.615   5.357   2.664 -0.6729  0.7869  0.6724
   89MOL   H26725083   6.826   5.282   2.758 -0.1435 -0.2814  0.3929
   89MOL   C26825084   6.522   5.720   2.550  0.5295 -0.3824 -0.0380
   89MOL   C26925085   6.422   5.818   2.556  0.4875 -0.3533  0.0312
   89MOL   C27025086   6.445   5.939   2.630 -0.1426 -0.3937  0.3312
   89MOL   C27125087   6.566   5.960   2.691 -0.1235  1.0045  0.0220
   89MOL   C27225088   6.601   6.080   2.774  0.6498  0.5044  0.4147
   89MOL   C27325089   6.518   6.181   2.798  0.3015  0.1742 -0.4022
   89MOL   C27425090   6.663   5.854   2.692 -0.8319  0.5326  0.2655
   89MOL   C27525091   6.642   5.741   2.615  0.1877  0.4234  0.5881
   89MOL   H27625092   6.328   5.810   2.504 -0.4846  2.0280  1.3686
   89MOL   H27725093   6.369   6.013   2.650  1.0867  1.4246 -1.6175
   89MOL   H27825094   6.694   6.069   2.827  0.3034  0.5322  1.0323
   89MOL   H27925095   6.418   6.189   2.757  0.9935  0.6875 -2.0083
   89MOL   H28025096   6.754   5.878   2.746  0.4897 -0.0771 -1.6216
   89MOL   H28125097   6.724   5.670   2.620  1.9139  2.2593 -0.6487
   89MOL   H28225098   6.544   6.259   2.868 -0.0069 -0.3332  0.2820
   90MOL     C125099   5.358   0.395   7.120 -0.3320 -0.1467 -0.4042
   90MOL     C225100   5.402   0.477   7.225  0.4624 -0.5747 -0.4061
   90MOL     C325101   5.532   0.522   7.225  0.6724 -0.1204  0.4343
   90MOL     C425102   5.626   0.483   7.128 -0.1346 -0.2481 -0.0511
   90MOL     C525103   5.764   0.535   7.134  0.1680 -0.3471  0.3623
   90MOL     C625104   5.849   0.558   7.030  0.3130  0.5495 -0.1754
   90MOL     C725105   5.585   0.401   7.026 -0.0182  0.3081 -0.2099
   90MOL     C825106   5.448   0.359   7.018 -0.4891  0.1094 -0.2890
   90MOL     H925107   5.331   0.508   7.300  0.2026  0.4052 -1.0491
   90MOL    H1025108   5.556   0.592   7.303  0.4230 -0.3166  0.6841
   90MOL    H1125109   5.799   0.551   7.235  2.1913  0.4030 -0.4556
   90MOL    H1225110   5.818   0.522   6.933 -0.0827  0.6278 -0.0801
   90MOL    H1325111   5.657   0.372   6.952  0.8204  0.9734  0.3246
   90MOL    H1425112   5.407   0.310   6.931  0.0867  0.0200 -0.5107
   90MOL    H1525113   5.254   0.369   7.112 -0.4205  0.4766 -1.4397
   90MOL    C1625114   5.984   0.611   7.046 -0.0781  0.1926  0.2129
   90MOL    C1725115   6.035   0.653   7.168  0.1716 -0.7052 -0.0912
   90MOL    C1825116   6.167   0.708   7.175 -0.2227  0.7856  0.7442
   90MOL    C1925117   6.240   0.733   7.052  0.8742  1.2502 -0.3271
   90MOL    C2025118   6.376   0.782   7.071 -1.2953  0.1757  0.1508
   90MOL    C2125119   6.463   0.819   6.978  0.0130 -0.8535 -0.1333
   90MOL    C2225120   6.174   0.713   6.927 -0.3250 -0.0752 -0.0700
   90MOL    C2325121   6.053   0.646   6.926 -0.0208 -0.7049  0.1446
   90MOL    H2425122   5.977   0.663   7.259  0.0622 -0.9337 -0.1368
   90MOL    H2525123   6.201   0.752   7.268 -1.6300  2.0418  0.6867
   90MOL    H2625124   6.405   0.782   7.175  0.5390 -1.8423 -0.3404
   90MOL    H2725125   6.433   0.823   6.874 -1.1388 -1.0783  0.1785
   90MOL    H2825126   6.219   0.745   6.834 -2.8558  1.0211 -0.9622
   90MOL    H2925127   5.999   0.624   6.835  0.8204  1.9529 -1.0587
   90MOL    C3025128   6.603   0.852   7.006  0.6237 -0.2876 -0.7224
   90MOL    C3125129   6.653   0.877   7.138 -0.3493 -0.8706 -0.2900
   90MOL    C3225130   6.792   0.902   7.155  0.6500 -0.1284 -0.0725
   90MOL    C3325131   6.885   0.904   7.044  0.5289 -0.0013 -0.2702
   90MOL    C3425132   7.032   0.909   7.069  0.4094  0.1301 -0.6595
   90MOL    C3525133   7.076   0.969   7.184 -0.2044 -0.4095 -0.1788
   90MOL    C3625134   6.830   0.898   6.916  0.1356 -0.4965 -0.0649
   90MOL    C3725135   6.696   0.859   6.901 -0.5075  0.3953  0.5862
   90MOL    H3825136   6.601   0.896   7.231 -0.2037 -1.2517 -0.1286
   90MOL    H3925137   6.832   0.916   7.254 -1.3455  1.0989  0.5798
   90MOL    H4025138   7.093   0.853   7.000 -2.4135 -2.1273 -1.3800
   90MOL    H4125139   7.008   1.024   7.248 -2.8424 -1.4461 -2.0566
   90MOL    H4225140   6.887   0.910   6.825  0.7861  0.6480  0.4823
   90MOL    H4325141   6.656   0.853   6.801 -0.6510  0.3631  0.6456
   90MOL    C4425142   7.222   0.974   7.228 -0.2555 -0.0423 -0.0321
   90MOL    C4525143   7.271   1.069   7.327 -0.0254  0.2612  0.2508
   90MOL    C4625144   7.411   1.088   7.348 -0.8878  0.2765 -0.6955
   90MOL    C4725145   7.498   1.009   7.272 -0.2312  0.0137 -0.5066
   90MOL    C4825146   7.641   1.023   7.292  0.1935  0.5855 -0.2291
   90MOL    C4925147   7.708   1.120   7.358  0.6678 -0.8248  0.4351
   90MOL    C5025148   7.448   0.906   7.191 -0.6028  0.2462 -0.1542
   90MOL    C5125149   7.313   0.890   7.164 -0.3889  0.5276  0.3870
   90MOL    H5225150   7.201   1.123   7.389  0.4548 -0.9351  1.8654
   90MOL    H5325151   7.437   1.170   7.413  0.1532 -0.4148 -0.2201
   90MOL    H5425152   7.696   0.945   7.242 -0.5446 -1.7523  2.4939
   90MOL    H5525153   7.655   1.201   7.406  0.8984  0.0351 -0.7385
   90MOL    H5625154   7.515   0.843   7.134 -0.9147 -0.0775 -0.1670
   90MOL    H5725155   7.290   0.822   7.084  0.4142 -0.3561  0.9005
   90MOL    C5825156   7.856   1.120   7.372  0.2070  0.6469  1.0751
   90MOL    C5925157   7.943   1.024   7.312  0.7230  0.5468 -1.0738
   90MOL    C6025158   8.086   1.038   7.328 -0.4064 -0.3256  0.5734
   90MOL    C6125159   8.136   1.133   7.417  0.4289  0.3481  0.0368
   90MOL    C6225160   0.129   1.155   7.454  0.0469  0.5720  0.4524
   90MOL    C6325161   0.235   1.114   7.381 -0.4214  0.0336  0.3829
   90MOL    C6425162   8.045   1.231   7.466  0.1817  0.4119 -0.2479
   90MOL    C6525163   7.907   1.224   7.446  0.8958 -0.3301  0.2898
   90MOL    H6625164   7.903   0.947   7.248  1.7049 -2.8472  2.2247
   90MOL    H6725165   0.001   0.962   7.279  1.6137 -0.9892  3.9276
   90MOL    H6825166   0.145   1.222   7.537 -1.0884  2.3594 -0.7269
   90MOL    H6925167   0.210   1.052   7.296  0.6777  0.0009  0.0717
   90MOL    H7025168   8.081   1.310   7.530 -1.8037  1.8606 -0.8704
   90MOL    H7125169   7.837   1.291   7.494  0.3879 -0.0354 -0.8613
   90MOL    C7225170   0.380   1.153   7.407 -0.5035  0.2297  0.6179
   90MOL    C7325171   0.417   1.228   7.522  1.0018 -0.9458 -0.5631
   90MOL    C7425172   0.548   1.280   7.534  0.1055  0.1645 -0.4419
   90MOL    C7525173   0.639   1.249   7.429  0.3004  0.0173 -0.5616
   90MOL    C7625174   0.783   1.297   7.442 -0.7706 -0.0640  0.0896
   90MOL    C7725175   0.880   1.288   7.347  0.0336  0.0544  0.4081
   90MOL    C7825176   0.600   1.174   7.310 -0.7895 -0.5217  0.5544
   90MOL    C7925177   0.471   1.123   7.304 -0.3842  0.6959 -0.0836
   90MOL    H8025178   0.352   1.253   7.604  2.3377 -0.9301  0.5067
   90MOL    H8125179   0.574   1.338   7.621 -0.3456 -0.5307  0.1621
   90MOL    H8225180   0.804   1.358   7.528 -1.2787  0.5625 -0.2240
   90MOL    H8325181   0.850   1.231   7.260 -1.9901 -2.2640  2.5253
   90MOL    H8425182   0.672   1.159   7.231 -0.8274  0.9254  0.2318
   90MOL    H8525183   0.443   1.069   7.215 -0.9272  2.2469 -0.8558
   90MOL    C8625184   1.016   1.344   7.354 -0.2798 -0.1674  0.0973
   90MOL    C8725185   1.108   1.329   7.248  0.2306  0.6761 -0.1614
   90MOL    C8825186   1.229   1.397   7.248  0.1024 -0.4608 -0.3072
   90MOL    C8925187   1.258   1.480   7.359  0.1394  0.2645  0.0202
   90MOL    C9025188   1.388   1.545   7.370 -0.7006 -0.9469  0.2011
   90MOL    C9125189   1.501   1.521   7.298  0.3469  0.1150  0.3545
   90MOL    C9225190   1.167   1.497   7.465 -0.2124 -0.1020  0.3919
   90MOL    C9325191   1.054   1.422   7.463  0.1195 -0.7465 -0.7271
   90MOL    H9425192   1.086   1.260   7.168 -2.0433  1.3420 -0.1505
   90MOL    H9525193   1.304   1.381   7.172 -1.3385 -0.1175 -1.8156
   90MOL    H9625194   1.384   1.621   7.446  0.7210  0.2691 -0.9140
   90MOL    H9725195   1.497   1.440   7.226 -2.0793 -1.1322  1.8026
   90MOL    H9825196   1.188   1.570   7.543  1.6751  1.4250 -1.4807
   90MOL    H9925197   0.992   1.445   7.549 -1.0397  0.4172 -1.8440
   90MOL   C10025198   1.634   1.592   7.306 -0.1471  0.6005  0.1751
   90MOL   C10125199   1.668   1.684   7.411  0.1412 -0.1972  0.8329
   90MOL   C10225200   1.781   1.767   7.409 -0.4909 -0.3851 -0.2855
   90MOL   C10325201   1.869   1.760   7.300 -0.0658 -0.2526 -0.3662
   90MOL   C10425202   1.980   1.857   7.281 -0.2140  0.7785 -0.5052
   90MOL   C10525203   2.046   1.879   7.166 -0.0023  0.2420  0.1659
   90MOL   C10625204   1.839   1.662   7.197 -0.0863  0.5712 -0.1547
   90MOL   C10725205   1.728   1.579   7.203  0.2433  0.6438 -0.3565
   90MOL   H10825206   1.599   1.703   7.492 -0.1426 -2.1105  1.0566
   90MOL   H10925207   1.794   1.841   7.487  1.1804 -1.9927  1.0134
   90MOL   H11025208   2.012   1.919   7.364  2.8798  0.3720 -1.3131
   90MOL   H11125209   2.024   1.819   7.080 -0.6622 -0.8716  1.1072
   90MOL   H11225210   1.897   1.644   7.107  0.1089 -1.1799  0.3038
   90MOL   H11325211   1.711   1.504   7.127  0.6933 -0.8507  0.9993
   90MOL   C11425212   2.154   1.985   7.146  0.0968  0.2094  0.0969
   90MOL   C11525213   2.208   1.999   7.019  0.2055  0.1960  0.5085
   90MOL   C11625214   2.293   2.108   6.990 -0.2603 -0.3182  0.1909
   90MOL   C11725215   2.319   2.214   7.082  0.0286 -0.0720 -0.0379
   90MOL   C11825216   2.386   2.340   7.058  0.0622  0.2783 -0.2488
   90MOL   C11925217   2.452   2.369   6.944  0.0602  0.5843  0.5348
   90MOL   C12025218   2.269   2.192   7.216  0.2215 -0.2384 -0.3052
   90MOL   C12125219   2.189   2.081   7.249 -0.0056  0.5618  0.5903
   90MOL   H12225220   2.177   1.930   6.941  1.6375  0.1093  0.0002
   90MOL   H12325221   2.325   2.123   6.888 -1.8518 -1.0709 -0.4343
   90MOL   H12425222   2.378   2.405   7.144 -2.5649 -2.5312  1.7458
   90MOL   H12525223   2.450   2.300   6.860 -0.9724 -1.1081  1.9198
   90MOL   H12625224   2.285   2.271   7.288 -0.3026 -1.3691  1.0657
   90MOL   H12725225   2.149   2.073   7.349 -1.0449  0.5185  0.1789
   90MOL   C12825226   2.526   2.491   6.921 -0.1083  1.5321  0.3648
   90MOL   C12925227   2.544   2.544   6.797 -0.3516 -0.0399 -0.2285
   90MOL   C13025228   2.633   2.651   6.771 -0.0055  0.2880 -0.4044
   90MOL   C13125229   2.698   2.719   6.876  0.8747 -0.2634  0.0867
   90MOL   C13225230   2.787   2.830   6.848 -0.1199  0.6812 -0.1004
   90MOL   C13325231   2.873   2.878   6.940  0.3869  0.2064  0.1488
   90MOL   C13425232   2.668   2.679   7.006 -0.1740  0.4883  0.1168
   90MOL   C13525233   2.581   2.569   7.027  0.7942 -0.7591  0.1525
   90MOL   H13625234   2.497   2.485   6.719 -1.7075  1.0975 -0.2905
   90MOL   H13725235   2.651   2.671   6.667  2.4761 -0.0191 -0.0656
   90MOL   H13825236   2.786   2.876   6.751  2.7497 -1.8818 -1.4404
   90MOL   H13925237   2.869   2.848   7.044 -2.1301 -1.2751 -0.3529
   90MOL   H14025238   2.691   2.748   7.085  0.7232 -1.1861  1.3536
   90MOL   H14125239   2.563   2.532   7.127 -0.2865 -1.4691 -0.2961
   90MOL   C14225240   2.983   2.970   6.909  0.2537  0.2986 -0.7491
   90MOL   C14325241   3.033   2.998   6.779 -0.3318  0.2406 -0.4492
   90MOL   C14425242   3.148   3.078   6.762  0.4616 -0.7073  0.5545
   90MOL   C14525243   3.226   3.122   6.873 -0.1437  0.1354 -0.5319
   90MOL   C14625244   3.351   3.196   6.839 -0.2259  0.5303  0.1993
   90MOL   C14725245   3.421   3.277   6.924 -0.1713 -0.7498 -0.3489
   90MOL   C14825246   3.169   3.096   7.001  0.7897 -0.2953  0.2257
   90MOL   C14925247   3.054   3.015   7.022 -0.5013 -0.1242  0.5910
   90MOL   H15025248   2.993   2.960   6.686 -0.8656 -1.4855  0.4655
   90MOL   H15125249   3.177   3.097   6.660 -1.6551  1.3320  0.3106
   90MOL   H15225250   3.401   3.180   6.744 -0.5828 -0.0578  0.1089
   90MOL   H15325251   3.383   3.293   7.023  0.3958 -1.0020 -0.0919
   90MOL   H15425252   3.210   3.135   7.093  1.5452 -0.4009 -0.0639
   90MOL   H15525253   3.025   2.985   7.121  2.3515  2.6810  2.3629
   90MOL   C15625254   3.531   3.369   6.889  0.3205  0.2889 -1.0264
   90MOL   C15725255   3.600   3.351   6.764  0.2409 -0.0176  0.3114
   90MOL   C15825256   3.682   3.456   6.721 -0.5470  0.1601  0.9530
   90MOL   C15925257   3.704   3.573   6.794 -0.0356 -0.9483  0.6075
   90MOL   C16025258   3.783   3.691   6.750  1.3025  0.4158 -0.6346
   90MOL   C16125259   3.737   3.812   6.769  0.0401 -0.1009  0.4546
   90MOL   C16225260   3.641   3.583   6.918  0.0925  0.4646  0.0552
   90MOL   C16325261   3.551   3.487   6.962  0.2334  0.3754 -0.1741
   90MOL   H16425262   3.580   3.263   6.705 -1.1238  0.8318 -0.5041
   90MOL   H16525263   3.734   3.447   6.627 -2.3727  0.9976 -0.1772
   90MOL   H16625264   3.873   3.657   6.701 -0.3053 -1.8438 -2.1020
   90MOL   H16725265   3.654   3.839   6.831 -0.0878  1.1774 -0.2397
   90MOL   H16825266   3.657   3.663   6.989  1.8089  1.4720 -1.4026
   90MOL   H16925267   3.500   3.495   7.057 -2.0261 -2.2635 -1.1086
   90MOL   C17025268   3.808   3.929   6.707 -0.2920  0.4472  0.1426
   90MOL   C17125269   3.924   3.919   6.625  0.0111 -0.8841  0.1437
   90MOL   C17225270   3.972   4.034   6.557 -0.0840  0.2847  0.1896
   90MOL   C17325271   3.912   4.161   6.570 -0.5595 -0.7178  0.5813
   90MOL   C17425272   3.958   4.273   6.496  0.2030  0.1310  0.4162
   90MOL   C17525273   4.001   4.259   6.368  0.1689  0.2609  0.5661
   90MOL   C17625274   3.805   4.170   6.661 -0.3395 -0.1641  0.0525
   90MOL   C17725275   3.748   4.054   6.724 -0.1592 -0.1230 -0.2341
   90MOL   H17825276   3.973   3.823   6.612  1.0646 -0.3077 -0.2163
   90MOL   H17925277   4.050   4.020   6.484 -0.1523 -5.0488  0.9284
   90MOL   H18025278   3.980   4.366   6.548  1.5138 -0.1689  0.4360
   90MOL   H18125279   3.979   4.168   6.313 -1.4294  1.5137 -0.9286
   90MOL   H18225280   3.757   4.265   6.681 -1.0994 -0.1479 -1.7465
   90MOL   H18325281   3.656   4.070   6.778  0.5279 -0.9646  1.1739
   90MOL   C18425282   4.062   4.361   6.286 -0.1621 -0.1237 -0.6269
   90MOL   C18525283   4.052   4.364   6.144  0.0005 -0.0785  0.4060
   90MOL   C18625284   4.110   4.465   6.063 -0.1503 -1.0786 -0.1933
   90MOL   C18725285   4.168   4.578   6.125  0.2091  0.5837  0.2315
   90MOL   C18825286   4.195   4.701   6.055  0.0830 -0.6619 -0.1670
   90MOL   C18925287   4.176   4.729   5.922  0.0316  0.2565 -0.5183
   90MOL   C19025288   4.180   4.582   6.268 -0.1726  0.0958 -1.2763
   90MOL   C19125289   4.137   4.469   6.340 -0.1987  0.1514  0.1213
   90MOL   H19225290   4.007   4.273   6.107 -0.9357 -0.0996  1.5640
   90MOL   H19325291   4.089   4.456   5.957 -3.7760  0.9023  0.2786
   90MOL   H19425292   4.236   4.778   6.118 -2.3331  0.3987  0.1687
   90MOL   H19525293   4.141   4.648   5.860 -0.6251 -0.0312  0.2248
   90MOL   H19625294   4.229   4.665   6.317 -2.1837  0.4552  0.1635
   90MOL   H19725295   4.163   4.477   6.444  0.3126  1.8196 -0.1165
   90MOL   C19825296   4.197   4.860   5.853  0.1320 -0.0707 -0.2261
   90MOL   C19925297   4.138   4.870   5.729  0.1227 -0.0130  0.3472
   90MOL   C20025298   4.090   4.992   5.682 -0.1962 -0.0751  0.2661
   90MOL   C20125299   4.143   5.108   5.745  0.2493 -0.7533 -0.4674
   90MOL   C20225300   4.114   5.247   5.700 -0.1664  0.9602 -0.8533
   90MOL   C20325301   4.041   5.275   5.591 -0.1805  0.4494 -0.6946
   90MOL   C20425302   4.230   5.100   5.856 -0.1422  0.5678 -0.3016
   90MOL   C20525303   4.258   4.973   5.913  0.1497 -0.3087  0.2218
   90MOL   H20625304   4.107   4.779   5.680 -0.9866  0.3700  0.3138
   90MOL   H20725305   4.033   5.005   5.591 -0.6265  2.4983  0.8728
   90MOL   H20825306   4.147   5.324   5.768  0.7790  0.0652 -0.2931
   90MOL   H20925307   3.992   5.194   5.539 -3.6025  1.6335  0.5532
   90MOL   H21025308   4.264   5.185   5.912  0.0663  0.3451 -0.0929
   90MOL   H21125309   4.301   4.979   6.012  2.8122 -0.3925 -0.8748
   90MOL   C21225310   4.019   5.409   5.539 -0.8010  0.8990 -0.0205
   90MOL   C21325311   3.937   5.416   5.425 -0.8568 -0.1237 -0.9289
   90MOL   C21425312   3.913   5.541   5.368 -0.3870  0.1111  0.4904
   90MOL   C21525313   3.965   5.656   5.426  1.0617 -0.6114  0.4754
   90MOL   C21625314   3.939   5.784   5.360 -0.1826  0.3080  0.2416
   90MOL   C21725315   3.986   5.904   5.397 -0.7552  0.0784  0.5486
   90MOL   C21825316   4.042   5.653   5.538 -0.5332 -0.8813  0.2797
   90MOL   C21925317   4.081   5.527   5.594  0.2946 -0.0590  1.3531
   90MOL   H22025318   3.899   5.321   5.391  0.8586 -1.0058 -0.4568
   90MOL   H22125319   3.856   5.540   5.276  0.9478 -0.0805 -0.3448
   90MOL   H22225320   3.873   5.781   5.274 -1.9913  1.0068  1.5879
   90MOL   H22325321   4.055   5.927   5.477  1.6896  1.1581 -1.8202
   90MOL   H22425322   4.081   5.741   5.587 -1.4766 -0.0395 -0.4462
   90MOL   H22525323   4.134   5.528   5.689  1.3521  0.4657  0.7698
   90MOL   C22625324   3.939   6.029   5.336  0.8787  0.0664  0.2764
   90MOL   C22725325   3.809   6.042   5.295 -0.2165  0.2679 -0.3871
   90MOL   C22825326   3.767   6.169   5.243 -0.2203 -0.3156  0.5960
   90MOL   C22925327   3.854   6.281   5.232 -0.2797 -0.6939 -0.0485
   90MOL   C23025328   3.813   6.414   5.179  0.4742  0.5571 -0.0526
   90MOL   C23125329   3.692   6.447   5.138 -0.0481  0.2720  0.1393
   90MOL   C23225330   3.988   6.260   5.274  0.2973 -0.2867  1.1830
   90MOL   C23325331   4.030   6.139   5.328  0.1632 -0.0196 -0.2513
   90MOL   H23425332   3.733   5.968   5.314  0.9867 -1.2372 -1.2666
   90MOL   H23525333   3.663   6.182   5.217  0.4078  2.4032 -0.7210
   90MOL   H23625334   3.893   6.486   5.194  0.2370  0.9841 -0.8249
   90MOL   H23725335   3.607   6.384   5.116 -0.6780  1.1926 -0.1116
   90MOL   H23825336   4.060   6.339   5.262  0.4455 -0.1217  3.0799
   90MOL   H23925337   4.134   6.135   5.357 -0.3392  0.5006  1.6747
   90MOL   C24025338   3.645   6.590   5.137  0.3928 -0.5220 -0.3727
   90MOL   C24125339   3.542   6.632   5.054  0.3319  0.5340  0.2685
   90MOL   C24225340   3.506   6.765   5.054  0.0060 -0.0860  0.0045
   90MOL   C24325341   3.564   6.858   5.140  0.0200 -0.1405  0.1246
   90MOL   C24425342   3.518   6.993   5.146 -0.7765 -0.2785  0.4074
   90MOL   C24525343   3.426   7.047   5.065 -0.0464  0.0404  0.2406
   90MOL   C24625344   3.655   6.813   5.238 -0.4232  0.6030 -0.2217
   90MOL   C24725345   3.704   6.680   5.238  0.7454  0.0215 -0.3971
   90MOL   H24825346   3.486   6.576   4.981  3.0598 -0.6185 -0.9964
   90MOL   H24925347   3.444   6.795   4.971 -0.6806 -1.5395 -0.0271
   90MOL   H25025348   3.562   7.060   5.219  0.6283 -0.8252  0.0924
   90MOL   H25125349   3.377   6.978   4.997 -0.8220  1.4758 -0.6860
   90MOL   H25225350   3.703   6.878   5.309  0.9168 -0.2715 -0.3183
   90MOL   H25325351   3.772   6.644   5.313  1.8369  3.1341  0.1479
   90MOL   C25425352   3.378   7.190   5.057  0.2388  0.1510 -0.2103
   90MOL   C25525353   3.432   7.308   5.117  0.4514 -0.6657  0.6753
   90MOL   C25625354   3.372   7.435   5.111  0.3220  0.1652 -0.0372
   90MOL   C25725355   3.244   7.444   5.053 -0.4496 -0.0544 -0.0138
   90MOL   C25825356   3.168   7.568   5.063 -0.5948  0.8940  0.2192
   90MOL   C25925357   3.037   7.592   5.081  0.8965 -0.1486 -0.2816
   90MOL   C26025358   3.180   7.332   4.996 -0.4164 -0.0103  0.3809
   90MOL   C26125359   3.252   7.210   5.000  0.1908 -0.0666 -0.6287
   90MOL   H26225360   3.531   7.306   5.161  0.5141  0.3547  0.5974
   90MOL   H26325361   3.419   7.515   5.167 -0.7845  0.6926  0.1469
   90MOL   H26425362   3.238   7.649   5.053  0.2894  0.3130  1.4557
   90MOL   H26525363   3.017   7.698   5.081 -0.8044 -0.4364  1.3203
   90MOL   H26625364   3.078   7.336   4.961  0.8350  1.1058 -3.4242
   90MOL   H26725365   3.201   7.121   4.968 -2.9249  2.9178 -4.5856
   90MOL   C26825366   2.912   7.510   5.094 -0.0052  0.2094  0.6608
   90MOL   C26925367   2.910   7.377   5.148  0.2491  0.6523 -0.0593
   90MOL   C27025368   2.789   7.303   5.143 -0.3527 -0.5016 -0.3471
   90MOL   C27125369   2.664   7.355   5.099 -0.5208 -0.6199  0.2792
   90MOL   C27225370   2.541   7.263   5.108 -0.3071 -0.3143 -0.1065
   90MOL   C27325371   2.414   7.291   5.076  0.3529 -0.1424 -0.0976
   90MOL   C27425372   2.666   7.490   5.061 -0.3213 -0.3822 -0.0895
   90MOL   C27525373   2.786   7.567   5.061  0.4147 -0.4758 -0.3096
   90MOL   H27625374   2.998   7.332   5.192 -1.7674 -0.7886  2.6343
   90MOL   H27725375   2.797   7.205   5.189 -1.1153 -1.0006 -1.2517
   90MOL   H27825376   2.566   7.164   5.144  1.6097 -0.7460 -2.5013
   90MOL   H27925377   2.392   7.391   5.042  0.1760  0.5699  2.0548
   90MOL   H28025378   2.575   7.538   5.027 -0.3120  1.6454  2.6258
   90MOL   H28125379   2.780   7.670   5.031  0.4339 -0.8409 -1.6129
   90MOL   H28225380   2.342   7.214   5.097  2.2375 -1.9516 -0.1316
   91MOL     C125381   0.959   2.139   6.524  0.2030 -0.1451 -0.5172
   91MOL     C225382   1.095   2.118   6.505 -0.4510  0.6620  0.2443
   91MOL     C325383   1.188   2.188   6.585  0.5283  0.4653  0.6024
   91MOL     C425384   1.147   2.268   6.687 -0.2851  0.0957 -0.2147
   91MOL     C525385   1.244   2.335   6.784  0.5733  1.5427  0.2806
   91MOL     C625386   1.375   2.327   6.796 -1.0046  0.0072  0.1077
   91MOL     C725387   1.009   2.288   6.705 -0.2111 -0.7292 -0.2054
   91MOL     C825388   0.918   2.223   6.623  0.4704 -0.2196  0.6665
   91MOL     H925389   1.129   2.057   6.423  2.8455  0.6994  1.5089
   91MOL    H1025390   1.289   2.153   6.570  0.3540 -2.1040  4.6513
   91MOL    H1125391   1.189   2.400   6.851  1.0588  1.5661  0.6589
   91MOL    H1225392   1.431   2.268   6.725  0.1518  0.9655  0.2134
   91MOL    H1325393   0.970   2.343   6.790 -1.7769 -2.1071 -0.0211
   91MOL    H1425394   0.814   2.245   6.637  0.5446  1.2356 -0.8902
   91MOL    H1525395   0.894   2.089   6.453 -0.3199  0.5245 -0.5158
   91MOL    C1625396   1.454   2.391   6.900  0.1286  0.3061  0.2697
   91MOL    C1725397   1.399   2.426   7.022 -0.5531  0.4078 -0.5125
   91MOL    C1825398   1.479   2.489   7.117  0.0373 -0.7210 -0.0723
   91MOL    C1925399   1.616   2.518   7.089 -0.0021  0.4192 -0.3661
   91MOL    C2025400   1.678   2.594   7.191 -0.0162 -0.2325 -0.7617
   91MOL    C2125401   1.795   2.657   7.185  0.6535 -0.2230 -0.0110
   91MOL    C2225402   1.670   2.492   6.964 -0.1779 -0.2461  0.0690
   91MOL    C2325403   1.589   2.425   6.871  0.1234  0.5194 -1.0888
   91MOL    H2425404   1.299   2.403   7.055 -0.2713  0.4606  0.3708
   91MOL    H2525405   1.444   2.504   7.218  2.6289 -0.4578  0.8137
   91MOL    H2625406   1.625   2.604   7.285  0.1540  2.4740 -0.9088
   91MOL    H2725407   1.854   2.655   7.094  0.7513  1.4978 -0.0039
   91MOL    H2825408   1.772   2.507   6.933 -0.5400 -0.4069 -1.2350
   91MOL    H2925409   1.626   2.396   6.774  1.1821  2.4451 -1.2718
   91MOL    C3025410   1.852   2.736   7.292  0.1627  0.5649  0.0375
   91MOL    C3125411   1.808   2.730   7.422  0.7118  0.3017  0.4209
   91MOL    C3225412   1.866   2.807   7.525  0.0933  0.0768 -0.3370
   91MOL    C3325413   1.972   2.892   7.500  0.0669  0.3311  0.4955
   91MOL    C3425414   2.025   2.968   7.622 -0.9755 -0.3588  0.2294
   91MOL    C3525415   2.117   3.063   7.624  0.3463  0.1301  0.5325
   91MOL    C3625416   2.014   2.906   7.365  0.3888 -0.4870 -0.1578
   91MOL    C3725417   1.954   2.833   7.259  0.9970  0.1059  0.3836
   91MOL    H3825418   1.722   2.678   7.463 -0.2102  1.9355  0.6126
   91MOL    H3925419   1.815   2.801   7.620  1.0797 -0.8686  0.1432
   91MOL    H4025420   1.982   2.932   7.714  1.4415  0.4674  1.7189
   91MOL    H4125421   2.143   3.100   7.526 -1.9376 -0.7230 -0.4181
   91MOL    H4225422   2.087   2.979   7.334  0.2810  0.0861  0.8971
   91MOL    H4325423   1.982   2.846   7.156 -1.6877 -2.3784 -0.7561
   91MOL    C4425424   2.183   3.120   7.751 -1.0143  0.2621  0.7481
   91MOL    C4525425   2.161   3.054   7.876  0.9590 -0.3198  0.4695
   91MOL    C4625426   2.204   3.116   7.990  0.5723  0.1233  0.0849
   91MOL    C4725427   2.289   3.225   7.983  0.4218  0.4054  0.1205
   91MOL    C4825428   2.327   3.288   8.110 -0.3216  0.0785 -0.3976
   91MOL    C4925429   2.226   3.333   0.044  0.3204 -0.1860 -0.5365
   91MOL    C5025430   2.314   3.294   7.867 -0.2143 -0.0819 -0.7031
   91MOL    C5125431   2.253   3.243   7.751 -0.6307  0.2538  0.5450
   91MOL    H5225432   2.116   2.956   7.883  1.5505 -0.5698  0.8467
   91MOL    H5325433   2.188   3.077   8.090 -0.8809 -0.5554 -0.4058
   91MOL    H5425434   2.432   3.304   8.127 -0.4248 -1.2673  1.7207
   91MOL    H5525435   2.124   3.304   0.029 -0.5137  1.3932  1.8225
   91MOL    H5625436   2.355   3.394   7.861  0.8083 -0.5251 -1.2395
   91MOL    H5725437   2.281   3.294   7.660 -1.1959  0.4285  0.4660
   91MOL    C5825438   2.250   3.413   0.165  0.0965 -1.1962  0.3510
   91MOL    C5925439   2.132   3.442   0.246  0.0979 -0.2367 -0.6087
   91MOL    C6025440   2.152   3.517   0.368  0.7304 -0.0478  0.5119
   91MOL    C6125441   2.277   3.559   0.411  0.1708  0.3561  0.0789
   91MOL    C6225442   2.289   3.628   0.541 -0.3765  0.9239  0.5307
   91MOL    C6325443   2.204   3.600   0.639 -0.1641  0.1330 -0.0663
   91MOL    C6425444   2.391   3.530   0.330  0.0832  0.6481  0.0617
   91MOL    C6525445   2.376   3.445   0.212  0.2228  0.8695 -0.2338
   91MOL    H6625446   2.037   3.395   0.223  0.5650 -0.6032 -1.8683
   91MOL    H6725447   2.061   3.548   0.416 -0.7422  0.4867 -2.4956
   91MOL    H6825448   2.368   3.702   0.541  2.7008 -2.2460  1.5975
   91MOL    H6925449   2.134   3.519   0.622  0.8034 -0.5354 -0.8919
   91MOL    H7025450   2.489   3.568   0.355  0.0955 -0.2381  1.3830
   91MOL    H7125451   2.468   3.410   0.169 -0.7585 -0.3432 -1.3673
   91MOL    C7225452   2.192   3.669   0.767  0.0505  0.7454  0.4012
   91MOL    C7325453   2.108   3.615   0.875  0.0107  0.3786 -0.0015
   91MOL    C7425454   2.095   3.685   0.999  0.3253  0.4186 -0.1283
   91MOL    C7525455   2.172   3.803   1.023 -0.2674 -0.0201  0.0544
   91MOL    C7625456   2.147   3.874   1.149 -0.0703  0.2868  0.4823
   91MOL    C7725457   2.217   3.981   1.198 -0.2961 -0.2388  0.2872
   91MOL    C7825458   2.249   3.853   0.917  0.2696  1.0099 -0.0080
   91MOL    C7925459   2.265   3.783   0.790 -0.1348  0.2059  0.0729
   91MOL    H8025460   2.047   3.528   0.857 -1.3325  1.5028 -0.9790
   91MOL    H8125461   2.028   3.637   1.068 -0.0795 -1.1323 -1.5715
   91MOL    H8225462   2.060   3.841   1.205  0.1701 -0.2802  0.5257
   91MOL    H8325463   2.312   4.002   1.151  1.3285 -2.4297  2.4394
   91MOL    H8425464   2.299   3.948   0.930 -0.6500  1.6611 -1.0208
   91MOL    H8525465   2.319   3.834   0.712 -1.0364  1.8925  0.5274
   91MOL    C8625466   2.169   4.058   1.320 -0.4614  0.7729 -0.2321
   91MOL    C8725467   2.059   4.015   1.400 -0.4247  0.6776  0.3806
   91MOL    C8825468   1.998   4.101   1.492 -0.1565  0.3510 -0.0209
   91MOL    C8925469   2.035   4.239   1.495 -0.4556 -0.0213  0.2860
   91MOL    C9025470   1.941   4.346   1.540 -0.2060 -0.2775  0.7002
   91MOL    C9125471   1.961   4.473   1.505  0.3230  0.8617  0.9375
   91MOL    C9225472   2.156   4.273   1.434 -0.8376 -0.3514  0.1949
   91MOL    C9325473   2.224   4.183   1.343 -0.0179 -0.7004 -0.5308
   91MOL    H9425474   2.009   3.921   1.382  0.2269  0.1702  1.1570
   91MOL    H9525475   1.902   4.064   1.525  0.4813 -1.8285 -0.5059
   91MOL    H9625476   1.858   4.307   1.598 -1.7691  0.8320 -0.7317
   91MOL    H9725477   2.045   4.507   1.447 -0.8004  0.7259 -0.7824
   91MOL    H9825478   2.200   4.371   1.438  0.3468 -0.8573 -0.0745
   91MOL    H9925479   2.308   4.225   1.290  1.2255 -2.3193  0.1268
   91MOL   C10025480   1.864   4.587   1.531  0.6328  0.4573 -0.2832
   91MOL   C10125481   1.739   4.559   1.598  0.1549  0.4393  0.1711
   91MOL   C10225482   1.639   4.656   1.603 -0.1153 -0.3259  0.1389
   91MOL   C10325483   1.650   4.781   1.536  0.2060  0.0695  0.9584
   91MOL   C10425484   1.537   4.870   1.501 -0.3602 -0.1357  0.0136
   91MOL   C10525485   1.405   4.850   1.522  0.3072 -0.2614  0.0006
   91MOL   C10625486   1.773   4.807   1.473  0.2861 -0.0221  0.4270
   91MOL   C10725487   1.879   4.712   1.467 -0.3750 -0.1744 -0.9451
   91MOL   H10825488   1.731   4.471   1.660 -1.9709 -0.2975 -1.1178
   91MOL   H10925489   1.549   4.628   1.656  0.0400 -0.0965  0.5234
   91MOL   H11025490   1.572   4.963   1.461  2.9866 -1.5241 -0.4686
   91MOL   H11125491   1.374   4.762   1.576 -1.4463 -0.2021 -0.8613
   91MOL   H11225492   1.776   4.897   1.414  2.5813  0.1984  0.8489
   91MOL   H11325493   1.968   4.748   1.417 -1.4300 -0.6031 -3.1929
   91MOL   C11425494   1.299   4.942   1.473  0.0824 -0.5606 -0.3107
   91MOL   C11525495   1.325   5.060   1.403  0.1733  0.1835 -0.8042
   91MOL   C11625496   1.218   5.134   1.348 -0.0278 -0.1300  0.1392
   91MOL   C11725497   1.086   5.091   1.359  0.2066 -0.4631 -0.3294
   91MOL   C11825498   0.978   5.151   1.274 -0.6057 -0.0507 -0.8583
   91MOL   C11925499   0.857   5.105   1.251  0.4979 -0.1583 -0.3165
   91MOL   C12025500   1.053   4.982   1.441  0.3612 -0.1021 -0.2735
   91MOL   C12125501   1.163   4.914   1.497 -1.3255 -0.7293 -0.4474
   91MOL   H12225502   1.429   5.088   1.390 -0.0347  0.9825 -0.8001
   91MOL   H12325503   1.240   5.219   1.285 -2.3657  0.7895  0.5254
   91MOL   H12425504   1.017   5.244   1.235 -0.0773  0.8180  1.6381
   91MOL   H12525505   0.830   5.015   1.305 -0.2993  0.9316  1.1261
   91MOL   H12625506   0.953   4.946   1.461 -0.2037  0.4252 -2.0361
   91MOL   H12725507   1.141   4.836   1.569  0.6214  1.1690  2.3105
   91MOL   C12825508   0.757   5.161   1.162 -0.3826 -0.4619 -0.1696
   91MOL   C12925509   0.618   5.129   1.177 -0.2373 -1.2744 -0.0374
   91MOL   C13025510   0.529   5.189   1.090  0.3304  0.7426  0.1597
   91MOL   C13125511   0.570   5.277   0.986  0.2222 -0.0285 -0.2714
   91MOL   C13225512   0.477   5.326   0.883  0.3025  0.5776  0.1991
   91MOL   C13325513   0.341   5.336   0.884 -0.4570  0.4449  0.3539
   91MOL   C13425514   0.707   5.305   0.965  0.4141 -0.0967 -0.2663
   91MOL   C13525515   0.801   5.248   1.057  0.3303 -0.7070  0.5238
   91MOL   H13625516   0.571   5.075   1.258  2.5266 -2.2569  0.9380
   91MOL   H13725517   0.428   5.151   1.102  0.7424  0.4457  3.1066
   91MOL   H13825518   0.516   5.373   0.794  2.1938  0.4521  0.9376
   91MOL   H13925519   0.281   5.295   0.964 -2.3157 -1.5954 -2.0298
   91MOL   H14025520   0.735   5.379   0.891 -2.4943  2.1819  0.7784
   91MOL   H14125521   0.905   5.277   1.051  0.1239 -0.2441 -1.1912
   91MOL   C14225522   0.262   5.409   0.786 -0.0085  0.1571  0.0113
   91MOL   C14325523   0.322   5.512   0.713 -0.6394 -1.1663  0.7216
   91MOL   C14425524   0.249   5.580   0.611  0.1325  0.5907  0.4538
   91MOL   C14525525   0.114   5.565   0.595 -0.1872  0.6125  0.4547
   91MOL   C14625526   0.053   5.665   0.495 -0.8341  0.4355 -0.3526
   91MOL   C14725527   8.065   5.666   0.457  0.5304 -0.7397 -0.4049
   91MOL   C14825528   0.051   5.460   0.671 -0.6625  0.1151  0.0792
   91MOL   C14925529   0.125   5.387   0.764 -1.0762 -0.0354  0.4313
   91MOL   H15025530   0.422   5.545   0.734 -0.6273 -0.5760 -0.2435
   91MOL   H15125531   0.296   5.654   0.548  1.7575  1.2369  2.4009
   91MOL   H15225532   0.109   5.747   0.452 -0.8346  1.3341  1.3209
   91MOL   H15325533   8.000   5.587   0.493 -0.5100 -1.0933 -2.9436
   91MOL   H15425534   8.089   5.440   0.664 -0.7696  0.8543 -0.5327
   91MOL   H15525535   0.080   5.306   0.819 -1.4255 -2.3987 -3.1550
   91MOL   C15625536   8.005   5.760   0.359 -0.1592 -0.1032 -0.5160
   91MOL   C15725537   7.889   5.724   0.289  0.3037  0.2372  0.3906
   91MOL   C15825538   7.828   5.812   0.198 -0.0851 -0.0294  0.2315
   91MOL   C15925539   7.879   5.944   0.181  0.0675 -0.1432 -0.4268
   91MOL   C16025540   7.819   6.045   0.095 -0.0264 -0.0400 -0.7619
   91MOL   C16125541   7.741   6.023   8.131  0.3901  0.0846 -0.1259
   91MOL   C16225542   7.995   5.972   0.247 -0.1640 -0.2942 -0.3146
   91MOL   C16325543   8.064   5.887   0.337  0.1697  0.0875 -0.3553
   91MOL   H16425544   7.845   5.626   0.297 -1.3606  0.9464  0.0952
   91MOL   H16525545   7.743   5.774   0.145  1.5236 -0.4315 -2.1314
   91MOL   H16625546   7.846   6.146   0.120 -1.4499 -0.0203  0.6819
   91MOL   H16725547   7.699   5.929   8.100  0.7680  0.1658 -0.8929
   91MOL   H16825548   8.042   6.069   0.243  0.4146 -0.5869 -0.6041
   91MOL   H16925549   0.008   5.923   0.387  0.2974 -0.7485  0.0397
   91MOL   C17025550   7.694   6.132   8.036 -0.0096  0.7229 -0.0083
   91MOL   C17125551   7.591   6.115   7.944  0.2780 -0.1498  0.3960
   91MOL   C17225552   7.552   6.221   7.856  0.7118 -0.3084  0.2329
   91MOL   C17325553   7.613   6.346   7.864 -0.7205  0.4174  0.1233
   91MOL   C17425554   7.579   6.443   7.766  0.3411 -0.2945 -0.6691
   91MOL   C17525555   7.638   6.560   7.737  0.1687 -0.2879  0.0542
   91MOL   C17625556   7.717   6.361   7.957  0.4087 -0.0892 -0.3608
   91MOL   C17725557   7.763   6.257   8.036  0.5305 -0.2052  0.1506
   91MOL   H17825558   7.540   6.021   7.929  2.2281 -1.3039  0.7953
   91MOL   H17925559   7.481   6.199   7.778  3.3075  1.4533 -2.6960
   91MOL   H18025560   7.488   6.424   7.710 -1.0437 -1.4368  1.8868
   91MOL   H18125561   7.728   6.582   7.794 -1.0692  2.1137  1.1654
   91MOL   H18225562   7.767   6.456   7.967 -2.1256  1.3626 -0.7477
   91MOL   H18325563   7.844   6.288   8.101  1.3540 -1.4486 -0.2799
   91MOL   C18425564   7.598   6.658   7.635  0.3792  0.9124 -0.5105
   91MOL   C18525565   7.689   6.763   7.609  0.2299 -0.4085 -0.0611
   91MOL   C18625566   7.667   6.859   7.504 -0.6087 -0.4762  0.4698
   91MOL   C18725567   7.544   6.848   7.429  0.5709  0.2202 -0.5269
   91MOL   C18825568   7.510   6.942   7.323  0.0976  0.1721 -0.1974
   91MOL   C18925569   7.596   7.041   7.284  0.2402  0.4317 -1.1050
   91MOL   C19025570   7.451   6.750   7.468 -0.1310  0.5133 -0.2322
   91MOL   C19125571   7.473   6.651   7.563 -0.6160 -0.0337  0.7022
   91MOL   H19225572   7.782   6.758   7.663  1.7593 -1.3443 -2.6933
   91MOL   H19325573   7.742   6.932   7.478 -1.5729  0.1590 -0.6178
   91MOL   H19425574   7.422   6.928   7.262 -0.5299 -0.1567  0.7883
   91MOL   H19525575   7.689   7.063   7.335 -1.2497  1.0122  1.4614
   91MOL   H19625576   7.354   6.749   7.420 -1.0801 -2.3730  1.5768
   91MOL   H19725577   7.395   6.579   7.582 -1.0696 -0.3554 -2.0874
   91MOL   C19825578   7.568   7.130   7.175 -0.0322 -1.0220 -0.6885
   91MOL   C19925579   7.510   7.078   7.059  0.3114 -0.4110  0.1178
   91MOL   C20025580   7.477   7.164   6.949  0.4080 -0.0782 -0.3427
   91MOL   C20125581   7.511   7.301   6.958  0.2551 -0.5822  0.7787
   91MOL   C20225582   7.483   7.380   6.839 -0.6755 -0.6826  1.5053
   91MOL   C20325583   7.506   7.511   6.823  0.7119  0.0010 -0.7308
   91MOL   C20425584   7.576   7.348   7.076 -0.8326 -0.1729 -0.1951
   91MOL   C20525585   7.605   7.261   7.185 -0.5581  0.6857  0.9148
   91MOL   H20625586   7.489   6.972   7.060 -0.8438 -0.1970 -1.1584
   91MOL   H20725587   7.418   7.119   6.870 -3.0450  0.7860  1.6111
   91MOL   H20825588   7.453   7.312   6.760  1.0874  0.6624 -0.3985
   91MOL   H20925589   7.519   7.577   6.907 -1.2090  0.6674 -0.9432
   91MOL   H21025590   7.612   7.450   7.072  0.2386 -0.4820  1.1596
   91MOL   H21125591   7.668   7.283   7.270 -0.4771 -0.7233  1.2333
   91MOL   C21225592   7.491   7.584   6.689 -0.2676  0.5064  0.1966
   91MOL   C21325593   7.461   7.519   6.569 -0.5139 -0.4918  0.0931
   91MOL   C21425594   7.459   7.583   6.442 -0.3075  0.3134 -0.8572
   91MOL   C21525595   7.515   7.713   6.437 -0.3339  0.0941 -0.1420
   91MOL   C21625596   7.543   7.773   6.303  0.5750 -0.7519  0.8680
   91MOL   C21725597   7.642   7.865   6.274  0.6685 -0.2194  0.2316
   91MOL   C21825598   7.549   7.777   6.562  0.3763  0.5183  0.0040
   91MOL   C21925599   7.535   7.713   6.684 -0.2925 -0.2881  0.0941
   91MOL   H22025600   7.442   7.413   6.564  0.2455 -0.6345  0.1611
   91MOL   H22125601   7.445   7.527   6.351  1.1225  0.9145 -1.4700
   91MOL   H22225602   7.470   7.747   6.228 -1.0510  2.0104  1.4432
   91MOL   H22325603   7.712   7.898   6.349 -0.1548  1.6345  0.1973
   91MOL   H22425604   7.590   7.877   6.562 -1.2172  1.1873  1.0865
   91MOL   H22525605   7.575   7.766   6.769 -1.4633  0.1033  0.4010
   91MOL   C22625606   7.657   7.917   6.133 -0.6439 -0.1431 -0.3346
   91MOL   C22725607   7.609   7.861   6.016  0.0788 -0.3646  0.2302
   91MOL   C22825608   7.649   7.909   5.888 -0.0752  0.2248  0.3594
   91MOL   C22925609   7.744   8.012   5.872  0.6849 -0.1736  0.4670
   91MOL   C23025610   7.800   8.054   5.747  0.2497  0.1920 -0.0903
   91MOL   C23125611   7.843   7.964   5.656  0.2052  0.2105 -0.7813
   91MOL   C23225612   7.781   8.074   5.991 -0.7549  0.2836 -0.3421
   91MOL   C23325613   7.743   8.032   6.117  0.2023  0.3563 -0.0198
   91MOL   H23425614   7.542   7.777   6.023 -1.9863  1.1343 -0.8522
   91MOL   H23525615   7.620   7.847   5.804  1.2908  0.8094 -0.5505
   91MOL   H23625616   7.812   0.017   5.737 -0.6812  0.3927  0.9104
   91MOL   H23725617   7.825   7.862   5.686  1.1349  0.7164  1.6126
   91MOL   H23825618   7.849   0.013   5.996 -1.1376  0.5511  0.4248
   91MOL   H23925619   7.766   8.099   6.199 -0.8056  1.2127 -0.4273
   91MOL   C24025620   7.895   7.980   5.523  0.2900  0.1611 -0.5157
   91MOL   C24125621   7.890   8.107   5.464 -0.3126  0.4632  0.5632
   91MOL   C24225622   7.934   8.126   5.331 -0.3621 -0.0813  0.2600
   91MOL   C24325623   7.976   8.019   5.251 -0.3051  0.1678  0.3758
   91MOL   C24425624   8.004   8.027   5.110  0.0626 -0.3166 -0.7818
   91MOL   C24525625   8.116   8.078   5.059 -0.0743  1.0690  0.1222
   91MOL   C24625626   7.967   7.890   5.308  0.1455  0.1638 -0.4615
   91MOL   C24725627   7.938   7.868   5.446  0.3644  0.3850  0.0364
   91MOL   H24825628   7.848   0.042   5.525 -3.2697 -1.8417  1.6760
   91MOL   H24925629   7.915   0.081   5.292 -1.1113 -0.1557  0.4264
   91MOL   H25025630   7.921   8.006   5.044  2.1501  0.8586 -3.9172
   91MOL   H25125631   0.056   8.112   5.117  0.2216 -0.6108  0.7008
   91MOL   H25225632   7.974   7.805   5.241  0.3092 -0.9900  0.9971
   91MOL   H25325633   7.946   7.769   5.488 -1.8623 -0.8494 -2.3047
   91MOL   C25425634   8.144   8.094   4.917 -0.5289  0.3755  0.4092
   91MOL   C25525635   8.059   8.046   4.820 -0.2393 -0.5903  0.0202
   91MOL   C25625636   8.078   8.073   4.685  0.2641 -0.6493  0.1666
   91MOL   C25725637   0.044   0.010   4.647  0.2847 -0.1280 -0.1824
   91MOL   C25825638   0.062   0.025   4.505  0.0196  0.1660  0.5617
   91MOL   C25925639   8.113   0.047   4.411 -0.1507  0.6447 -0.2888
   91MOL   C26025640   0.132   0.061   4.741  0.1286  0.1275  0.3364
   91MOL   C26125641   0.117   0.017   4.870 -0.3476  0.3551  0.1493
   91MOL   H26225642   7.965   8.004   4.853 -0.9263  0.7272 -0.2460
   91MOL   H26325643   7.999   8.050   4.615 -0.3908 -1.9211  1.3016
   91MOL   H26425644   0.162   0.012   4.467  0.1403  0.5930  0.7264
   91MOL   H26525645   0.015   0.056   4.314 -0.7247 -0.1307 -0.6377
   91MOL   H26625646   0.214   0.118   4.701 -2.0878  2.8388 -0.4460
   91MOL   H26725647   0.186   0.057   4.943 -0.4697  0.7691  0.0362
   91MOL   C26825648   7.970   0.079   4.414  0.0308  0.6156  0.1180
   91MOL   C26925649   7.874   0.025   4.326 -0.3061  0.2317 -0.3285
   91MOL   C27025650   7.737   0.047   4.351 -0.0320 -0.0542 -0.0596
   91MOL   C27125651   7.694   0.125   4.458 -0.2013 -0.0399 -0.1157
   91MOL   C27225652   7.553   0.147   4.488 -0.3048 -0.5875  0.4806
   91MOL   C27325653   7.505   0.208   4.600 -0.1901  0.6301 -0.4072
   91MOL   C27425654   7.793   0.170   4.547  0.5006 -0.2193 -0.3082
   91MOL   C27525655   7.929   0.161   4.520  0.3128 -0.2719 -0.4217
   91MOL   H27625656   7.892   8.110   4.237  0.3547  1.8136 -1.2770
   91MOL   H27725657   7.655   0.009   4.292 -0.2454  1.2185 -0.5974
   91MOL   H27825658   7.482   0.116   4.413 -0.6551  0.4775  0.3649
   91MOL   H27925659   7.564   0.245   4.682 -1.0865  0.0452  0.5176
   91MOL   H28025660   7.759   0.236   4.626  0.3974  0.9566 -1.3168
   91MOL   H28125661   8.006   0.210   4.579 -0.3822 -1.8893  1.9230
   91MOL   H28225662   7.399   0.224   4.612 -0.5158 -2.0875  0.6995
   92MOL     C125663   1.725   4.712   5.185  0.0831 -0.3860 -0.3585
   92MOL     C225664   1.667   4.621   5.094 -0.2832  0.5730 -0.3962
   92MOL     C325665   1.621   4.496   5.141 -1.1716  0.5946  0.5636
   92MOL     C425666   1.644   4.457   5.275 -0.4574 -0.3053 -0.0372
   92MOL     C525667   1.572   4.334   5.321 -0.0841 -0.0535 -0.0614
   92MOL     C625668   1.543   4.322   5.453 -0.2360  0.0381 -0.1583
   92MOL     C725669   1.706   4.549   5.359 -0.1782 -0.4640  0.2889
   92MOL     C825670   1.752   4.676   5.311 -0.5193 -0.3758 -0.6285
   92MOL     H925671   1.655   4.662   4.995  0.3291 -1.2566 -1.2674
   92MOL    H1025672   1.567   4.426   5.079 -0.0181 -1.0560  1.3745
   92MOL    H1125673   1.544   4.263   5.245 -0.6501 -0.5593  0.6178
   92MOL    H1225674   1.570   4.395   5.528 -2.5814 -0.6387  1.4263
   92MOL    H1325675   1.733   4.520   5.460 -0.0107 -0.1868  0.3232
   92MOL    H1425676   1.812   4.747   5.367 -1.1843 -1.1247  1.0580
   92MOL    H1525677   1.772   4.805   5.157 -0.1582 -0.5356 -1.2988
   92MOL    C1625678   1.464   4.204   5.507  0.0574  0.0276 -1.0923
   92MOL    C1725679   1.412   4.206   5.643 -0.0924 -0.0298  0.3082
   92MOL    C1825680   1.345   4.092   5.687 -0.9840 -0.6166  0.6796
   92MOL    C1925681   1.299   3.990   5.600 -0.4569  0.0621  0.5184
   92MOL    C2025682   1.211   3.881   5.644  0.6935 -0.1679  0.5481
   92MOL    C2125683   1.232   3.754   5.615 -0.1145  0.1168 -0.5793
   92MOL    C2225684   1.331   3.996   5.465  0.0270 -1.3660 -0.1608
   92MOL    C2325685   1.424   4.092   5.428  0.3618  0.5004  0.3226
   92MOL    H2425686   1.438   4.285   5.711  1.1131 -0.8795  0.8513
   92MOL    H2525687   1.312   4.089   5.790  0.0843  0.1187  1.0455
   92MOL    H2625688   1.122   3.902   5.701  0.8328  0.5419  0.5035
   92MOL    H2725689   1.312   3.717   5.552  0.5856  3.9753 -2.1403
   92MOL    H2825690   1.301   3.911   5.406 -1.9053 -1.3278  0.7147
   92MOL    H2925691   1.446   4.093   5.322  0.3349  1.3420  0.3172
   92MOL    C3025692   1.141   3.643   5.651  0.6654 -0.5088  0.0618
   92MOL    C3125693   1.143   3.530   5.570  0.8607 -0.1605  0.1156
   92MOL    C3225694   1.047   3.430   5.584  0.0775 -0.2718  0.1758
   92MOL    C3325695   0.940   3.445   5.686  0.4586  0.7965  0.0915
   92MOL    C3425696   0.830   3.351   5.694  0.3302 -0.3735 -0.0226
   92MOL    C3525697   0.728   3.346   5.782 -0.7743  0.2703  1.1020
   92MOL    C3625698   0.959   3.546   5.782  0.6243  0.2634 -0.1029
   92MOL    C3725699   1.044   3.650   5.760 -0.0818 -0.4863 -0.3023
   92MOL    H3825700   1.209   3.510   5.487 -0.6253 -0.8668 -0.9061
   92MOL    H3925701   1.022   3.355   5.510 -2.1918  1.8491 -1.2800
   92MOL    H4025702   0.833   3.275   5.617 -3.2177 -0.0833 -0.5286
   92MOL    H4125703   0.736   3.414   5.866  3.3946 -0.8500  1.6894
   92MOL    H4225704   0.897   3.567   5.868  0.9564  1.7006 -0.2124
   92MOL    H4325705   1.046   3.729   5.833  1.0615 -1.1157  0.3549
   92MOL    C4425706   0.616   3.253   5.771 -0.4001  0.1154 -0.4079
   92MOL    C4525707   0.542   3.237   5.893 -1.3196  0.1694 -0.5041
   92MOL    C4625708   0.437   3.143   5.901  0.0541  0.5525  0.5975
   92MOL    C4725709   0.405   3.067   5.783 -0.0188 -0.3459  0.0563
   92MOL    C4825710   0.301   2.960   5.794 -0.2802 -0.0533 -0.4524
   92MOL    C4925711   0.222   2.915   5.695  0.3555 -0.2623  0.0940
   92MOL    C5025712   0.475   3.093   5.666 -0.6451 -0.4759  0.6830
   92MOL    C5125713   0.588   3.178   5.655  0.4709  0.0816  0.1106
   92MOL    H5225714   0.569   3.295   5.980 -1.2560  0.4362 -0.7035
   92MOL    H5325715   0.383   3.125   5.992  0.3049 -0.6745  0.5037
   92MOL    H5425716   0.294   2.913   5.891  1.5813  1.0129  0.2266
   92MOL    H5525717   0.222   2.965   5.599  1.2829 -0.4529 -0.0145
   92MOL    H5625718   0.465   3.031   5.578  2.3569  0.8917 -0.7067
   92MOL    H5725719   0.646   3.204   5.568  2.1856 -1.2599  0.8224
   92MOL    C5825720   0.126   2.805   5.696 -0.6807  0.2914 -0.3683
   92MOL    C5925721   0.033   2.774   5.802 -0.4885 -0.0770 -0.0563
   92MOL    C6025722   8.089   2.672   5.796 -0.4336  0.3043  1.0760
   92MOL    C6125723   8.081   2.588   5.674  0.5015  0.2565 -0.2485
   92MOL    C6225724   7.983   2.485   5.666  0.2831 -1.0848 -0.3748
   92MOL    C6325725   7.868   2.478   5.740 -0.5422 -0.6242 -0.5455
   92MOL    C6425726   0.031   2.608   5.578  0.0351 -0.8508 -0.2174
   92MOL    C6525727   0.121   2.715   5.586  0.2474 -0.6317 -0.0636
   92MOL    H6625728   0.029   2.836   5.890 -0.0519 -1.0720  0.6763
   92MOL    H6725729   8.029   2.668   5.885 -0.3137  0.2341  1.1550
   92MOL    H6825730   7.995   2.406   5.594 -0.6803  0.4524 -2.2510
   92MOL    H6925731   7.851   2.558   5.810  1.2163  0.3201 -1.1539
   92MOL    H7025732   0.043   2.542   5.494 -0.6264  1.0827 -1.8714
   92MOL    H7125733   0.191   2.721   5.504  2.6245  0.8603  1.9885
   92MOL    C7225734   7.766   2.376   5.736  0.4215 -0.3341  0.0838
   92MOL    C7325735   7.640   2.409   5.791  0.1147  0.3284 -0.7435
   92MOL    C7425736   7.531   2.324   5.778  0.2884 -0.6902  0.2679
   92MOL    C7525737   7.545   2.200   5.700  1.3680 -0.2855 -0.3493
   92MOL    C7625738   7.430   2.113   5.682 -0.0727 -0.5338 -0.8381
   92MOL    C7725739   7.302   2.147   5.713  0.2748 -0.0727  0.5854
   92MOL    C7825740   7.670   2.171   5.649  0.1732  0.1909 -0.6526
   92MOL    C7925741   7.781   2.254   5.665  0.8025  1.5518 -0.1046
   92MOL    H8025742   7.619   2.503   5.841  0.5924  0.9637 -1.7130
   92MOL    H8125743   7.436   2.362   5.811  0.8250  0.0278  1.0338
   92MOL    H8225744   7.456   2.019   5.636  0.3348 -0.4517 -0.7804
   92MOL    H8325745   7.281   2.246   5.753  0.7112  0.6517 -0.9333
   92MOL    H8425746   7.691   2.082   5.591 -0.7778 -0.2869 -0.2690
   92MOL    H8525747   7.874   2.230   5.615 -0.0717  0.9355 -1.4525
   92MOL    C8625748   7.182   2.059   5.691 -0.5124  0.6952 -0.0158
   92MOL    C8725749   7.061   2.111   5.747 -0.0226  0.1023  0.3005
   92MOL    C8825750   6.941   2.042   5.710 -0.0326  0.8071  0.7181
   92MOL    C8925751   6.944   1.918   5.644  0.4762 -0.5659 -0.4216
   92MOL    C9025752   6.817   1.857   5.613  0.5316  0.2912  0.4020
   92MOL    C9125753   6.695   1.886   5.666 -0.0670 -0.1767  0.1064
   92MOL    C9225754   7.071   1.867   5.609 -0.5196  0.0729  0.7886
   92MOL    C9325755   7.187   1.939   5.618  0.4385  0.0132  0.4207
   92MOL    H9425756   7.060   2.205   5.801 -0.0522 -0.0443  0.5510
   92MOL    H9525757   6.850   2.078   5.753 -0.3259 -0.2203  0.9779
   92MOL    H9625758   6.833   1.773   5.546  5.3045  2.1501 -0.9804
   92MOL    H9725759   6.678   1.972   5.730 -0.0611  1.5695 -2.2112
   92MOL    H9825760   7.076   1.771   5.559  1.4731 -0.5465  2.1431
   92MOL    H9925761   7.274   1.900   5.568 -0.6962 -1.1093 -0.7429
   92MOL   C10025762   6.575   1.805   5.632  0.1316 -0.8112  0.0385
   92MOL   C10125763   6.451   1.827   5.700 -0.5232  0.0474  0.6647
   92MOL   C10225764   6.333   1.759   5.660 -0.4752  0.1208 -0.1257
   92MOL   C10325765   6.331   1.671   5.552  0.4521  0.2619 -0.8258
   92MOL   C10425766   6.212   1.611   5.516 -0.0826  0.6967 -0.1107
   92MOL   C10525767   6.088   1.624   5.566 -0.5860  0.1465 -0.6151
   92MOL   C10625768   6.451   1.641   5.490  0.1759 -0.6708 -0.2236
   92MOL   C10725769   6.571   1.713   5.523  0.0629 -0.0956 -0.8461
   92MOL   H10825770   6.447   1.889   5.788  2.3424  1.2335  0.0253
   92MOL   H10925771   6.242   1.767   5.719 -0.6050  0.1339 -0.3305
   92MOL   H11025772   6.231   1.544   5.433  0.8193  0.9661 -0.1253
   92MOL   H11125773   6.060   1.692   5.644  1.0125  0.2148 -0.0829
   92MOL   H11225774   6.450   1.573   5.406  0.0478  1.4595 -1.9987
   92MOL   H11325775   6.653   1.698   5.454  2.0899  3.3715  0.6976
   92MOL   C11425776   5.974   1.543   5.521 -0.9643 -0.5136  0.2405
   92MOL   C11525777   5.986   1.457   5.413 -1.0425 -0.7055  0.1829
   92MOL   C11625778   5.880   1.370   5.383 -0.6279 -0.0994 -0.1170
   92MOL   C11725779   5.760   1.373   5.450  0.4123  0.5951  0.5122
   92MOL   C11825780   5.650   1.282   5.409  0.4843 -0.1851 -0.4258
   92MOL   C11925781   5.524   1.260   5.453  0.1606  0.2997 -1.0033
   92MOL   C12025782   5.751   1.468   5.557  0.3518  0.1770  0.2253
   92MOL   C12125783   5.853   1.558   5.589  0.7748 -0.6455 -0.1553
   92MOL   H12225784   6.082   1.446   5.365 -1.7746  0.1760 -1.5536
   92MOL   H12325785   5.894   1.296   5.306 -1.6453 -0.5737  0.1581
   92MOL   H12425786   5.678   1.209   5.334 -2.3750 -1.8826  0.0906
   92MOL   H12525787   5.484   1.322   5.531 -2.0299  0.6453 -2.3461
   92MOL   H12625788   5.663   1.472   5.619 -0.8196 -0.4819 -1.3433
   92MOL   H12725789   5.828   1.621   5.673 -0.4848 -2.4067  0.8171
   92MOL   C12825790   5.432   1.148   5.412  0.3000  0.2663 -0.0546
   92MOL   C12925791   5.303   1.138   5.476 -0.5206 -0.0718  0.6561
   92MOL   C13025792   5.213   1.036   5.437  0.4749 -0.5992  0.3076
   92MOL   C13125793   5.246   0.946   5.336  0.4896  0.0456  0.8762
   92MOL   C13225794   5.160   0.827   5.298  0.0651  0.1583 -0.8400
   92MOL   C13325795   5.055   0.793   5.369  1.0715 -0.5897  0.3174
   92MOL   C13425796   5.372   0.959   5.274 -0.0306 -0.1401  0.2787
   92MOL   C13525797   5.467   1.058   5.311 -0.3614  0.1823 -0.5372
   92MOL   H13625798   5.261   1.216   5.538 -2.7339 -0.1329 -0.6868
   92MOL   H13725799   5.111   1.034   5.473  0.3923 -0.9943  0.0533
   92MOL   H13825800   5.191   0.776   5.208 -2.7839  0.7416 -2.1788
   92MOL   H13925801   5.021   0.848   5.455 -0.3712 -1.0365  0.0456
   92MOL   H14025802   5.400   0.896   5.190 -2.7523 -0.3064 -0.5451
   92MOL   H14125803   5.560   1.048   5.257  2.3680  0.9700  3.7533
   92MOL   C14225804   4.975   0.672   5.349 -0.0964  0.1601 -0.3751
   92MOL   C14325805   5.025   0.556   5.289  0.5103 -0.8978 -0.1632
   92MOL   C14425806   4.947   0.436   5.278  0.3670  0.2852  0.5551
   92MOL   C14525807   4.817   0.431   5.341  0.2478  0.0067 -0.0425
   92MOL   C14625808   4.749   0.304   5.369  0.2877  0.2393 -0.3737
   92MOL   C14725809   4.801   0.183   5.342 -0.3702  0.0936 -0.1286
   92MOL   C14825810   4.773   0.546   5.408 -0.8490 -0.4432  0.2312
   92MOL   C14925811   4.850   0.668   5.417  0.4039  0.1507 -0.2230
   92MOL   H15025812   5.125   0.556   5.247 -0.0235  0.9745 -1.4934
   92MOL   H15125813   4.979   0.355   5.213 -2.0290 -0.2596  0.0170
   92MOL   H15225814   4.659   0.309   5.427 -0.3102  0.7314 -1.3239
   92MOL   H15325815   4.897   0.169   5.296  0.3026 -0.8661  1.5405
   92MOL   H15425816   4.673   0.550   5.448 -0.7851 -3.4574  0.7553
   92MOL   H15525817   4.815   0.749   5.478  2.1029  2.4643 -2.2453
   92MOL   C15625818   4.740   0.052   5.375  0.1644  0.1988  0.0882
   92MOL   C15725819   4.815   8.077   5.346  0.5319 -0.5351  0.1155
   92MOL   C15825820   4.766   7.953   5.389 -0.4662 -0.4148  0.6157
   92MOL   C15925821   4.641   7.942   5.453  0.1177 -0.6157 -0.4740
   92MOL   C16025822   4.592   7.814   5.508  0.1181  0.0178 -0.4306
   92MOL   C16125823   4.648   7.694   5.489 -0.2968  0.2527  0.6258
   92MOL   C16225824   4.571   8.061   5.468  0.1560  0.5348 -0.5987
   92MOL   C16325825   4.616   0.043   5.438 -0.3315 -0.5600  0.5067
   92MOL   H16425826   4.904   8.077   5.285  0.5098 -0.8409  0.0820
   92MOL   H16525827   4.823   7.864   5.367 -2.9379 -1.5708 -1.3055
   92MOL   H16625828   4.502   7.831   5.566 -0.1101 -2.7681  0.0601
   92MOL   H16725829   4.738   7.683   5.429  0.8888  1.6708  2.0799
   92MOL   H16825830   4.468   8.060   5.501  0.8447  1.6233  1.6885
   92MOL   H16925831   4.548   0.125   5.461  0.5431 -0.0795  1.4315
   92MOL   C17025832   4.606   7.570   5.547  0.4486  0.2011  0.7737
   92MOL   C17125833   4.677   7.452   5.507 -0.2124 -0.5074  0.2001
   92MOL   C17225834   4.632   7.330   5.560  0.4997  0.5112  0.1238
   92MOL   C17325835   4.533   7.326   5.667  0.4104  0.5817  0.7533
   92MOL   C17425836   4.501   7.207   5.747  0.1581  0.5342 -0.0979
   92MOL   C17525837   4.573   7.097   5.746 -0.1776  0.9772 -0.0291
   92MOL   C17625838   4.469   7.445   5.700  0.4924  0.8115 -1.0138
   92MOL   C17725839   4.501   7.566   5.647 -0.3410  0.5815  0.2632
   92MOL   H17825840   4.748   7.445   5.425 -1.3729 -2.7189 -0.6472
   92MOL   H17925841   4.688   7.243   5.529  2.1943  2.2613 -1.8295
   92MOL   H18025842   4.417   7.206   5.814 -0.4744 -0.9113 -0.8730
   92MOL   H18125843   4.663   7.100   5.687 -0.7608  1.9819 -0.8917
   92MOL   H18225844   4.396   7.432   5.778  1.5128  0.7815 -0.0579
   92MOL   H18325845   4.443   7.654   5.673  0.4737  1.0791  0.4222
   92MOL   C18425846   4.556   6.972   5.824 -0.2086 -0.1935 -0.1593
   92MOL   C18525847   4.457   6.959   5.927 -0.8719 -0.4109  0.3684
   92MOL   C18625848   4.451   6.840   6.001  0.4503  0.1099  0.2721
   92MOL   C18725849   4.529   6.729   5.979 -0.9798  0.1808 -0.9687
   92MOL   C18825850   4.514   6.604   6.056  0.0797  0.0218 -0.3793
   92MOL   C18925851   4.590   6.493   6.068  0.0886  0.1449 -0.5479
   92MOL   C19025852   4.622   6.739   5.877  0.1232  0.7518  0.3906
   92MOL   C19125853   4.641   6.863   5.799  0.7845  0.1061 -1.0167
   92MOL   H19225854   4.399   7.047   5.951  1.0219  0.5325  1.6271
   92MOL   H19325855   4.374   6.824   6.076 -0.8019 -0.6775 -1.1519
   92MOL   H19425856   4.420   6.611   6.110 -0.2801  1.8607 -1.1938
   92MOL   H19525857   4.680   6.486   6.008 -1.0244  0.1181 -2.2515
   92MOL   H19625858   4.688   6.655   5.863 -2.4452 -1.0464 -1.3808
   92MOL   H19725859   4.718   6.852   5.724  0.8790  1.1224 -1.0675
   92MOL   C19825860   4.567   6.382   6.156 -0.8833 -0.4185  0.1059
   92MOL   C19925861   4.448   6.359   6.225  0.7166 -0.2111  0.1628
   92MOL   C20025862   4.434   6.255   6.317  0.5279  0.5502  0.0222
   92MOL   C20125863   4.532   6.162   6.328 -0.1376  0.8747  0.0594
   92MOL   C20225864   4.509   6.056   6.423 -0.6334  0.2179 -0.3006
   92MOL   C20325865   4.600   5.969   6.465 -0.3701 -0.4215  0.2864
   92MOL   C20425866   4.653   6.180   6.260 -0.2063 -0.4413  0.2162
   92MOL   C20525867   4.674   6.289   6.172  0.5070  0.4801  0.3308
   92MOL   H20625868   4.373   6.437   6.215  0.2553 -0.4131  1.9714
   92MOL   H20725869   4.343   6.253   6.375  0.1297  0.3971 -0.6093
   92MOL   H20825870   4.405   6.058   6.452 -0.4326  0.7331  0.3889
   92MOL   H20925871   4.700   5.971   6.425 -1.1983  1.0961 -1.8076
   92MOL   H21025872   4.744   6.123   6.273  1.0784  1.2506 -1.1252
   92MOL   H21125873   4.769   6.303   6.122 -0.1814 -0.1365 -1.1746
   92MOL   C21225874   4.572   5.849   6.549 -0.0969  0.0345 -0.0802
   92MOL   C21325875   4.441   5.801   6.587 -0.6615  0.5763  0.4093
   92MOL   C21425876   4.429   5.676   6.654 -0.3415  0.4142  0.2233
   92MOL   C21525877   4.546   5.616   6.704  0.2918 -0.3700  0.3020
   92MOL   C21625878   4.543   5.503   6.802 -0.0651  0.4607 -0.1487
   92MOL   C21725879   4.441   5.466   6.878 -0.1745 -0.0083 -0.1425
   92MOL   C21825880   4.676   5.672   6.682 -0.0241 -0.5697 -0.1580
   92MOL   C21925881   4.692   5.784   6.599  0.3536  0.3409 -0.0675
   92MOL   H22025882   4.354   5.848   6.543 -0.3660  0.8773  0.1422
   92MOL   H22125883   4.333   5.628   6.666 -0.0977 -0.3910 -0.9841
   92MOL   H22225884   4.639   5.454   6.814 -0.8947 -1.1562  0.0981
   92MOL   H22325885   4.353   5.527   6.889  0.1374 -0.0119  2.7082
   92MOL   H22425886   4.763   5.633   6.732  0.6375  2.5623  1.2788
   92MOL   H22525887   4.792   5.814   6.571  0.3337 -0.7360 -1.3376
   92MOL   C22625888   4.439   5.355   6.980  0.2603  0.2964  0.2790
   92MOL   C22725889   4.556   5.320   7.053 -0.0206 -0.6037  0.8782
   92MOL   C22825890   4.548   5.211   7.138 -0.7534  0.0212 -0.0928
   92MOL   C22925891   4.425   5.141   7.157  0.2943 -0.0334 -0.0772
   92MOL   C23025892   4.421   5.031   7.258  0.6364 -0.6055 -0.2230
   92MOL   C23125893   4.521   4.967   7.313  0.0726  0.1435 -0.4318
   92MOL   C23225894   4.301   5.190   7.101  0.4983  0.2540  0.0681
   92MOL   C23325895   4.315   5.296   7.004  0.6787  0.0770  0.6768
   92MOL   H23425896   4.648   5.373   7.036  0.2074 -1.2363  0.1218
   92MOL   H23525897   4.634   5.179   7.195  0.0651  1.8646 -0.2356
   92MOL   H23625898   4.321   5.003   7.289 -0.5457  2.2997 -1.2035
   92MOL   H23725899   4.617   4.999   7.276  0.3609 -0.8579 -0.5761
   92MOL   H23825900   4.209   5.135   7.109 -1.9698  4.0880 -0.6612
   92MOL   H23925901   4.229   5.334   6.950  0.3091 -1.8069 -0.0830
   92MOL   C24025902   4.515   4.866   7.416  0.1381 -0.3332 -0.3936
   92MOL   C24125903   4.630   4.854   7.501  0.5549 -0.4361 -0.3903
   92MOL   C24225904   4.625   4.771   7.615  0.6815 -0.1820  0.5473
   92MOL   C24325905   4.506   4.698   7.632 -0.0745 -0.0360  0.3542
   92MOL   C24425906   4.508   4.612   7.747  0.3094  0.8614  0.0021
   92MOL   C24525907   4.610   4.565   7.816  0.0134  0.5133 -0.4927
   92MOL   C24625908   4.394   4.710   7.546 -0.8189 -0.1280 -0.2192
   92MOL   C24725909   4.392   4.793   7.437 -0.5171  0.1722  0.1848
   92MOL   H24825910   4.715   4.917   7.479  1.2107 -0.7034  1.2851
   92MOL   H24925911   4.712   4.757   7.676  1.7983 -3.0042 -1.5646
   92MOL   H25025912   4.410   4.569   7.768 -0.3651  1.9919 -0.8006
   92MOL   H25125913   4.707   4.602   7.786  0.0759  0.1263 -0.7796
   92MOL   H25225914   4.304   4.655   7.568 -0.9143  0.1607  0.1198
   92MOL   H25325915   4.308   4.790   7.370 -1.3170  1.5087  1.1197
   92MOL   C25425916   4.606   4.465   7.928  0.5436 -0.3840  0.0006
   92MOL   C25525917   4.488   4.391   7.951  0.6061 -0.5020 -0.4017
   92MOL   C25625918   4.473   4.310   8.062 -0.1883  0.7139 -0.1987
   92MOL   C25725919   4.577   4.297   0.015  0.1071 -0.2694  0.3287
   92MOL   C25825920   4.554   4.250   0.148 -0.3514  0.3986  0.0505
   92MOL   C25925921   4.454   4.279   0.231  0.6083  0.5401  0.6427
   92MOL   C26025922   4.704   4.347   8.121  0.2251  0.3610  0.0047
   92MOL   C26125923   4.715   4.435   8.004 -0.4593  0.6375 -0.3042
   92MOL   H26225924   4.405   4.386   7.882  0.7405  0.1302 -0.6123
   92MOL   H26325925   4.376   4.267   8.085  1.0660 -2.6710 -0.9867
   92MOL   H26425926   4.627   4.175   0.174 -1.2312 -1.0582 -1.5653
   92MOL   H26525927   4.451   4.221   0.322  2.7216 -1.9935 -0.8184
   92MOL   H26625928   4.785   4.343   0.048  0.4609  2.4220 -0.1199
   92MOL   H26725929   4.806   4.490   7.985 -1.6567  2.4012 -1.0545
   92MOL   C26825930   4.349   4.382   0.213  0.0325 -0.0581  0.0607
   92MOL   C26925931   4.389   4.508   0.169  0.2093 -0.0243 -0.2420
   92MOL   C27025932   4.291   4.617   0.156  0.0870 -0.4564 -0.3409
   92MOL   C27125933   4.153   4.588   0.167  0.2894  0.6784 -0.5359
   92MOL   C27225934   4.061   4.700   0.169 -1.0309 -0.1663  0.5948
   92MOL   C27325935   3.934   4.697   0.215  0.4040  0.2578 -0.1316
   92MOL   C27425936   4.110   4.454   0.206  0.0575 -0.3175  0.5428
   92MOL   C27525937   4.213   4.357   0.223 -1.0465  0.4762  0.0607
   92MOL   H27625938   4.493   4.530   0.151  0.4073 -0.4583  0.3601
   92MOL   H27725939   4.329   4.714   0.127 -1.0995  0.2792  0.5385
   92MOL   H27825940   4.096   4.789   0.119  0.9032 -0.6612  1.0304
   92MOL   H27925941   3.905   4.601   0.254  0.9732  0.7012  1.4224
   92MOL   H28025942   4.007   4.430   0.228  0.5374 -3.6392 -0.5537
   92MOL   H28125943   4.188   4.254   0.244  1.4619  0.3153  2.4353
   92MOL   H28225944   3.855   4.771   0.206 -0.6340 -0.7195  0.7794
   93MOL     C125945   7.786   4.112   3.773 -0.1350 -0.6385  0.2717
   93MOL     C225946   7.693   4.179   3.854  0.5204  0.5436  0.1695
   93MOL     C325947   7.557   4.147   3.845  0.0607  0.1874  0.3325
   93MOL     C425948   7.517   4.036   3.767 -0.2159  0.6388  0.3552
   93MOL     C525949   7.377   4.000   3.748  0.0446  0.0275  0.5424
   93MOL     C625950   7.275   4.090   3.743 -0.0623  0.5641  0.0996
   93MOL     C725951   7.610   3.960   3.699  0.0809 -0.4702 -0.0752
   93MOL     C825952   7.745   4.002   3.700 -0.4682 -0.8078  0.1727
   93MOL     H925953   7.727   4.266   3.908  2.1017  1.1609 -1.7346
   93MOL    H1025954   7.481   4.206   3.894  0.1439  2.8161 -2.5160
   93MOL    H1125955   7.364   3.893   3.739  3.3346 -0.4322  0.8017
   93MOL    H1225956   7.297   4.193   3.764  1.3906  0.0965  0.9790
   93MOL    H1325957   7.583   3.876   3.636  0.7635 -0.9651  0.2794
   93MOL    H1425958   7.817   3.955   3.634 -2.1470 -0.4081 -2.0063
   93MOL    H1525959   7.888   4.148   3.781 -0.5558  0.1581  2.3575
   93MOL    C1625960   7.132   4.063   3.714  0.3738 -0.1092  0.9788
   93MOL    C1725961   7.036   4.167   3.703  0.1298  0.3202  0.3472
   93MOL    C1825962   6.901   4.133   3.703  0.3677  0.3747 -0.1047
   93MOL    C1925963   6.857   3.998   3.689 -0.0691 -0.5465  0.7141
   93MOL    C2025964   6.716   3.959   3.687 -0.8160  0.5574 -0.0822
   93MOL    C2125965   6.611   4.031   3.720  0.3522  0.5305  0.6189
   93MOL    C2225966   6.953   3.897   3.698  0.5874  0.2146  0.6323
   93MOL    C2325967   7.091   3.925   3.707 -0.6526 -0.8667  0.9330
   93MOL    H2425968   7.059   4.272   3.692  0.3425  0.3751  1.2619
   93MOL    H2525969   6.831   4.216   3.710 -0.9227 -0.6585 -0.6005
   93MOL    H2625970   6.695   3.864   3.641  1.3805  0.3972 -0.7992
   93MOL    H2725971   6.618   4.134   3.754 -0.8532  0.8397 -0.0234
   93MOL    H2825972   6.924   3.792   3.697  0.2789  0.3153 -1.2150
   93MOL    H2925973   7.167   3.849   3.718 -2.6049 -2.8065  1.3932
   93MOL    C3025974   6.472   3.980   3.709  0.4102  0.2266 -0.2380
   93MOL    C3125975   6.438   3.885   3.610 -0.0811  0.3597  0.2687
   93MOL    C3225976   6.309   3.824   3.605  0.7726 -0.3882 -0.5079
   93MOL    C3325977   6.216   3.856   3.709 -0.2314 -0.4993  1.1885
   93MOL    C3425978   6.080   3.799   3.714 -0.1341 -0.2820  0.3233
   93MOL    C3525979   6.020   3.714   3.628 -0.1385  0.5069 -0.4007
   93MOL    C3625980   6.249   3.953   3.809  0.4482  0.4481  0.2968
   93MOL    C3725981   6.380   4.006   3.811 -0.1244  0.2925  0.0266
   93MOL    H3825982   6.512   3.844   3.543 -1.1783 -0.9746 -0.1611
   93MOL    H3925983   6.274   3.754   3.530  0.6888 -1.5539  0.6041
   93MOL    H4025984   6.031   3.838   3.802 -2.5173  0.0926 -1.1369
   93MOL    H4125985   6.080   3.666   3.552  1.1889  1.4371  0.0341
   93MOL    H4225986   6.181   3.982   3.888 -0.1744  0.6301 -0.2938
   93MOL    H4325987   6.416   4.064   3.895  1.6483 -0.7685  0.0150
   93MOL    C4425988   5.878   3.659   3.622 -0.4991 -0.3773 -0.6964
   93MOL    C4525989   5.779   3.692   3.721  0.3964 -1.3143 -0.1575
   93MOL    C4625990   5.650   3.632   3.710 -0.6121  0.1999  0.3582
   93MOL    C4725991   5.618   3.554   3.597  0.4099 -0.2476  0.2078
   93MOL    C4825992   5.481   3.498   3.575  0.2407 -0.1615  0.1674
   93MOL    C4925993   5.375   3.497   3.663 -0.3901 -0.8931  0.5248
   93MOL    C5025994   5.715   3.524   3.500  0.4330 -0.5856  0.3890
   93MOL    C5125995   5.844   3.578   3.514 -0.1672  0.1152 -0.0165
   93MOL    H5225996   5.789   3.764   3.800  0.7297 -0.6769 -0.7740
   93MOL    H5325997   5.579   3.646   3.790 -2.8085 -1.1985 -1.3169
   93MOL    H5425998   5.466   3.466   3.473  0.0557  0.1309  0.1031
   93MOL    H5525999   5.391   3.546   3.757 -0.7452 -2.8209  1.6145
   93MOL    H5626000   5.692   3.467   3.411 -0.1752 -1.4261  1.0826
   93MOL    H5726001   5.927   3.554   3.449  0.8232  2.3229  0.3840
   93MOL    C5826002   5.233   3.463   3.635 -0.5662  0.2537  0.4262
   93MOL    C5926003   5.191   3.457   3.497  0.4479 -0.2486 -0.1800
   93MOL    C6026004   5.069   3.400   3.464 -0.4538 -0.0070 -0.1042
   93MOL    C6126005   4.981   3.369   3.568 -0.2530 -0.9263  0.5787
   93MOL    C6226006   4.844   3.327   3.536 -0.9061  0.4902 -0.0730
   93MOL    C6326007   4.794   3.311   3.409  0.4442 -0.2827  0.6157
   93MOL    C6426008   5.018   3.373   3.706  0.8365 -0.6473  0.8456
   93MOL    C6526009   5.149   3.420   3.739 -0.0847 -0.6946  0.0240
   93MOL    H6626010   5.256   3.496   3.420  1.3722 -0.5707  0.4367
   93MOL    H6726011   5.046   3.393   3.358  1.2113  2.1080 -0.6554
   93MOL    H6826012   4.779   3.301   3.619 -0.7825  2.0765  0.5261
   93MOL    H6926013   4.850   3.339   3.321 -1.0737  0.7614 -0.0410
   93MOL    H7026014   4.940   3.352   3.779  1.0653 -3.2771  0.3829
   93MOL    H7126015   5.181   3.426   3.841  0.7992  0.3958 -0.3075
   93MOL    C7226016   4.657   3.270   3.373 -0.0087 -0.7867 -0.0271
   93MOL    C7326017   4.632   3.219   3.245  0.2841 -0.0093 -0.0318
   93MOL    C7426018   4.504   3.165   3.219  0.0980  0.0300 -0.7853
   93MOL    C7526019   4.400   3.169   3.314  0.8513 -0.5323  0.5910
   93MOL    C7626020   4.270   3.117   3.272  0.5107 -0.2243 -0.0321
   93MOL    C7726021   4.153   3.159   3.325 -0.1712 -0.3291 -0.3078
   93MOL    C7826022   4.423   3.226   3.440 -0.2852 -0.0514  0.6297
   93MOL    C7926023   4.551   3.281   3.468 -0.1448  0.9484 -0.1090
   93MOL    H8026024   4.705   3.206   3.167  1.3147 -0.2318  0.9642
   93MOL    H8126025   4.489   3.112   3.126  0.1206 -1.3395 -0.0131
   93MOL    H8226026   4.293   3.045   3.195  2.1913  0.7535 -0.4836
   93MOL    H8326027   4.150   3.234   3.403  1.2874 -0.4464 -0.1366
   93MOL    H8426028   4.355   3.219   3.523  0.4988 -1.0270  1.1979
   93MOL    H8526029   4.564   3.315   3.570 -1.7337 -1.6984  1.0309
   93MOL    C8626030   4.022   3.104   3.284  0.4858 -0.1595  0.3451
   93MOL    C8726031   3.902   3.169   3.317 -0.2590  0.8542  0.9103
   93MOL    C8826032   3.779   3.114   3.271  0.5940 -0.6859  0.5666
   93MOL    C8926033   3.772   2.999   3.190  0.5432  0.0377  0.4875
   93MOL    C9026034   3.643   2.961   3.132  0.2496 -0.0637  0.2177
   93MOL    C9126035   3.520   3.003   3.154  0.1607 -0.4044  0.1692
   93MOL    C9226036   3.890   2.936   3.147  0.0738  0.2492 -0.1837
   93MOL    C9326037   4.012   2.995   3.195 -0.3627  0.1034  0.0966
   93MOL    H9426038   3.898   3.262   3.371  2.1475  1.0253  0.8636
   93MOL    H9526039   3.698   3.178   3.302  1.3238  1.3945 -1.6589
   93MOL    H9626040   3.662   2.882   3.060 -2.1632 -2.1731  1.8165
   93MOL    H9726041   3.503   3.074   3.234  0.1914  0.7254 -0.8031
   93MOL    H9826042   3.893   2.858   3.073 -0.6126 -0.1532  0.2044
   93MOL    H9926043   4.103   2.950   3.159 -0.4718 -1.7836  2.1008
   93MOL   C10026044   3.400   2.949   3.082  0.2917  0.5245 -0.0808
   93MOL   C10126045   3.413   2.862   2.974  0.1491 -0.1248 -0.2458
   93MOL   C10226046   3.302   2.826   2.896 -0.2762  0.0257  0.8518
   93MOL   C10326047   3.177   2.880   2.935 -0.1422  0.1912 -0.3752
   93MOL   C10426048   3.059   2.841   2.854 -0.0435  0.4595  0.1849
   93MOL   C10526049   2.944   2.915   2.839  0.3125  0.9422  0.5149
   93MOL   C10626050   3.165   2.976   3.039  0.0780  0.4436  0.1577
   93MOL   C10726051   3.277   3.004   3.116  0.2591 -0.4703  0.6839
   93MOL   H10826052   3.509   2.821   2.944 -0.1664 -0.3815 -0.9167
   93MOL   H10926053   3.315   2.761   2.811 -1.1064  0.6001  0.2667
   93MOL   H11026054   3.070   2.746   2.803 -0.0882  0.1515  0.7462
   93MOL   H11126055   2.953   3.016   2.878 -0.7161  1.3279 -0.2087
   93MOL   H11226056   3.068   3.017   3.064 -0.7325 -0.9991 -0.5538
   93MOL   H11326057   3.274   3.085   3.187  1.2054  0.3264 -0.1743
   93MOL   C11426058   2.817   2.880   2.769  0.3400 -0.5811  0.1146
   93MOL   C11526059   2.700   2.954   2.797  0.2446  0.2283  0.0305
   93MOL   C11626060   2.573   2.919   2.753 -0.5337  0.1934 -0.5054
   93MOL   C11726061   2.560   2.818   2.654  0.4256 -0.2976  0.3127
   93MOL   C11826062   2.423   2.798   2.594 -0.5178 -0.8014 -0.2191
   93MOL   C11926063   2.383   2.685   2.534 -0.3749  0.3301  0.2930
   93MOL   C12026064   2.675   2.740   2.626  0.2449  0.5490 -0.2046
   93MOL   C12126065   2.800   2.767   2.685  0.9952  0.4660 -0.0182
   93MOL   H12226066   2.702   3.050   2.846  1.8772  0.2654 -0.0850
   93MOL   H12326067   2.489   2.983   2.773 -1.2742 -0.4333 -1.5611
   93MOL   H12426068   2.356   2.883   2.603 -0.8579 -1.2859  2.0970
   93MOL   H12526069   2.448   2.599   2.526 -0.1163  0.4340  1.1402
   93MOL   H12626070   2.672   2.659   2.555 -2.4820 -0.5264  1.0247
   93MOL   H12726071   2.888   2.709   2.659 -0.7432 -3.3323  2.1416
   93MOL   C12826072   2.251   2.660   2.468 -0.5317  0.0388 -0.9631
   93MOL   C12926073   2.238   2.543   2.386  0.6194 -0.5920 -0.0378
   93MOL   C13026074   2.126   2.529   2.310  0.1579 -0.0232  0.4683
   93MOL   C13126075   2.021   2.616   2.309  0.2275  0.3821  0.2010
   93MOL   C13226076   1.890   2.594   2.245  0.0964 -0.2000 -0.6058
   93MOL   C13326077   1.863   2.483   2.167  0.9308 -0.4718 -0.5075
   93MOL   C13426078   2.032   2.733   2.388 -0.5951 -0.5281 -0.3146
   93MOL   C13526079   2.147   2.758   2.463 -0.0053  0.4527  0.7616
   93MOL   H13626080   2.312   2.465   2.392  1.0062 -0.2198  0.0020
   93MOL   H13726081   2.115   2.435   2.259 -3.0767 -0.4111  1.7939
   93MOL   H13826082   1.811   2.666   2.256 -0.6502 -1.0771 -0.1225
   93MOL   H13926083   1.933   2.401   2.157  1.7820  0.1617  0.1228
   93MOL   H14026084   1.950   2.803   2.388  0.8045  1.1145  0.4192
   93MOL   H14126085   2.156   2.847   2.522 -1.0973  0.3228  1.1297
   93MOL   C14226086   1.731   2.450   2.096 -0.0742 -0.0448 -0.1225
   93MOL   C14326087   1.605   2.523   2.117  0.1294 -0.2264 -0.3255
   93MOL   C14426088   1.499   2.495   2.034  0.1628  0.1453  0.7394
   93MOL   C14526089   1.504   2.390   1.936  0.3924 -0.1549 -0.3607
   93MOL   C14626090   1.387   2.349   1.848 -0.3169  0.0827 -0.1371
   93MOL   C14726091   1.398   2.269   1.737 -0.5542  0.7260 -0.3464
   93MOL   C14826092   1.626   2.330   1.913  0.3426 -0.3172 -0.6876
   93MOL   C14926093   1.737   2.362   1.989 -0.3731  0.2755 -0.1249
   93MOL   H15026094   1.597   2.596   2.197  1.6908  0.1834 -0.5119
   93MOL   H15126095   1.410   2.554   2.048 -1.3034 -1.9526  0.5408
   93MOL   H15226096   1.294   2.397   1.876  0.8872  2.2782  0.2473
   93MOL   H15326097   1.495   2.237   1.703 -1.0773 -1.4375  0.0684
   93MOL   H15426098   1.636   2.255   1.836 -1.1459 -1.7227  0.4342
   93MOL   H15526099   1.828   2.322   1.948  0.1350  1.6750 -0.3810
   93MOL   C15626100   1.295   2.214   1.657  0.1220  0.2241 -0.9824
   93MOL   C15726101   1.160   2.258   1.675  0.3096  0.1310 -0.4449
   93MOL   C15826102   1.061   2.215   1.586 -0.0600 -0.3131  0.3399
   93MOL   C15926103   1.087   2.120   1.481  0.2612  0.2538  0.1270
   93MOL   C16026104   0.984   2.083   1.387  0.1602  0.1844 -0.1408
   93MOL   C16126105   0.995   2.027   1.266  0.9765 -0.2156  0.4459
   93MOL   C16226106   1.219   2.072   1.465 -0.2623 -0.6962 -0.1641
   93MOL   C16326107   1.321   2.115   1.556 -0.7503 -0.4173 -0.3062
   93MOL   H16426108   1.140   2.333   1.750 -2.2631 -1.3207  0.3697
   93MOL   H16526109   0.960   2.250   1.603 -0.9676 -2.7088  0.1514
   93MOL   H16626110   0.888   2.111   1.429 -0.7263 -1.1516 -1.2282
   93MOL   H16726111   1.092   2.019   1.219 -0.2726 -1.3909 -1.9990
   93MOL   H16826112   1.254   1.999   1.394  1.1296 -0.5168  0.3203
   93MOL   H16926113   1.418   2.069   1.545 -0.5284  0.4591 -2.0635
   93MOL   C17026114   0.879   1.994   1.183  0.2179  0.2979 -0.0997
   93MOL   C17126115   0.746   2.026   1.214  0.3486 -0.1482 -0.0788
   93MOL   C17226116   0.646   1.994   1.113 -0.1017  0.1118  0.2038
   93MOL   C17326117   0.679   1.943   0.985 -0.7434 -0.3607 -0.2648
   93MOL   C17426118   0.582   1.894   0.891  0.1152  0.9836  0.3208
   93MOL   C17526119   0.457   1.935   0.894 -0.9410  0.3463  0.2866
   93MOL   C17626120   0.814   1.919   0.954  0.6669  0.1699 -0.0611
   93MOL   C17726121   0.910   1.946   1.053  0.3008 -0.7461 -0.0946
   93MOL   H17826122   0.710   2.062   1.309  0.7683  1.9351 -0.6947
   93MOL   H17926123   0.542   2.009   1.136 -0.6201 -3.4512  0.4493
   93MOL   H18026124   0.622   1.824   0.819 -2.2636  3.1751 -3.2938
   93MOL   H18126125   0.430   2.013   0.963 -0.4468  1.7527 -1.0831
   93MOL   H18226126   0.844   1.864   0.866 -1.6366 -1.9668  0.4171
   93MOL   H18326127   1.014   1.924   1.035  0.6582  1.9015 -1.6327
   93MOL   C18426128   0.347   1.878   0.809  0.0557 -0.0365  0.1902
   93MOL   C18526129   0.217   1.932   0.826 -0.4094 -0.4118 -0.2163
   93MOL   C18626130   0.116   1.886   0.743  0.1316  0.1106 -0.1439
   93MOL   C18726131   0.138   1.789   0.645 -0.0436  0.3754  0.0190
   93MOL   C18826132   0.020   1.738   0.574  0.0418 -0.0109  0.0420
   93MOL   C18926133   8.032   1.758   0.606  0.5330 -0.7530  0.1252
   93MOL   C19026134   0.270   1.736   0.631  0.4462 -0.4303  0.3813
   93MOL   C19126135   0.374   1.784   0.709 -0.0575 -0.1585  0.0568
   93MOL   H19226136   0.189   2.011   0.895  0.5856 -0.1382 -0.1301
   93MOL   H19326137   0.019   1.932   0.759 -0.9999 -1.2833 -2.6554
   93MOL   H19426138   0.060   1.685   0.489 -1.9049  0.2590 -1.0791
   93MOL   H19526139   7.997   1.810   0.694 -3.1172 -0.1428 -1.6032
   93MOL   H19626140   0.294   1.663   0.556  2.8069  0.3519  0.3366
   93MOL   H19726141   0.473   1.741   0.703  0.6196  1.3005  0.6704
   93MOL   C19826142   7.923   1.710   0.517 -0.2303 -0.4983 -0.1614
   93MOL   C19926143   7.954   1.644   0.393 -0.2614  0.5714  0.9781
   93MOL   C20026144   7.846   1.575   0.331 -0.4010 -0.3045  0.0827
   93MOL   C20126145   7.714   1.583   0.378  0.0174 -0.3572  0.3591
   93MOL   C20226146   7.615   1.508   0.293 -0.5537 -0.0561  0.4885
   93MOL   C20326147   7.494   1.469   0.334  0.8681  0.0086 -0.3799
   93MOL   C20426148   7.689   1.646   0.505  0.0153 -0.8500 -0.1904
   93MOL   C20526149   7.796   1.708   0.570 -0.0546 -0.6703  0.0435
   93MOL   H20626150   8.051   1.626   0.351 -0.2977  0.4107  0.9678
   93MOL   H20726151   7.864   1.507   0.249  0.8546 -0.2543  0.3009
   93MOL   H20826152   7.653   1.490   0.193 -1.8275 -0.2883  0.0329
   93MOL   H20926153   7.453   1.499   0.429  0.1581  0.8386 -0.9305
   93MOL   H21026154   7.588   1.653   0.543 -0.2939 -1.5743 -0.8715
   93MOL   H21126155   7.775   1.761   0.662  1.4877  0.7735 -0.4278
   93MOL   C21226156   7.411   1.374   0.259 -0.0836  0.4005  0.2093
   93MOL   C21326157   7.471   1.285   0.169  0.5765 -0.0559 -0.0547
   93MOL   C21426158   7.393   1.203   0.082  0.1906 -0.1271 -0.5377
   93MOL   C21526159   7.253   1.214   0.076 -0.8133  0.2430 -0.1790
   93MOL   C21626160   7.172   1.128   8.144  0.1260 -0.3179  0.9024
   93MOL   C21726161   7.219   1.025   8.069  0.4590  0.6437  0.0531
   93MOL   C21826162   7.194   1.312   0.160  0.2035 -0.0017 -0.6159
   93MOL   C21926163   7.270   1.392   0.247 -0.1709 -0.1490  0.1878
   93MOL   H22026164   7.578   1.279   0.156  0.8207 -0.2120  1.9609
   93MOL   H22126165   7.449   1.142   0.013  1.4013  0.2476  0.1014
   93MOL   H22226166   7.066   1.148   8.143  0.3969  1.1215 -0.8347
   93MOL   H22326167   7.326   1.009   8.074  0.0783 -1.3064  3.3995
   93MOL   H22426168   7.087   1.317   0.174  0.5011  2.9588  1.0198
   93MOL   H22526169   7.226   1.476   0.298 -0.2649  0.1024 -0.3130
   93MOL   C22626170   7.139   0.943   7.985  0.8413 -0.5320  0.3072
   93MOL   C22726171   7.010   0.985   7.934 -0.2981 -0.0821 -0.1662
   93MOL   C22826172   6.923   0.890   7.868  0.5300  0.1064 -0.2741
   93MOL   C22926173   6.961   0.756   7.851 -0.4566 -0.5221 -0.0451
   93MOL   C23026174   6.869   0.659   7.796 -0.1859 -0.7370 -0.1118
   93MOL   C23126175   6.757   0.701   7.731 -0.5680 -0.2700 -0.6091
   93MOL   C23226176   7.092   0.720   7.888  0.0654 -0.0580 -0.3099
   93MOL   C23326177   7.169   0.807   7.963 -0.3123  0.3527  0.0325
   93MOL   H23426178   6.979   1.088   7.948 -1.3876 -0.3506 -0.5508
   93MOL   H23526179   6.824   0.927   7.847 -0.2547 -0.9390  1.5089
   93MOL   H23626180   6.879   0.552   7.809  0.1290 -0.6198  0.6468
   93MOL   H23726181   6.734   0.806   7.719 -0.0093 -0.0133  0.4642
   93MOL   H23826182   7.128   0.619   7.880  2.0301  0.5443  0.5251
   93MOL   H23926183   7.261   0.778   8.013 -0.7772  0.1847  0.7901
   93MOL   C24026184   6.661   0.618   7.675  0.0401  0.5207 -0.0451
   93MOL   C24126185   6.535   0.669   7.638  0.2687 -0.1028 -0.3730
   93MOL   C24226186   6.433   0.585   7.591 -0.0580  0.2602  0.4299
   93MOL   C24326187   6.457   0.444   7.563  0.6056  0.0870 -0.2333
   93MOL   C24426188   6.359   0.352   7.510 -0.1974  0.4818 -0.1755
   93MOL   C24526189   6.228   0.362   7.483  0.2186  0.6585 -0.0439
   93MOL   C24626190   6.588   0.396   7.587 -0.1203  0.1392  0.0170
   93MOL   C24726191   6.687   0.480   7.637 -0.2932  0.4616 -0.2112
   93MOL   H24826192   6.516   0.772   7.664  2.3645 -0.0564  1.0283
   93MOL   H24926193   6.331   0.620   7.590  0.1894  0.9514 -0.1639
   93MOL   H25026194   6.397   0.254   7.485  0.9012  0.3170  2.0095
   93MOL   H25126195   6.171   0.453   7.500 -0.4648  0.2135  0.0639
   93MOL   H25226196   6.614   0.293   7.566  3.3502  1.0738 -0.5276
   93MOL   H25326197   6.787   0.439   7.634 -0.9196 -1.0724 -0.6383
   93MOL   C25426198   6.139   0.263   7.418 -0.3289  0.3665 -0.3102
   93MOL   C25526199   6.181   0.144   7.364  0.0701  0.3711 -0.3223
   93MOL   C25626200   6.086   0.053   7.325  0.0884 -0.2307 -0.0129
   93MOL   C25726201   5.947   0.073   7.333  0.1821 -0.2632 -0.4581
   93MOL   C25826202   5.852   8.129   7.262 -0.3187  0.2552  0.2956
   93MOL   C25926203   5.719   8.104   7.287  0.3685  0.0033 -0.0251
   93MOL   C26026204   5.903   0.196   7.381  0.0679 -0.5135  0.1938
   93MOL   C26126205   6.001   0.288   7.432  0.2907 -0.2794  0.4174
   93MOL   H26226206   6.287   0.130   7.348  0.2651  2.3618 -0.9619
   93MOL   H26326207   6.115   8.104   7.278 -0.7058  0.7548 -2.5088
   93MOL   H26426208   5.899   8.078   7.180  0.2263  0.7092  0.3237
   93MOL   H26526209   5.679   8.036   7.214 -0.0134 -1.3706  1.4540
   93MOL   H26626210   5.802   0.233   7.374  0.5188  0.3971 -1.7802
   93MOL   H26726211   5.971   0.386   7.467  0.2932 -0.0323 -0.2663
   93MOL   C26826212   5.637   0.003   7.400 -0.0321  0.0770 -0.6764
   93MOL   C26926213   5.687   0.018   7.530  1.0455 -0.2201 -1.3451
   93MOL   C27026214   5.597   0.069   7.628 -0.3131  0.2694 -0.4378
   93MOL   C27126215   5.464   0.097   7.601  0.6770  0.0361 -0.5152
   93MOL   C27226216   5.381   0.156   7.706 -1.2782  0.6551 -0.3483
   93MOL   C27326217   5.398   0.142   7.836 -0.0331  0.4035  0.5692
   93MOL   C27426218   5.418   0.082   7.470  0.4544  0.0031  0.4395
   93MOL   C27526219   5.503   0.024   7.374  0.3312 -0.7247  0.2539
   93MOL   H27626220   5.788   8.142   7.563  0.6607 -1.0604 -0.6519
   93MOL   H27726221   5.652   0.095   7.717 -1.3971  3.0830 -0.5442
   93MOL   H27826222   5.294   0.214   7.678 -2.3211 -2.0517 -2.8605
   93MOL   H27926223   5.475   0.081   7.881  0.6269 -0.0376 -1.1199
   93MOL   H28026224   5.318   0.100   7.433  1.4483 -0.0367 -2.4170
   93MOL   H28126225   5.467   8.142   7.276  0.1126  0.4195  0.0285
   93MOL   H28226226   5.332   0.202   7.898  1.1530  1.6292  0.6803
   94MOL     C126227   2.815   3.835   2.394 -0.3714  0.2251 -1.1645
   94MOL     C226228   2.782   3.894   2.515 -0.1941 -0.3976  0.1505
   94MOL     C326229   2.709   4.019   2.517 -0.4269 -0.0402  0.2463
   94MOL     C426230   2.687   4.087   2.401  0.2700 -0.4352  0.2805
   94MOL     C526231   2.608   4.203   2.395  0.3054 -0.2778 -1.1038
   94MOL     C626232   2.516   4.247   2.488  0.0778  0.1638 -0.8508
   94MOL     C726233   2.737   4.037   2.278 -0.1654 -0.1312 -0.2763
   94MOL     C826234   2.798   3.909   2.277 -0.0333  0.3005 -0.7626
   94MOL     H926235   2.781   3.840   2.609 -2.6166  1.3386  1.1836
   94MOL    H1026236   2.674   4.059   2.612 -1.0221 -2.9441  1.3016
   94MOL    H1126237   2.617   4.263   2.306 -2.6989 -1.0032 -1.9563
   94MOL    H1226238   2.516   4.188   2.579 -2.5250  1.1276 -0.2047
   94MOL    H1326239   2.710   4.089   2.187  2.1984  0.2675 -0.7760
   94MOL    H1426240   2.814   3.869   2.178  0.7553  0.6720 -0.7930
   94MOL    H1526241   2.846   3.732   2.382 -1.8542 -0.4760  0.7237
   94MOL    C1626242   2.428   4.360   2.482  0.2439 -0.3235  0.2858
   94MOL    C1726243   2.323   4.374   2.576 -0.5440 -0.4795 -0.2319
   94MOL    C1826244   2.228   4.474   2.560  0.0448  0.2413  0.0061
   94MOL    C1926245   2.226   4.566   2.453  0.0002  0.3669  0.3769
   94MOL    C2026246   2.109   4.659   2.438 -0.3446 -0.4795 -0.2743
   94MOL    C2126247   1.991   4.652   2.499 -0.2158  0.5363  0.1578
   94MOL    C2226248   2.337   4.561   2.366 -0.4269  0.5546  0.4267
   94MOL    C2326249   2.434   4.460   2.375 -0.0637 -0.0415 -0.3323
   94MOL    H2426250   2.312   4.305   2.659  0.3757 -2.2410 -1.5322
   94MOL    H2526251   2.146   4.471   2.630 -1.2611 -0.5024 -1.5527
   94MOL    H2626252   2.124   4.741   2.369  1.9364 -0.0561  0.6649
   94MOL    H2726253   1.970   4.576   2.572  0.4715 -0.0313 -0.2316
   94MOL    H2826254   2.348   4.633   2.286 -0.7791 -0.4575 -0.5319
   94MOL    H2926255   2.511   4.445   2.301  0.1799 -0.8514  0.0766
   94MOL    C3026256   1.878   4.750   2.484  0.1492  0.1586  0.3542
   94MOL    C3126257   1.762   4.734   2.565 -0.1207  0.0007 -0.6341
   94MOL    C3226258   1.654   4.823   2.554 -0.6192  0.0073 -0.3933
   94MOL    C3326259   1.660   4.919   2.453  0.5012 -0.0745  0.6189
   94MOL    C3426260   1.544   5.014   2.423 -0.3776 -0.0460 -0.0755
   94MOL    C3526261   1.417   5.015   2.482 -0.2717  0.4165 -0.3374
   94MOL    C3626262   1.772   4.946   2.376 -0.1288 -1.5688  0.0226
   94MOL    C3726263   1.876   4.862   2.397  0.6788  0.9297  0.9886
   94MOL    H3826264   1.759   4.660   2.644 -0.3763  0.7979  0.1122
   94MOL    H3926265   1.575   4.806   2.625  0.2360  2.3382  1.1616
   94MOL    H4026266   1.558   5.091   2.348 -1.2330 -0.5040 -0.7143
   94MOL    H4126267   1.393   4.943   2.559  1.5373  0.9307  0.7500
   94MOL    H4226268   1.773   5.026   2.303  1.5611 -0.9977  0.6538
   94MOL    H4326269   1.969   4.891   2.350  1.0663 -2.1968 -0.2973
   94MOL    C4426270   1.310   5.114   2.457 -0.7851  0.0147  0.0912
   94MOL    C4526271   1.208   5.134   2.549  0.4619  0.0333 -0.1976
   94MOL    C4626272   1.101   5.218   2.517 -0.5150 -0.3884 -0.3194
   94MOL    C4726273   1.096   5.292   2.397  0.2624  0.2246 -0.0600
   94MOL    C4826274   0.980   5.386   2.363  0.4419  0.6345 -0.8591
   94MOL    C4926275   0.876   5.410   2.441  0.3471 -0.0331 -0.6363
   94MOL    C5026276   1.205   5.286   2.306  0.6012  0.8295  0.7678
   94MOL    C5126277   1.310   5.196   2.337 -0.3640 -0.2692  0.0624
   94MOL    H5226278   1.201   5.086   2.646 -2.1609 -0.4965 -0.6056
   94MOL    H5326279   1.021   5.229   2.589 -2.8875 -0.0730 -2.8931
   94MOL    H5426280   0.986   5.428   2.264 -0.0575  0.2462 -1.0564
   94MOL    H5526281   0.866   5.373   2.542 -1.0430  1.6565 -0.1343
   94MOL    H5626282   1.208   5.354   2.223  2.3308  0.1944  0.3007
   94MOL    H5726283   1.396   5.192   2.272  0.7422 -0.6749  1.4996
   94MOL    C5826284   0.765   5.500   2.410 -0.6520 -0.0484  1.1890
   94MOL    C5926285   0.646   5.481   2.481  0.3110 -0.0733  0.0127
   94MOL    C6026286   0.530   5.554   2.447 -0.0991 -0.2647  0.2389
   94MOL    C6126287   0.525   5.637   2.339 -0.2068  0.4498  0.5273
   94MOL    C6226288   0.402   5.701   2.283  0.0472  0.0438 -0.5372
   94MOL    C6326289   0.283   5.693   2.346 -0.2797  0.2582  0.3867
   94MOL    C6426290   0.645   5.657   2.264  0.5422 -0.4139  0.8481
   94MOL    C6526291   0.763   5.588   2.298  0.0521 -0.3050 -0.0477
   94MOL    H6626292   0.633   5.416   2.566  0.0830  1.4039  1.1306
   94MOL    H6726293   0.447   5.523   2.509  0.6076 -0.5854  1.0291
   94MOL    H6826294   0.418   5.757   2.192  2.8379 -0.8012 -0.6388
   94MOL    H6926295   0.277   5.646   2.443 -1.9381 -0.7395 -0.1852
   94MOL    H7026296   0.638   5.721   2.177  2.1446 -0.7341  0.4628
   94MOL    H7126297   0.852   5.611   2.241  0.4922 -0.7764  0.4386
   94MOL    C7226298   0.159   5.752   2.295  0.1824  0.3333 -0.1133
   94MOL    C7326299   0.045   5.740   2.376  0.0899  0.3925  0.6469
   94MOL    C7426300   8.069   5.805   2.337 -0.7659  0.0698  0.1369
   94MOL    C7526301   8.058   5.875   2.212  0.1857 -0.2046 -0.5846
   94MOL    C7626302   7.940   5.936   2.164  0.7795 -0.3269  0.2720
   94MOL    C7726303   7.826   5.959   2.223  0.1778 -0.3071  0.1509
   94MOL    C7826304   0.031   5.881   2.134  0.3710 -0.4632 -0.5775
   94MOL    C7926305   0.149   5.820   2.167  0.0232  0.1555 -0.0967
   94MOL    H8026306   0.049   5.694   2.474 -1.9257  0.8943  0.9844
   94MOL    H8126307   7.980   5.796   2.397  0.0580  1.3205  1.5887
   94MOL    H8226308   7.942   5.966   2.060  2.6546 -1.6543 -0.1025
   94MOL    H8326309   7.820   5.932   2.327  0.0674 -1.2031 -0.0804
   94MOL    H8426310   0.018   5.934   2.041 -0.1647 -0.7931 -0.6955
   94MOL    H8526311   0.237   5.837   2.107  1.2023 -1.3139  1.1627
   94MOL    C8626312   7.700   6.032   2.184 -0.1098 -0.4645  0.2050
   94MOL    C8726313   7.700   6.113   2.073 -0.6161 -0.4730  0.4516
   94MOL    C8826314   7.579   6.154   2.017 -0.1073 -0.4400 -0.1397
   94MOL    C8926315   7.455   6.118   2.078 -0.3193  0.0607 -0.1067
   94MOL    C9026316   7.325   6.158   2.017 -0.2444 -0.1494 -0.4894
   94MOL    C9126317   7.200   6.109   2.042 -0.0859  0.3350  0.0090
   94MOL    C9226318   7.460   6.043   2.195  0.2148 -0.2837 -0.3348
   94MOL    C9326319   7.582   6.002   2.249  0.5455 -0.0744 -0.5295
   94MOL    H9426320   7.798   6.148   2.044 -0.2649 -0.6517  1.3791
   94MOL    H9526321   7.582   6.215   1.928  2.9104 -1.3888 -0.7349
   94MOL    H9626322   7.345   6.226   1.935  1.5326 -1.7888 -1.4499
   94MOL    H9726323   7.189   6.034   2.119 -2.2815 -0.1264 -0.7196
   94MOL    H9826324   7.368   6.027   2.248  0.7615 -0.6812  0.5059
   94MOL    H9926325   7.580   5.939   2.337  0.0039 -0.2048 -0.6346
   94MOL   C10026326   7.082   6.143   1.969 -0.2178 -0.3416 -0.2650
   94MOL   C10126327   7.072   6.246   1.874 -0.1685  0.0229  0.3399
   94MOL   C10226328   6.953   6.270   1.805  0.9325 -1.2050  0.0798
   94MOL   C10326329   6.839   6.189   1.823 -0.0590  0.3552 -0.1494
   94MOL   C10426330   6.710   6.234   1.763  0.6942  0.1058  0.0080
   94MOL   C10526331   6.588   6.227   1.816  0.7312  0.3567  0.4470
   94MOL   C10626332   6.848   6.085   1.918  0.2429 -0.4473  0.3197
   94MOL   C10726333   6.962   6.070   1.995 -0.0844 -0.5743 -0.0712
   94MOL   H10826334   7.162   6.305   1.858 -0.7311  1.2486  1.5465
   94MOL   H10926335   6.951   6.353   1.735  1.3185 -1.7306 -0.5584
   94MOL   H11026336   6.712   6.275   1.663 -1.4978  1.5928  0.5538
   94MOL   H11126337   6.582   6.195   1.919 -0.1297 -0.9739 -0.0081
   94MOL   H11226338   6.760   6.031   1.948 -0.2284 -0.1620 -0.5351
   94MOL   H11326339   6.975   5.997   2.073  0.9081 -1.5361 -1.1231
   94MOL   C11426340   6.461   6.265   1.756 -0.2817 -0.0525 -0.8939
   94MOL   C11526341   6.457   6.336   1.636  0.7189 -0.3173 -0.1211
   94MOL   C11626342   6.330   6.373   1.589 -0.5871 -0.5220 -0.0081
   94MOL   C11726343   6.214   6.344   1.660  0.4932  0.5165  0.2495
   94MOL   C11826344   6.080   6.382   1.601 -0.3518  0.7249  0.4014
   94MOL   C11926345   5.960   6.329   1.646 -0.5876  0.3876 -0.2543
   94MOL   C12026346   6.221   6.284   1.783 -0.4528 -0.1115  0.2836
   94MOL   C12126347   6.345   6.253   1.837  0.1465  0.2350  0.1392
   94MOL   H12226348   6.547   6.361   1.582  0.7857  0.7146  0.4741
   94MOL   H12326349   6.314   6.415   1.491  0.7135 -1.3119 -0.5807
   94MOL   H12426350   6.077   6.454   1.520  1.4202 -0.0820 -0.3857
   94MOL   H12526351   5.958   6.255   1.723 -1.8035  0.2981 -0.3696
   94MOL   H12626352   6.132   6.265   1.842  1.8809 -1.8329  3.3852
   94MOL   H12726353   6.349   6.197   1.929 -0.4545 -0.5763 -0.3201
   94MOL   C12826354   5.823   6.374   1.605 -0.1842 -0.5582  0.2628
   94MOL   C12926355   5.806   6.470   1.501  0.4813  1.1493  0.2518
   94MOL   C13026356   5.677   6.510   1.456  0.2528  0.6710  0.7194
   94MOL   C13126357   5.560   6.453   1.513 -0.2060 -0.1524  0.5545
   94MOL   C13226358   5.427   6.488   1.471  0.0755  0.6917  0.0431
   94MOL   C13326359   5.328   6.395   1.462  0.2922  0.2084  0.3363
   94MOL   C13426360   5.578   6.348   1.607  0.0238  0.4385  0.3191
   94MOL   C13526361   5.706   6.312   1.649 -0.3827 -0.6550 -0.0912
   94MOL   H13626362   5.892   6.514   1.454  1.0373 -0.1674  0.0207
   94MOL   H13726363   5.667   6.588   1.382 -0.3580 -0.8617 -0.8546
   94MOL   H13826364   5.405   6.591   1.449  0.3694  1.0009  1.2216
   94MOL   H13926365   5.353   6.291   1.482  0.8554  0.3588  0.4382
   94MOL   H14026366   5.496   6.287   1.641  0.2542 -0.1921 -0.2400
   94MOL   H14126367   5.708   6.228   1.718 -0.6718  1.1113  2.1401
   94MOL   C14226368   5.185   6.418   1.427 -0.5590  0.8568  0.2948
   94MOL   C14326369   5.141   6.547   1.397  0.1340  0.1197 -0.1599
   94MOL   C14426370   5.003   6.565   1.381 -0.0879  0.3073 -0.2501
   94MOL   C14526371   4.919   6.454   1.386  0.1586 -0.4295  0.9387
   94MOL   C14626372   4.773   6.472   1.363  0.1452  0.1878  0.6356
   94MOL   C14726373   4.675   6.386   1.403  0.1013 -0.4743 -0.2121
   94MOL   C14826374   4.970   6.331   1.408  0.4961 -0.9179 -0.0847
   94MOL   C14926375   5.101   6.306   1.425 -0.5880  0.1797 -0.1287
   94MOL   H15026376   5.205   6.634   1.392 -0.3577  0.5064  0.1554
   94MOL   H15126377   4.969   6.664   1.356 -1.1138 -0.2764 -1.2331
   94MOL   H15226378   4.751   6.564   1.311 -0.3942  1.0597  2.3832
   94MOL   H15326379   4.712   6.293   1.441  0.2904 -0.3899 -0.1919
   94MOL   H15426380   4.906   6.244   1.414 -2.9377  1.5426  0.8373
   94MOL   H15526381   5.140   6.207   1.442  0.0868  0.3769 -0.5220
   94MOL   C15626382   4.533   6.401   1.379 -0.8152 -0.2377 -0.5422
   94MOL   C15726383   4.478   6.515   1.312  0.0925 -0.1993  0.5851
   94MOL   C15826384   4.338   6.534   1.291  0.4845  0.0652  0.3996
   94MOL   C15926385   4.250   6.421   1.311 -0.5021 -0.3650  0.4587
   94MOL   C16026386   4.111   6.443   1.298  0.3388  0.3298  1.0129
   94MOL   C16126387   4.013   6.373   1.359  0.7308  0.3403 -0.0838
   94MOL   C16226388   4.302   6.311   1.375 -0.4377  0.3011 -0.3034
   94MOL   C16326389   4.434   6.305   1.416  0.3417  0.2187  0.5136
   94MOL   H16426390   4.550   6.589   1.279  0.2128 -0.8529 -0.6215
   94MOL   H16526391   4.300   6.631   1.260 -0.5641  0.3882  2.6144
   94MOL   H16626392   4.074   6.518   1.229  0.7515  0.1392  0.5767
   94MOL   H16726393   4.037   6.293   1.427  1.1262 -0.0474 -0.6779
   94MOL   H16826394   4.238   6.228   1.402  1.1362 -0.3527  1.5801
   94MOL   H16926395   4.460   6.216   1.471  0.6259  0.0267  0.0709
   94MOL   C17026396   3.868   6.389   1.345 -0.2155 -0.6366 -0.5348
   94MOL   C17126397   3.783   6.386   1.458 -0.2630 -0.0103 -0.3649
   94MOL   C17226398   3.647   6.402   1.446 -0.0252  0.0175 -0.3514
   94MOL   C17326399   3.594   6.411   1.321 -0.0277 -0.0469  0.0287
   94MOL   C17426400   3.458   6.463   1.308 -0.2215 -0.1401  0.2984
   94MOL   C17526401   3.413   6.559   1.389 -0.4738  1.0504 -0.3803
   94MOL   C17626402   3.675   6.390   1.206  0.1859  0.1196 -0.4853
   94MOL   C17726403   3.813   6.393   1.221  0.5766  0.7741  0.4142
   94MOL   H17826404   3.812   6.369   1.561 -0.5495  2.3658  0.1325
   94MOL   H17926405   3.585   6.404   1.534 -0.7848 -0.7468 -0.8657
   94MOL   H18026406   3.392   6.419   1.235 -1.4830  0.4834  1.0377
   94MOL   H18126407   3.474   6.596   1.470  0.2051  1.4043 -1.0490
   94MOL   H18226408   3.633   6.384   1.107  1.8331 -0.1704 -1.1786
   94MOL   H18326409   3.866   6.372   1.130  1.4818 -0.2838  1.1728
   94MOL   C18426410   3.277   6.610   1.378 -0.3269  0.0021  0.1840
   94MOL   C18526411   3.207   6.657   1.496  0.4829  0.5733  0.2710
   94MOL   C18626412   3.083   6.722   1.478  0.3554  0.5053  0.5866
   94MOL   C18726413   3.021   6.727   1.346  0.4407 -0.1372 -0.9946
   94MOL   C18826414   2.899   6.803   1.332  0.3750  0.0186 -0.1989
   94MOL   C18926415   2.845   6.824   1.210 -0.7602  0.2547 -0.2833
   94MOL   C19026416   3.091   6.659   1.243 -0.4734 -0.1848 -0.3140
   94MOL   C19126417   3.215   6.605   1.259  0.1289  0.1473  0.2905
   94MOL   H19226418   3.252   6.672   1.593 -2.9998  2.1257  1.7083
   94MOL   H19326419   3.032   6.765   1.563 -1.7272  0.4899 -0.5895
   94MOL   H19426420   2.854   6.844   1.421  1.0765 -0.6957  0.5012
   94MOL   H19526421   2.892   6.789   1.120  0.3244 -1.4417  0.9193
   94MOL   H19626422   3.055   6.661   1.142 -2.1053  0.5340  0.2606
   94MOL   H19726423   3.253   6.569   1.165 -0.4820 -2.9800  1.1909
   94MOL   C19826424   2.725   6.901   1.180 -0.3810 -0.5329  0.4281
   94MOL   C19926425   2.698   6.925   1.048 -0.2750  0.4390 -0.3586
   94MOL   C20026426   2.585   6.993   1.007 -0.8193  0.2905  0.0747
   94MOL   C20126427   2.491   7.037   1.098  0.4603 -0.1564  0.4458
   94MOL   C20226428   2.372   7.114   1.058 -0.5276 -0.2198  0.1670
   94MOL   C20326429   2.269   7.139   1.134 -0.2260  0.0349 -0.3965
   94MOL   C20426430   2.523   7.025   1.239 -0.1618 -0.3666 -0.2294
   94MOL   C20526431   2.634   6.948   1.274 -0.7669 -0.2434 -0.1302
   94MOL   H20626432   2.780   6.901   0.982  1.0396  0.9723  1.0695
   94MOL   H20726433   2.571   7.023   0.904 -1.2693 -0.4005 -0.0692
   94MOL   H20826434   2.378   7.151   0.957 -2.1190  2.1018  0.8907
   94MOL   H20926435   2.270   7.099   1.234  0.4091  0.0183 -0.4126
   94MOL   H21026436   2.454   7.057   1.315  1.5208  1.3007  0.6487
   94MOL   H21126437   2.648   6.931   1.380 -0.6069  0.2063 -0.0803
   94MOL   C21226438   2.152   7.227   1.091 -0.1922  0.4807 -0.4019
   94MOL   C21326439   2.152   7.297   0.972  0.4203 -0.0975 -0.5125
   94MOL   C21426440   2.041   7.371   0.931 -0.1426 -0.1642  0.1470
   94MOL   C21526441   1.926   7.375   1.011  0.1600 -0.3958  0.2914
   94MOL   C21626442   1.803   7.444   0.969  0.2671  0.4288 -0.4231
   94MOL   C21726443   1.689   7.461   1.038  0.1065  0.2799 -0.0744
   94MOL   C21826444   1.926   7.303   1.135  0.7065 -0.2334  0.1755
   94MOL   C21926445   2.035   7.226   1.170  0.8484  0.0783 -0.6334
   94MOL   H22026446   2.237   7.296   0.906 -0.9691 -0.8026 -2.3091
   94MOL   H22126447   2.050   7.422   0.836  0.3185  1.0393  0.8244
   94MOL   H22226448   1.802   7.482   0.868 -0.4690 -0.2266 -0.6688
   94MOL   H22326449   1.681   7.418   1.137  1.7143  0.0341 -0.0321
   94MOL   H22426450   1.837   7.296   1.196  0.2211  0.1801 -0.4752
   94MOL   H22526451   2.043   7.167   1.261  0.6949  0.1610 -0.5655
   94MOL   C22626452   1.566   7.531   0.995 -0.3954 -0.6030  0.6469
   94MOL   C22726453   1.573   7.637   0.902  0.2730 -0.4951 -0.4198
   94MOL   C22826454   1.456   7.686   0.841 -0.2795  0.8280  1.0689
   94MOL   C22926455   1.332   7.633   0.868  0.2728  0.2640 -0.5479
   94MOL   C23026456   1.214   7.689   0.799 -0.2193 -0.5292 -0.4485
   94MOL   C23126457   1.083   7.677   0.837 -0.9136 -0.2347  0.4366
   94MOL   C23226458   1.322   7.536   0.974 -0.2926  0.3632  0.3372
   94MOL   C23326459   1.435   7.482   1.035 -0.1192  0.4168  0.2866
   94MOL   H23426460   1.669   7.678   0.873 -0.2881 -0.3059 -2.0659
   94MOL   H23526461   1.482   7.763   0.769  0.2643 -0.0128  0.3640
   94MOL   H23626462   1.232   7.747   0.710 -0.8760 -1.0977 -0.9572
   94MOL   H23726463   1.061   7.621   0.927  1.1129  0.0284  1.1349
   94MOL   H23826464   1.225   7.504   1.009 -0.6489  0.0345 -0.9215
   94MOL   H23926465   1.433   7.408   1.115  0.5550 -0.8908 -0.8847
   94MOL   C24026466   0.971   7.740   0.766 -0.2160  0.1501 -0.4230
   94MOL   C24126467   0.838   7.725   0.817 -0.1772  0.5758 -0.1369
   94MOL   C24226468   0.723   7.777   0.752  0.0111 -0.0885  0.2096
   94MOL   C24326469   0.735   7.842   0.632  0.3666 -0.2997  0.5089
   94MOL   C24426470   0.614   7.901   0.567  0.1980  0.0167  0.1647
   94MOL   C24526471   0.494   7.920   0.630 -0.5338  0.5378 -0.3241
   94MOL   C24626472   0.861   7.861   0.574  0.5019 -0.3794  0.5033
   94MOL   C24726473   0.975   7.814   0.641  0.9533 -0.4998 -0.6973
   94MOL   H24826474   0.823   7.664   0.905  1.0066  1.1069  0.4434
   94MOL   H24926475   0.623   7.749   0.782  0.5369 -0.9612  1.1640
   94MOL   H25026476   0.619   7.940   0.467  0.0095 -1.4899 -0.4460
   94MOL   H25126477   0.477   7.889   0.732 -0.3134 -1.3480 -0.8461
   94MOL   H25226478   0.872   7.932   0.494 -0.5385 -0.2320  0.4859
   94MOL   H25326479   1.072   7.834   0.597  0.9551 -2.2244 -1.4946
   94MOL   C25426480   0.372   7.971   0.560 -0.0889  0.3810  0.2084
   94MOL   C25526481   0.364   7.997   0.422  0.1586  0.2692  0.1602
   94MOL   C25626482   0.238   8.035   0.365 -0.1012 -0.3144 -0.2625
   94MOL   C25726483   0.130   8.068   0.448 -0.3319 -0.0094  0.5840
   94MOL   C25826484   0.003   8.116   0.390  0.8947 -0.9320  0.3757
   94MOL   C25926485   8.133   0.067   0.296  0.3180 -0.2874  0.1086
   94MOL   C26026486   0.149   8.061   0.587  0.6171 -0.0974 -0.3339
   94MOL   C26126487   0.264   8.009   0.642  1.1278  0.4515 -0.0309
   94MOL   H26226488   0.437   7.976   0.345  0.1317 -0.6809  0.3885
   94MOL   H26326489   0.229   8.029   0.258 -0.4799  1.7814 -0.3669
   94MOL   H26426490   8.056   8.075   0.430  0.2909  0.0833  0.0447
   94MOL   H26526491   8.032   0.085   0.261  0.8599  0.0893 -1.3083
   94MOL   H26626492   0.071   8.095   0.653  0.1922  0.9506 -1.3584
   94MOL   H26726493   0.268   8.005   0.750 -0.9281 -0.3323  0.0421
   94MOL   C26826494   0.094   0.140   0.223 -0.5274  1.0642  0.3543
   94MOL   C26926495   0.207   0.196   0.286  0.7216 -0.0478 -0.9955
   94MOL   C27026496   0.318   0.242   0.209 -0.0111 -0.4959  0.7779
   94MOL   C27126497   0.317   0.227   0.067 -1.0051  0.2597 -0.2155
   94MOL   C27226498   0.434   0.259   8.135  0.9975 -0.0852 -0.1135
   94MOL   C27326499   0.459   0.230   8.004 -0.0047 -1.4894  0.2954
   94MOL   C27426500   0.205   0.165   0.006 -1.0823 -0.4147 -0.1177
   94MOL   C27526501   0.096   0.123   0.082  0.4198 -0.7406  0.0196
   94MOL   H27626502   0.207   0.214   0.392  1.8301  1.8202 -1.2926
   94MOL   H27726503   0.402   0.276   0.267 -1.5082  1.1604  2.0207
   94MOL   H27826504   0.512   0.316   0.037  1.4862 -0.2619 -0.7084
   94MOL   H27926505   0.389   0.182   7.938 -1.5361  2.4945 -1.1110
   94MOL   H28026506   0.207   0.150   8.043  1.1566 -0.6044 -0.0791
   94MOL   H28126507   0.019   0.071   0.026 -1.3538 -2.5184  3.9463
   94MOL   H28226508   0.555   0.263   7.967  0.1689 -1.7321  0.5238
   95MOL     C126509   3.679   7.667   1.846  0.3296 -0.0667 -0.9098
   95MOL     C226510   3.784   7.680   1.944  0.3283 -0.0131  0.0360
   95MOL     C326511   3.896   7.603   1.943  0.5938  1.2301 -0.3709
   95MOL     C426512   3.909   7.501   1.845  0.3747 -0.3064  0.1647
   95MOL     C526513   4.024   7.402   1.847  0.0340  0.7831 -0.3601
   95MOL     C626514   4.109   7.377   1.947  1.1185 -0.0397 -0.1787
   95MOL     C726515   3.814   7.495   1.744 -0.4917  0.2844  0.4278
   95MOL     C826516   3.697   7.576   1.743  0.1667 -0.4758  0.0920
   95MOL     H926517   3.779   7.755   2.022  0.9334  0.6834 -0.5781
   95MOL    H1026518   3.961   7.621   2.028  1.0582  0.2822 -0.5273
   95MOL    H1126519   4.039   7.353   1.752 -3.4682 -0.2603 -0.4159
   95MOL    H1226520   4.096   7.437   2.037  0.8257 -0.3222 -0.0328
   95MOL    H1326521   3.822   7.426   1.661 -1.4808  2.1544 -1.2759
   95MOL    H1426522   3.620   7.568   1.667  2.1778 -1.0405 -1.9660
   95MOL    H1526523   3.590   7.729   1.844  0.4420  0.1404  0.1346
   95MOL    C1626524   4.224   7.282   1.942 -0.6215  0.1113  0.0863
   95MOL    C1726525   4.253   7.191   1.843  0.4375 -0.1602 -0.1077
   95MOL    C1826526   4.363   7.107   1.851  0.1849  0.2213  0.4716
   95MOL    C1926527   4.453   7.121   1.957 -0.5339  0.0402  0.1017
   95MOL    C2026528   4.569   7.036   1.979  0.1549 -0.7639  0.2019
   95MOL    C2126529   4.602   6.929   1.904  0.6897  0.2668 -0.5962
   95MOL    C2226530   4.426   7.212   2.062  0.4469 -0.4893 -0.2266
   95MOL    C2326531   4.313   7.292   2.050  0.6031 -0.2454  0.0771
   95MOL    H2426532   4.192   7.183   1.754 -3.1655 -0.5691  2.2938
   95MOL    H2526533   4.381   7.038   1.770 -1.3616  0.6567 -0.2538
   95MOL    H2626534   4.630   7.064   2.064  0.8055 -3.2056  0.5659
   95MOL    H2726535   4.537   6.903   1.822 -0.6407  0.6934  0.3079
   95MOL    H2826536   4.478   7.212   2.157  0.5207  0.1308 -0.2633
   95MOL    H2926537   4.282   7.358   2.130 -1.2321  0.3222 -1.0601
   95MOL    C3026538   4.713   6.838   1.931  0.0697 -0.5886 -0.6269
   95MOL    C3126539   4.793   6.813   1.819 -0.9464  0.1962  0.1646
   95MOL    C3226540   4.913   6.745   1.839 -0.5481  0.1927  0.2736
   95MOL    C3326541   4.943   6.681   1.959  0.1435  0.3120 -1.1039
   95MOL    C3426542   5.072   6.629   1.981 -0.5845 -0.6115  0.4499
   95MOL    C3526543   5.183   6.673   1.924 -0.7884  0.4539  0.1781
   95MOL    C3626544   4.857   6.697   2.072 -0.2264 -0.8327  0.7284
   95MOL    C3726545   4.735   6.770   2.055  0.8878  0.2121  0.0193
   95MOL    H3826546   4.773   6.855   1.722 -0.9334 -0.3522 -0.0766
   95MOL    H3926547   4.985   6.731   1.760 -2.0401  0.0980 -1.0799
   95MOL    H4026548   5.090   6.547   2.049  2.4566  0.7646  1.4199
   95MOL    H4126549   5.180   6.756   1.855  1.0778  1.9511  1.8506
   95MOL    H4226550   4.882   6.660   2.170 -2.8310  0.9566  2.1206
   95MOL    H4326551   4.681   6.777   2.148  2.7033 -0.1096  1.1244
   95MOL    C4426552   5.325   6.639   1.937  0.7761 -0.2250 -0.1725
   95MOL    C4526553   5.425   6.711   1.860  0.0648 -0.1374 -0.2954
   95MOL    C4626554   5.558   6.682   1.867 -0.5359 -0.4667 -0.6578
   95MOL    C4726555   5.603   6.588   1.966 -0.2814  0.1745 -0.0040
   95MOL    C4826556   5.750   6.570   1.977  0.5234  0.1783 -0.7452
   95MOL    C4926557   5.806   6.471   2.057  0.2760 -0.6629  0.3467
   95MOL    C5026558   5.509   6.511   2.036 -0.2346 -0.0368  0.6560
   95MOL    C5126559   5.371   6.533   2.017  0.2647  0.3150  0.1085
   95MOL    H5226560   5.395   6.799   1.805  0.6957  1.5552  1.9482
   95MOL    H5326561   5.626   6.740   1.806  0.2056  0.3154  0.8765
   95MOL    H5426562   5.812   6.646   1.932 -1.6738  2.1114 -0.6320
   95MOL    H5526563   5.743   6.400   2.108  0.4672 -0.4630  0.8662
   95MOL    H5626564   5.537   6.432   2.105  3.3295  0.8489  0.3408
   95MOL    H5726565   5.304   6.468   2.072  1.7501  0.7779  2.5519
   95MOL    C5826566   5.954   6.450   2.073 -0.0702 -0.3689 -0.9019
   95MOL    C5926567   6.053   6.532   2.013  0.4081 -0.3127 -0.2289
   95MOL    C6026568   6.189   6.515   2.038  0.5638 -0.2302  0.3950
   95MOL    C6126569   6.234   6.413   2.125 -0.2183 -0.4528  0.2289
   95MOL    C6226570   6.382   6.405   2.146  0.2976  0.2049  0.2798
   95MOL    C6326571   6.448   6.321   2.231  0.3980 -0.3916  0.2414
   95MOL    C6426572   6.137   6.333   2.193  0.1148 -0.3890  0.7271
   95MOL    C6526573   5.999   6.352   2.163 -0.3562 -0.4008  0.0973
   95MOL    H6626574   6.029   6.614   1.947 -0.8908  0.2677  0.9266
   95MOL    H6726575   6.256   6.575   1.978 -0.2572  0.3885  0.0755
   95MOL    H6826576   6.434   6.476   2.085 -1.3633  1.6013  0.4268
   95MOL    H6926577   6.387   6.265   2.300  0.5101 -1.9058 -0.8673
   95MOL    H7026578   6.176   6.256   2.258 -2.0058 -1.6175  0.6031
   95MOL    H7126579   5.931   6.291   2.221 -0.1290 -0.1641  0.6222
   95MOL    C7226580   6.590   6.313   2.248  0.6249 -0.2202  0.3458
   95MOL    C7326581   6.634   6.266   2.377  0.2996  0.5322  0.7814
   95MOL    C7426582   6.774   6.257   2.407 -0.0593 -0.4267  0.3234
   95MOL    C7526583   6.868   6.306   2.314  0.2389 -0.3191 -0.5550
   95MOL    C7626584   7.010   6.308   2.336 -0.6506 -0.0188 -0.7768
   95MOL    C7726585   7.069   6.272   2.452  0.1616 -0.5212 -0.2216
   95MOL    C7826586   6.822   6.358   2.191 -0.2173 -0.3076  0.6494
   95MOL    C7926587   6.684   6.363   2.157 -0.0640 -0.9145  0.5520
   95MOL    H8026588   6.560   6.230   2.446  0.5191  0.9011  1.2104
   95MOL    H8126589   6.802   6.227   2.506 -1.5972  0.3740  1.0115
   95MOL    H8226590   7.074   6.344   2.257  0.7283 -0.8205 -0.0508
   95MOL    H8326591   7.007   6.247   2.536 -0.7136  1.0021 -0.3820
   95MOL    H8426592   6.895   6.397   2.122 -1.3494 -0.5172 -0.7080
   95MOL    H8526593   6.659   6.404   2.060  0.1244 -1.2371  0.3652
   95MOL    C8626594   7.217   6.265   2.475 -0.0556 -0.2581 -0.1153
   95MOL    C8726595   7.309   6.308   2.377  0.8251 -0.5377 -0.1890
   95MOL    C8826596   7.444   6.285   2.402  0.2755  0.3553  0.4167
   95MOL    C8926597   7.490   6.215   2.519  0.5066  1.0370 -0.1454
   95MOL    C9026598   7.631   6.183   2.519 -0.0628  1.1281 -0.1637
   95MOL    C9126599   7.692   6.135   2.633 -0.0355  0.5114  0.5308
   95MOL    C9226600   7.398   6.170   2.613 -0.1671 -0.0605 -0.6751
   95MOL    C9326601   7.269   6.200   2.595  0.4117  0.0893 -0.2262
   95MOL    H9426602   7.286   6.357   2.284  0.0285 -0.4456  0.0552
   95MOL    H9526603   7.508   6.322   2.323 -1.0866  0.9731 -0.4251
   95MOL    H9626604   7.689   6.204   2.430  1.5968  0.1907  0.6787
   95MOL    H9726605   7.635   6.128   2.725 -1.7798  1.9211 -0.4086
   95MOL    H9826606   7.433   6.117   2.700  1.2262  1.3032 -0.3983
   95MOL    H9926607   7.194   6.159   2.661 -0.7584 -0.5115 -1.8719
   95MOL   C10026608   7.833   6.086   2.640  0.3324 -0.7817 -0.2369
   95MOL   C10126609   7.925   6.098   2.531 -1.0556  0.0146 -0.4728
   95MOL   C10226610   8.059   6.054   2.547 -0.3541  0.0325 -0.1325
   95MOL   C10326611   8.110   6.009   2.672 -0.1640  0.1568 -0.0230
   95MOL   C10426612   0.102   5.955   2.685 -0.1059  0.6107 -0.5897
   95MOL   C10526613   0.141   5.871   2.783 -0.5776 -0.4595 -0.5354
   95MOL   C10626614   8.016   6.001   2.776  0.1855  0.0193 -0.1927
   95MOL   C10726615   7.876   6.037   2.763  0.1535 -0.4850 -0.5054
   95MOL   H10826616   7.897   6.153   2.443  0.0986  0.2575 -0.6985
   95MOL   H10926617   8.137   6.071   2.474  1.0717 -0.4616  1.2419
   95MOL   H11026618   0.168   5.989   2.606  0.7479  1.4593  0.4604
   95MOL   H11126619   0.073   5.853   2.866 -0.6590 -2.5696 -1.0503
   95MOL   H11226620   8.045   5.973   2.877 -0.7215  0.5468  0.2190
   95MOL   H11326621   7.817   6.040   2.853  4.0299  1.2650  2.1416
   95MOL   C11426622   0.274   5.802   2.800  0.3359  0.2359 -0.0507
   95MOL   C11526623   0.371   5.818   2.698 -0.9797 -0.2746 -0.1926
   95MOL   C11626624   0.492   5.750   2.709 -0.7071  0.1003 -0.5727
   95MOL   C11726625   0.523   5.685   2.831 -0.1395  0.2934 -0.3735
   95MOL   C11826626   0.648   5.614   2.857 -0.8365  0.0849 -0.4078
   95MOL   C11926627   0.762   5.616   2.784  0.3379 -0.3093  0.2526
   95MOL   C12026628   0.427   5.670   2.931  0.4851 -0.2991  0.8424
   95MOL   C12126629   0.296   5.722   2.911  0.2790 -0.2427  0.5376
   95MOL   H12226630   0.349   5.890   2.621 -2.6873  1.0473  1.5151
   95MOL   H12326631   0.569   5.764   2.634  0.0524  1.2284  0.3983
   95MOL   H12426632   0.646   5.541   2.937  1.6239 -1.3397 -1.5906
   95MOL   H12526633   0.760   5.674   2.693  2.1410 -0.2540  0.2376
   95MOL   H12626634   0.440   5.624   3.027  2.0088 -1.3239  0.1535
   95MOL   H12726635   0.214   5.698   2.978 -1.5616  0.7078 -1.3303
   95MOL   C12826636   0.890   5.546   2.801 -0.1657 -0.3840  0.0461
   95MOL   C12926637   0.908   5.454   2.905 -0.6970  0.0237 -0.3211
   95MOL   C13026638   1.027   5.383   2.922  0.4254 -0.5743  0.1917
   95MOL   C13126639   1.135   5.395   2.831 -0.1171  0.3306  0.1451
   95MOL   C13226640   1.258   5.317   2.837  0.8000  0.1752 -0.3583
   95MOL   C13326641   1.298   5.213   2.913  0.5802 -1.5223  0.2949
   95MOL   C13426642   1.114   5.486   2.727  0.7757 -0.2384  0.3163
   95MOL   C13526643   0.996   5.564   2.714 -0.0922 -0.0177 -0.5154
   95MOL   H13626644   0.835   5.446   2.984  1.2236  0.6247  1.5720
   95MOL   H13726645   1.028   5.318   3.008 -2.8746 -0.7730  0.1326
   95MOL   H13826646   1.328   5.351   2.761  2.2712  0.5900  1.1490
   95MOL   H13926647   1.230   5.176   2.988 -0.8025  1.6212  0.6417
   95MOL   H14026648   1.179   5.493   2.642 -0.9550  1.3927 -0.9425
   95MOL   H14126649   0.988   5.629   2.627  1.6432  0.2544 -0.4881
   95MOL   C14226650   1.424   5.147   2.887 -0.5643  0.1190  0.3582
   95MOL   C14326651   1.482   5.071   2.987  0.1517 -0.2417  0.4919
   95MOL   C14426652   1.605   5.003   2.972 -0.3183  0.0251  0.6409
   95MOL   C14526653   1.666   4.992   2.847 -0.0966 -0.4455  0.0032
   95MOL   C14626654   1.795   4.929   2.825 -0.2081  0.6074 -0.5407
   95MOL   C14726655   1.851   4.846   2.912 -0.2966  0.1128 -0.2030
   95MOL   C14826656   1.616   5.084   2.750 -0.5187 -0.0736  0.0702
   95MOL   C14926657   1.501   5.166   2.765  0.9059 -0.2153  0.3218
   95MOL   H15026658   1.435   5.066   3.083 -0.4313 -1.2098  0.1617
   95MOL   H15126659   1.641   4.955   3.062  0.0354  1.2088  1.1468
   95MOL   H15226660   1.848   4.971   2.741 -1.6868 -0.2388 -1.9231
   95MOL   H15326661   1.801   4.809   3.000  0.9513 -0.0315  0.4576
   95MOL   H15426662   1.683   5.092   2.665 -1.9142  1.4582 -0.9246
   95MOL   H15526663   1.469   5.227   2.682 -0.2469 -1.3277 -0.0705
   95MOL   C15626664   1.986   4.797   2.904 -0.9167  0.9412  0.2480
   95MOL   C15726665   2.026   4.694   2.988 -0.4629 -0.1997 -0.1531
   95MOL   C15826666   2.160   4.644   2.981  0.0207  0.6135 -0.0533
   95MOL   C15926667   2.247   4.684   2.876  0.4700  0.1324 -0.0553
   95MOL   C16026668   2.380   4.632   2.852 -0.5672  0.0652 -0.2914
   95MOL   C16126669   2.434   4.524   2.906 -0.4224  0.0081 -1.0290
   95MOL   C16226670   2.198   4.777   2.785 -0.5695 -0.1771  0.5843
   95MOL   C16326671   2.076   4.842   2.801  0.5830  0.6956 -0.6328
   95MOL   H16426672   1.952   4.653   3.055 -0.4462 -2.3823 -1.4430
   95MOL   H16526673   2.193   4.574   3.056  0.1973  1.0469  0.2753
   95MOL   H16626674   2.443   4.682   2.779 -0.1064 -1.0324 -0.6701
   95MOL   H16726675   2.383   4.463   2.979  1.5124 -0.8166 -0.3284
   95MOL   H16826676   2.258   4.799   2.698 -1.4532 -3.6781 -0.9981
   95MOL   H16926677   2.045   4.918   2.730 -1.0090  0.9330  0.2765
   95MOL   C17026678   2.566   4.475   2.868 -0.2495 -0.5072 -0.2019
   95MOL   C17126679   2.587   4.332   2.857 -0.1943  0.1427 -1.2938
   95MOL   C17226680   2.704   4.281   2.800  0.6738 -0.3256 -0.4633
   95MOL   C17326681   2.806   4.376   2.751  0.3319 -0.7494 -0.9024
   95MOL   C17426682   2.937   4.337   2.681 -0.3521  0.6492 -1.0312
   95MOL   C17526683   2.964   4.206   2.646 -0.0929  0.1269 -0.9228
   95MOL   C17626684   2.786   4.515   2.768  0.6398  0.2078 -0.8891
   95MOL   C17726685   2.670   4.562   2.829  0.8384  0.4699  0.0027
   95MOL   H17826686   2.513   4.264   2.894  0.5604 -1.1253 -2.0549
   95MOL   H17926687   2.714   4.174   2.794  2.6239 -0.1734 -0.1441
   95MOL   H18026688   3.006   4.413   2.647  2.5423 -0.1467  2.7759
   95MOL   H18126689   2.894   4.130   2.675  1.0163 -0.4216  0.3681
   95MOL   H18226690   2.858   4.587   2.730  0.4459  1.7224  1.4977
   95MOL   H18326691   2.665   4.666   2.858 -0.4787  0.6862 -0.9621
   95MOL   C18426692   3.078   4.169   2.559 -0.0013  0.2083  0.1865
   95MOL   C18526693   3.114   4.033   2.536  0.0963 -0.5922  0.3697
   95MOL   C18626694   3.225   3.999   2.459 -0.1177 -0.4718 -0.0121
   95MOL   C18726695   3.302   4.100   2.393 -0.4717  0.0076 -0.9084
   95MOL   C18826696   3.409   4.061   2.293 -0.2692 -0.4130  0.0427
   95MOL   C18926697   3.491   4.124   2.210  0.2678  0.0583  1.0320
   95MOL   C19026698   3.269   4.235   2.416  0.3670  0.5881  0.2699
   95MOL   C19126699   3.156   4.271   2.497 -0.9847  0.7199  0.4083
   95MOL   H19226700   3.070   3.949   2.589  0.4375 -2.1311 -1.7372
   95MOL   H19326701   3.240   3.895   2.434 -0.8582 -0.0513 -2.3109
   95MOL   H19426702   3.426   3.954   2.287 -1.5688 -0.9032  3.7805
   95MOL   H19526703   3.483   4.232   2.214 -0.3344  0.0613 -0.0658
   95MOL   H19626704   3.332   4.312   2.375 -0.4464  1.0266 -0.1717
   95MOL   H19726705   3.135   4.377   2.506 -0.8045  0.8528 -0.6585
   95MOL   C19826706   3.588   4.064   2.115 -1.1750  0.6022  0.4359
   95MOL   C19926707   3.725   4.109   2.097  0.3780  0.1433  0.2285
   95MOL   C20026708   3.802   4.054   1.996  0.1936  0.4265  0.7895
   95MOL   C20126709   3.761   3.938   1.925 -1.1279 -0.7042 -0.0126
   95MOL   C20226710   3.851   3.897   1.821 -0.2784 -0.3959  0.5756
   95MOL   C20326711   3.827   3.796   1.731  0.3230 -0.2283  0.2702
   95MOL   C20426712   3.628   3.896   1.939  0.0192  0.0195  0.8768
   95MOL   C20526713   3.549   3.958   2.033  0.3111 -0.3425  0.5127
   95MOL   H20626714   3.757   4.188   2.163 -1.8934 -0.8807  2.6651
   95MOL   H20726715   3.899   4.101   1.985  0.4207 -0.0641  0.7246
   95MOL   H20826716   3.951   3.939   1.811 -0.4218 -0.6245 -2.1218
   95MOL   H20926717   3.729   3.751   1.738  0.1627 -0.4450 -2.9646
   95MOL   H21026718   3.584   3.820   1.875 -4.1898  1.4661  1.8733
   95MOL   H21126719   3.445   3.928   2.035  0.6361 -1.5290 -0.1783
   95MOL   C21226720   3.916   3.749   1.621  0.4516 -1.3042 -0.1275
   95MOL   C21326721   3.902   3.617   1.569  0.0294  0.3036  0.2408
   95MOL   C21426722   3.985   3.581   1.463  0.1352  0.4982  0.0029
   95MOL   C21526723   4.084   3.660   1.416 -1.0212 -0.0065  0.3013
   95MOL   C21626724   4.164   3.622   1.301 -1.1588  0.1317  0.3878
   95MOL   C21726725   4.128   3.533   1.211 -0.0044 -0.1183  0.2863
   95MOL   C21826726   4.099   3.785   1.471  0.7434  0.1388 -0.1813
   95MOL   C21926727   4.012   3.834   1.573 -0.5472  0.4940 -0.2599
   95MOL   H22026728   3.821   3.554   1.601  0.4079 -0.1891  0.2228
   95MOL   H22126729   3.969   3.492   1.404 -0.1260 -0.8506  2.0643
   95MOL   H22226730   4.259   3.674   1.305 -1.6931  1.0589  1.5860
   95MOL   H22326731   4.027   3.494   1.212 -0.8408  1.9700 -0.2743
   95MOL   H22426732   4.176   3.852   1.434  0.7498  0.5087  0.4960
   95MOL   H22526733   4.028   3.932   1.616 -0.5769  0.7640 -0.8651
   95MOL   C22626734   4.215   3.473   1.107 -0.9161 -0.1979  0.5744
   95MOL   C22726735   4.354   3.485   1.123 -0.0874  0.0505  0.1670
   95MOL   C22826736   4.435   3.449   1.011  0.4453 -0.6111  0.0084
   95MOL   C22926737   4.375   3.410   0.887 -0.2054  0.1384  0.3379
   95MOL   C23026738   4.459   3.393   0.761 -0.5513 -0.6583  0.4680
   95MOL   C23126739   4.590   3.421   0.747  0.1965  0.6014  0.6450
   95MOL   C23226740   4.239   3.382   0.883 -0.1241 -0.3964 -0.3912
   95MOL   C23326741   4.166   3.421   0.990 -0.0408 -0.2167 -0.0737
   95MOL   H23426742   4.401   3.515   1.216 -1.3541 -0.2049  0.9012
   95MOL   H23526743   4.541   3.461   1.026  0.8803  1.1255 -3.9074
   95MOL   H23626744   4.402   3.354   0.678  0.3258 -3.4579  1.1381
   95MOL   H23726745   4.653   3.450   0.830 -0.5888  0.4485  1.3031
   95MOL   H23826746   4.190   3.348   0.793 -1.5173 -0.0330  0.2236
   95MOL   H23926747   4.059   3.410   0.982 -0.1327  1.0056 -0.5246
   95MOL   C24026748   4.662   3.420   0.619  0.0696 -0.1844  0.3296
   95MOL   C24126749   4.586   3.434   0.502 -0.5599  0.5256 -0.8896
   95MOL   C24226750   4.654   3.459   0.384  0.5352 -0.2330 -0.0028
   95MOL   C24326751   4.793   3.464   0.374  0.1006 -0.6675  0.2877
   95MOL   C24426752   4.862   3.498   0.241  0.3193 -0.1568 -0.0080
   95MOL   C24526753   4.796   3.532   0.126 -0.0815 -0.6174  0.2581
   95MOL   C24626754   4.864   3.434   0.492 -0.0255 -0.3943 -0.1352
   95MOL   C24726755   4.800   3.412   0.614 -0.1647 -0.4816  1.1442
   95MOL   H24826756   4.479   3.445   0.511 -0.6664 -0.5295 -0.7554
   95MOL   H24926757   4.588   3.488   0.303  2.0877  1.5565 -0.6744
   95MOL   H25026758   4.969   3.494   0.242  0.2871 -2.3935 -1.1894
   95MOL   H25126759   4.688   3.528   0.126 -0.0801 -0.7070 -0.1725
   95MOL   H25226760   4.972   3.427   0.494 -0.0607 -0.8649  0.0644
   95MOL   H25326761   4.857   3.398   0.705 -0.5254 -2.0462  1.1306
   95MOL   C25426762   4.860   3.573   8.143  0.0660  0.9273  1.4245
   95MOL   C25526763   4.779   3.609   8.030  0.6753 -0.0505 -0.0346
   95MOL   C25626764   4.834   3.646   7.906 -0.1192  0.3693  0.2818
   95MOL   C25726765   4.972   3.646   7.890 -0.0855  0.3470 -0.6749
   95MOL   C25826766   5.033   3.679   7.761 -0.4777 -1.3576  0.5726
   95MOL   C25926767   5.090   3.793   7.724  0.0834  0.7338 -0.7565
   95MOL   C26026768   5.057   3.615   7.999  1.0869  0.4345 -1.1464
   95MOL   C26126769   5.001   3.576   8.123 -1.1521 -0.0451  0.7231
   95MOL   H26226770   4.672   3.611   8.045  0.6779  2.3049 -0.0730
   95MOL   H26326771   4.770   3.674   7.824 -0.5014  2.5939  1.3101
   95MOL   H26426772   5.032   3.613   7.675  0.9756  0.5562 -0.9452
   95MOL   H26526773   5.134   3.797   7.625 -2.0289  0.9046 -1.7030
   95MOL   H26626774   5.164   3.624   7.994  1.1082  1.4685  0.7700
   95MOL   H26726775   5.066   3.547   0.060  2.1796  1.2541 -1.3592
   95MOL   C26826776   5.107   3.921   7.798  0.3357 -0.0065  0.3796
   95MOL   C26926777   5.203   4.020   7.754  0.8449 -0.1053  0.1155
   95MOL   C27026778   5.214   4.145   7.820 -0.3134  0.0511  1.0247
   95MOL   C27126779   5.131   4.182   7.927  0.1978  0.0577  0.6595
   95MOL   C27226780   5.149   4.316   7.985  0.2844  0.3594 -0.1296
   95MOL   C27326781   5.226   4.420   7.951  0.4773  0.1529  1.0201
   95MOL   C27426782   5.032   4.091   7.970 -0.2375  0.9020 -0.0606
   95MOL   C27526783   5.027   3.962   7.907  0.1508 -0.9301 -0.3145
   95MOL   H27626784   5.270   3.988   7.675  0.4587 -0.6356 -0.0028
   95MOL   H27726785   5.298   4.207   7.792  2.1961 -3.9935 -0.9247
   95MOL   H27826786   5.094   4.339   8.075  0.2795  0.0374 -0.0504
   95MOL   H27926787   5.286   4.426   7.861 -0.3419  1.8921  0.5542
   95MOL   H28026788   4.969   4.130   8.049 -0.2776 -1.1764  0.9491
   95MOL   H28126789   4.943   3.900   7.934  0.5608 -0.3487  2.4614
   95MOL   H28226790   5.225   4.505   8.017 -1.9387  1.6516 -0.8512
   96MOL     C126791   5.509   0.206   0.871 -0.0364 -0.8475 -0.1231
   96MOL     C226792   5.564   0.278   0.978 -0.7840 -0.2567  0.1731
   96MOL     C326793   5.700   0.280   1.007  0.3727 -0.1516 -0.4697
   96MOL     C426794   5.788   0.215   0.918 -0.3227 -0.3666 -0.5043
   96MOL     C526795   5.930   0.213   0.948 -0.1969  0.1529  0.1290
   96MOL     C626796   5.980   0.216   1.072  0.1817 -0.4537 -0.0923
   96MOL     C726797   5.734   0.150   0.806 -0.7229 -0.5024 -0.2340
   96MOL     C826798   5.598   0.136   0.783 -0.1243 -0.5543  0.3685
   96MOL     H926799   5.498   0.323   1.051 -0.1195  0.4127  0.3728
   96MOL    H1026800   5.734   0.338   1.092 -0.0646  1.1899 -1.1833
   96MOL    H1126801   6.004   0.217   0.870 -1.4757  0.6146 -1.0739
   96MOL    H1226802   5.906   0.219   1.151  0.3264  1.1509  0.0041
   96MOL    H1326803   5.809   0.102   0.745 -1.2649 -2.3998  0.5430
   96MOL    H1426804   5.561   0.090   0.692  3.4858  0.4141 -1.6705
   96MOL    H1526805   5.403   0.184   0.866 -0.0472 -0.9202  0.3937
   96MOL    C1626806   6.116   0.213   1.109 -0.5275 -0.2878 -2.0355
   96MOL    C1726807   6.147   0.263   1.237  0.4933 -0.4890 -0.1750
   96MOL    C1826808   6.274   0.257   1.294 -0.1865 -0.0074  0.7276
   96MOL    C1926809   6.379   0.209   1.216  0.6377  0.4714  0.1039
   96MOL    C2026810   6.520   0.187   1.265 -0.2773 -0.7961  0.0826
   96MOL    C2126811   6.583   0.231   1.378  0.5280  0.6055  0.6149
   96MOL    C2226812   6.355   0.169   1.077 -0.2298 -0.5454  0.2184
   96MOL    C2326813   6.225   0.187   1.018  0.4213  0.1203 -0.1823
   96MOL    H2426814   6.072   0.311   1.297 -1.6681 -1.9292 -1.6665
   96MOL    H2526815   6.283   0.292   1.396 -1.6421  1.2218  0.4638
   96MOL    H2626816   6.584   0.124   1.206  0.2563 -0.8080  0.6636
   96MOL    H2726817   6.523   0.289   1.446 -1.7357  0.6731 -1.3513
   96MOL    H2826818   6.435   0.143   1.010 -0.5395 -0.0685 -0.3462
   96MOL    H2926819   6.205   0.166   0.914  4.1879 -2.6280 -0.4408
   96MOL    C3026820   6.719   0.211   1.423  0.5199 -0.0744 -0.3788
   96MOL    C3126821   6.815   0.154   1.340 -0.3596  0.1788 -0.1653
   96MOL    C3226822   6.947   0.128   1.385  0.3137 -0.4488 -0.0949
   96MOL    C3326823   6.983   0.169   1.512 -0.2285 -0.5395  0.0697
   96MOL    C3426824   7.127   0.132   1.553 -0.5334 -0.6290  0.2408
   96MOL    C3526825   7.179   0.149   1.675  0.0254  0.6694  0.2961
   96MOL    C3626826   6.893   0.238   1.595  0.1010  0.2310  0.4699
   96MOL    C3726827   6.752   0.246   1.556  0.0967 -0.1721  1.1493
   96MOL    H3826828   6.780   0.116   1.245  2.0127 -0.3802 -0.8393
   96MOL    H3926829   7.017   0.071   1.326 -0.7512 -1.8817  0.0001
   96MOL    H4026830   7.190   0.088   1.476 -0.1380  0.5191 -0.1060
   96MOL    H4126831   7.126   0.211   1.746 -0.0973  1.5363 -0.5485
   96MOL    H4226832   6.928   0.280   1.689  1.3660  0.6051 -0.1557
   96MOL    H4326833   6.682   0.294   1.623 -0.5823 -0.5247  0.7070
   96MOL    C4426834   7.311   0.100   1.718  0.0666 -0.2389 -0.0451
   96MOL    C4526835   7.372   8.132   1.669  0.1982  0.1612  0.7888
   96MOL    C4626836   7.509   8.101   1.684 -0.4597  0.0273  0.4442
   96MOL    C4726837   7.587   0.048   1.764  0.2266  0.5006  0.1206
   96MOL    C4826838   7.718   8.141   1.807 -0.2223 -0.6718  0.5182
   96MOL    C4926839   7.794   0.049   1.907  0.0511  0.5920  0.3995
   96MOL    C5026840   7.528   0.166   1.817  0.5972  0.1422  0.4848
   96MOL    C5126841   7.385   0.185   1.797  0.0049  0.4510  0.1603
   96MOL    H5226842   7.315   8.061   1.612  1.1710  1.0646 -1.3691
   96MOL    H5326843   7.545   8.013   1.634  1.1547 -0.1705  1.8952
   96MOL    H5426844   7.757   8.064   1.742 -0.0330 -0.6604  0.6199
   96MOL    H5526845   7.758   0.131   1.966  2.0900  2.2947 -0.6791
   96MOL    H5626846   7.588   0.243   1.864  1.4659 -0.9244  1.1679
   96MOL    H5726847   7.339   0.277   1.831 -1.2180  0.0579 -0.3974
   96MOL    C5826848   7.923   8.131   1.939 -0.1693 -0.1078 -0.9819
   96MOL    C5926849   7.970   8.001   1.897 -0.1210  0.6899  0.6892
   96MOL    C6026850   8.106   7.959   1.925 -0.3814  0.0451 -0.7376
   96MOL    C6126851   0.049   8.031   2.003 -0.0322 -0.2298 -0.2202
   96MOL    C6226852   0.187   7.981   2.022 -0.0879  0.3494  0.4179
   96MOL    C6326853   0.285   8.026   2.109  0.0422  0.2338 -0.4651
   96MOL    C6426854   8.143   0.011   2.059 -0.5759  0.6090 -0.2005
   96MOL    C6526855   8.016   0.060   2.021 -0.9435  0.4988 -0.1223
   96MOL    H6626856   7.903   7.932   1.848 -1.2917  1.7899  0.7166
   96MOL    H6726857   8.142   7.866   1.882  2.0373  1.4935 -1.9202
   96MOL    H6826858   0.215   7.907   1.949 -1.7526 -0.8179  0.9599
   96MOL    H6926859   0.263   8.115   2.166  1.3085 -0.5139  1.2274
   96MOL    H7026860   0.065   0.062   2.128  0.4354 -1.3096  0.2825
   96MOL    H7126861   7.992   0.157   2.063  0.0919  0.0426  1.5891
   96MOL    C7226862   0.420   7.963   2.127  0.5763  0.3470 -0.8092
   96MOL    C7326863   0.512   8.029   2.214  0.4808 -0.3231 -0.5537
   96MOL    C7426864   0.640   7.976   2.245  0.5485 -0.0380  0.4317
   96MOL    C7526865   0.673   7.847   2.198 -0.0751  0.4362  0.3455
   96MOL    C7626866   0.807   7.795   2.215 -0.4476  0.0982  0.3544
   96MOL    C7726867   0.857   7.684   2.155  0.1796 -1.2946  0.1522
   96MOL    C7826868   0.576   7.773   2.116 -1.1123 -0.0936 -0.2181
   96MOL    C7926869   0.450   7.828   2.084 -0.1561 -0.2399 -0.2601
   96MOL    H8026870   0.486   8.128   2.250  0.2754 -1.1966  1.7860
   96MOL    H8126871   0.710   8.030   2.307  1.4158 -2.3351  1.5339
   96MOL    H8226872   0.865   7.845   2.291  0.1372 -0.6801  0.4255
   96MOL    H8326873   0.800   7.623   2.086  0.7170  0.8340 -2.2418
   96MOL    H8426874   0.596   7.671   2.089  1.1905  0.3881 -0.4324
   96MOL    H8526875   0.376   7.761   2.043 -0.2416 -0.3466  0.0627
   96MOL    C8626876   0.998   7.629   2.171  0.2740  0.4898 -0.2542
   96MOL    C8726877   1.025   7.502   2.116  0.5533  0.5149  0.4747
   96MOL    C8826878   1.142   7.432   2.133 -0.7918 -0.0054 -0.8062
   96MOL    C8926879   1.243   7.486   2.217 -0.1043  0.2859 -0.5781
   96MOL    C9026880   1.374   7.416   2.242  0.2046  0.0413 -0.5791
   96MOL    C9126881   1.469   7.447   2.330 -0.5451  0.3746  0.3758
   96MOL    C9226882   1.219   7.607   2.284  0.0101 -0.5840  0.9527
   96MOL    C9326883   1.098   7.676   2.260 -0.3034  0.0572 -0.2115
   96MOL    H9426884   0.952   7.458   2.050  0.9402 -0.8665  0.9441
   96MOL    H9526885   1.156   7.335   2.087 -0.3685  0.1160 -0.9412
   96MOL    H9626886   1.394   7.330   2.179  1.1316  1.7930 -2.7325
   96MOL    H9726887   1.450   7.532   2.394 -0.0808 -1.2196  2.6979
   96MOL    H9826888   1.294   7.660   2.341  0.3048  0.4184 -0.3499
   96MOL    H9926889   1.086   7.773   2.306  0.9060 -0.3083  0.9331
   96MOL   C10026890   1.598   7.382   2.351 -0.0550  0.1382  0.6839
   96MOL   C10126891   1.628   7.257   2.281 -0.0021  0.6436 -0.4802
   96MOL   C10226892   1.761   7.199   2.291  0.2146  0.0350 -0.0911
   96MOL   C10326893   1.864   7.261   2.361  0.6296  1.1366 -0.0682
   96MOL   C10426894   1.993   7.194   2.376  1.0423 -0.0276  0.0374
   96MOL   C10526895   2.092   7.235   2.462 -0.5439  0.0432  0.5056
   96MOL   C10626896   1.840   7.388   2.421  0.7595 -0.0560  0.1973
   96MOL   C10726897   1.708   7.443   2.419  0.3989  0.1836  0.3506
   96MOL   H10826898   1.544   7.205   2.237  1.2450  0.0508 -2.2362
   96MOL   H10926899   1.771   7.102   2.245 -1.0904 -0.9520  1.6245
   96MOL   H11026900   2.001   7.101   2.321 -0.6849 -0.0601 -0.1887
   96MOL   H11126901   2.091   7.323   2.524  0.1121  0.6093 -0.2762
   96MOL   H11226902   1.917   7.438   2.478 -0.2624  1.7098  0.0599
   96MOL   H11326903   1.686   7.536   2.469  2.8893  1.4545 -0.7991
   96MOL   C11426904   2.217   7.154   2.485  0.4959 -0.2845 -0.2890
   96MOL   C11526905   2.247   7.033   2.424 -0.1064 -0.3304 -0.2401
   96MOL   C11626906   2.378   6.987   2.429 -0.1208  0.6471  0.1343
   96MOL   C11726907   2.479   7.044   2.513 -0.0094  0.2145 -0.4219
   96MOL   C11826908   2.607   6.983   2.509 -0.0303 -0.1646 -0.4471
   96MOL   C11926909   2.698   6.981   2.611  0.7085 -0.9938  0.6950
   96MOL   C12026910   2.439   7.158   2.590  0.4391 -0.2016  0.3548
   96MOL   C12126911   2.313   7.207   2.573 -0.5589  0.1332  0.0439
   96MOL   H12226912   2.180   6.980   2.357 -1.9171  2.0686 -0.4251
   96MOL   H12326913   2.399   6.904   2.364 -0.0306 -1.1963  2.4533
   96MOL   H12426914   2.625   6.935   2.414 -1.5775  0.6267 -1.1769
   96MOL   H12526915   2.665   7.037   2.698 -2.5691 -0.3214 -0.8976
   96MOL   H12626916   2.509   7.205   2.657  0.3592  1.1932 -0.5200
   96MOL   H12726917   2.285   7.299   2.622 -0.2402  1.0259 -1.4440
   96MOL   C12826918   2.822   6.917   2.613 -0.3527 -0.7062  0.1522
   96MOL   C12926919   2.927   6.965   2.693  0.2119 -0.5655  0.8766
   96MOL   C13026920   3.048   6.888   2.701 -0.5102  0.2992  0.7994
   96MOL   C13126921   3.074   6.781   2.614  0.7694  0.1705  0.6595
   96MOL   C13226922   3.211   6.714   2.602 -0.0491 -0.1188  0.2858
   96MOL   C13326923   3.333   6.756   2.642  0.0066  0.6705 -0.4791
   96MOL   C13426924   2.973   6.738   2.529 -0.5958 -0.4384 -0.0488
   96MOL   C13526925   2.849   6.806   2.527 -0.0357 -0.0770 -0.1203
   96MOL   H13626926   2.914   7.056   2.749  1.2236  1.6310 -2.3299
   96MOL   H13726927   3.127   6.927   2.763  0.2958  2.3223 -1.4096
   96MOL   H13826928   3.214   6.615   2.558  0.6643 -0.7985  1.8233
   96MOL   H13926929   3.338   6.855   2.685  0.3883  0.7693 -0.7481
   96MOL   H14026930   2.997   6.672   2.447 -0.4279  0.4039 -0.6845
   96MOL   H14126931   2.772   6.765   2.463  0.1546 -1.4565  0.5003
   96MOL   C14226932   3.461   6.686   2.632  0.0417 -0.5629 -0.9318
   96MOL   C14326933   3.570   6.724   2.720 -0.0222 -0.4679 -0.4334
   96MOL   C14426934   3.694   6.658   2.714 -0.3753  0.4496  0.4503
   96MOL   C14526935   3.723   6.557   2.618 -0.4578 -1.0024 -0.2678
   96MOL   C14626936   3.852   6.482   2.622 -1.0356  0.3543 -0.8141
   96MOL   C14726937   3.941   6.468   2.727 -0.6467  0.4756 -0.0519
   96MOL   C14826938   3.612   6.513   2.546  0.7406  0.0797 -0.0367
   96MOL   C14926939   3.482   6.571   2.554 -0.2460 -0.0489  0.4370
   96MOL   H15026940   3.553   6.796   2.798  0.5176  2.0750 -2.6018
   96MOL   H15126941   3.773   6.695   2.778 -2.4531  3.0608  1.5940
   96MOL   H15226942   3.880   6.441   2.526  0.8798 -0.2166 -0.0423
   96MOL   H15326943   3.932   6.510   2.826 -0.0690 -0.3129  0.3429
   96MOL   H15426944   3.618   6.422   2.487  0.4925  0.4574 -0.6526
   96MOL   H15526945   3.405   6.515   2.503  0.3172  0.0352 -0.5230
   96MOL   C15626946   4.072   6.403   2.705 -0.3945  0.7515  0.5590
   96MOL   C15726947   4.185   6.432   2.785  0.5894 -0.0399  0.1474
   96MOL   C15826948   4.293   6.347   2.779 -0.8464  0.3346  0.6534
   96MOL   C15926949   4.299   6.226   2.701  0.2944 -0.5344 -0.2919
   96MOL   C16026950   4.410   6.127   2.710  0.0740 -0.1097 -0.2309
   96MOL   C16126951   4.441   6.023   2.638 -0.1368  0.0083  0.5186
   96MOL   C16226952   4.197   6.211   2.610  1.4988 -0.2440  0.2025
   96MOL   C16326953   4.083   6.301   2.615 -0.1289  0.5045  0.5405
   96MOL   H16426954   4.182   6.521   2.845  0.9930  0.1789 -0.1551
   96MOL   H16526955   4.377   6.369   2.843  0.3041  2.2629 -1.4585
   96MOL   H16626956   4.470   6.158   2.794 -0.9650 -0.4184  0.6385
   96MOL   H16726957   4.374   5.995   2.558  1.0874  2.5544 -1.4653
   96MOL   H16826958   4.198   6.134   2.535 -0.8337 -1.0774  0.9889
   96MOL   H16926959   4.003   6.272   2.548 -0.5433  0.1516  1.1758
   96MOL   C17026960   4.560   5.939   2.669 -0.2961 -0.8029  0.2079
   96MOL   C17126961   4.549   5.803   2.642  0.4300 -0.1582 -0.6721
   96MOL   C17226962   4.651   5.715   2.681  0.2118 -0.5462  0.4116
   96MOL   C17326963   4.772   5.763   2.742 -0.5107  0.1984 -0.1913
   96MOL   C17426964   4.874   5.665   2.762 -0.4804 -0.5403  0.4392
   96MOL   C17526965   5.001   5.688   2.796  0.7893  0.1010  0.0959
   96MOL   C17626966   4.785   5.900   2.761  0.2583 -0.5456  0.5790
   96MOL   C17726967   4.676   5.990   2.739  0.7130  0.9115 -0.1711
   96MOL   H17826968   4.460   5.764   2.595 -0.4778 -0.1228  0.9767
   96MOL   H17926969   4.646   5.607   2.669  0.4092 -0.5925  0.7515
   96MOL   H18026970   4.847   5.563   2.739  2.6776 -1.3028 -0.2109
   96MOL   H18126971   5.016   5.789   2.830  0.3582 -0.1467  1.0468
   96MOL   H18226972   4.881   5.940   2.787 -0.1453  0.8414 -0.0137
   96MOL   H18326973   4.683   6.097   2.749 -1.3360  1.2145 -1.6829
   96MOL   C18426974   5.107   5.590   2.803 -0.7104  0.5416 -0.2228
   96MOL   C18526975   5.217   5.618   2.879  0.8025  1.1643 -0.0265
   96MOL   C18626976   5.327   5.521   2.900 -0.1821  0.1926  1.0061
   96MOL   C18726977   5.322   5.392   2.835  0.3710  0.1245  0.7450
   96MOL   C18826978   5.428   5.291   2.845  0.4205 -0.3397 -0.3035
   96MOL   C18926979   5.550   5.311   2.899  0.4982 -0.0063  0.2962
   96MOL   C19026980   5.207   5.375   2.754  0.2972  0.4528 -0.0638
   96MOL   C19126981   5.103   5.465   2.740  0.5887  0.6841 -0.2642
   96MOL   H19226982   5.232   5.716   2.922  1.3598  1.3830 -0.7105
   96MOL   H19326983   5.408   5.549   2.966  0.4808  1.0536 -0.1429
   96MOL   H19426984   5.404   5.192   2.810 -0.5377 -0.4280  0.5931
   96MOL   H19526985   5.571   5.403   2.952 -2.2840 -1.2395  3.7013
   96MOL   H19626986   5.204   5.284   2.696 -1.5455  0.1609  0.4655
   96MOL   H19726987   5.008   5.426   2.706  0.0549 -1.0045  2.9216
   96MOL   C19826988   5.663   5.217   2.896 -1.1210  0.6561 -0.0694
   96MOL   C19926989   5.786   5.259   2.959  0.0871 -0.6339  0.2856
   96MOL   C20026990   5.892   5.172   2.970 -0.6346 -0.4572  0.0109
   96MOL   C20126991   5.892   5.049   2.902 -0.2873 -0.3904 -0.3936
   96MOL   C20226992   6.012   4.964   2.909 -0.1029 -0.5725 -0.7314
   96MOL   C20326993   6.032   4.842   2.860 -0.2897  0.4996 -0.1911
   96MOL   C20426994   5.774   5.010   2.833 -0.0343  0.2361  0.0199
   96MOL   C20526995   5.663   5.097   2.822 -0.2372 -0.5354  0.4416
   96MOL   H20626996   5.792   5.357   3.004  0.3024 -0.2252 -0.6099
   96MOL   H20726997   5.981   5.203   3.024 -2.2608  1.3300  1.7033
   96MOL   H20826998   6.089   5.019   2.961 -1.3076 -0.2673  0.7897
   96MOL   H20926999   5.953   4.800   2.800 -0.6047 -0.9640  1.2229
   96MOL   H21027000   5.756   4.912   2.790 -0.1424  0.6257 -0.8188
   96MOL   H21127001   5.571   5.065   2.776 -0.2073 -0.2140  0.1494
   96MOL   C21227002   6.155   4.766   2.877 -0.7120 -0.2123  1.0781
   96MOL   C21327003   6.265   4.806   2.954 -0.4313  0.2761 -0.8963
   96MOL   C21427004   6.390   4.741   2.958  0.2575  0.6821 -0.4025
   96MOL   C21527005   6.406   4.623   2.884  0.0481 -0.6039  0.4467
   96MOL   C21627006   6.522   4.531   2.902  0.1611  0.0654  0.1274
   96MOL   C21727007   6.626   4.560   2.980 -0.5747 -0.3163 -0.6283
   96MOL   C21827008   6.297   4.576   2.807  0.4575  0.0782  0.0875
   96MOL   C21927009   6.172   4.644   2.807  0.7342 -0.6150  0.2330
   96MOL   H22027010   6.260   4.896   3.014  2.4679 -0.9817  1.3180
   96MOL   H22127011   6.471   4.792   3.007  0.5268 -0.4308  0.3300
   96MOL   H22227012   6.510   4.443   2.840  1.1089 -0.0671  0.1259
   96MOL   H22327013   6.630   4.653   3.033 -1.1678  0.6508 -2.2380
   96MOL   H22427014   6.302   4.483   2.752 -3.1691  0.5787 -1.1782
   96MOL   H22527015   6.094   4.604   2.744  0.8207 -1.3582  0.5927
   96MOL   C22627016   6.748   4.490   2.992 -0.5707  0.2375  0.0065
   96MOL   C22727017   6.834   4.523   3.097 -0.4858  0.0995 -0.4740
   96MOL   C22827018   6.959   4.472   3.104 -0.1659 -0.6621 -0.3855
   96MOL   C22927019   6.998   4.368   3.019 -0.2353 -0.0098 -0.4402
   96MOL   C23027020   7.136   4.330   3.021 -0.4391 -0.3709  0.4754
   96MOL   C23127021   7.201   4.263   2.923  0.3840 -0.0661  0.6123
   96MOL   C23227022   6.909   4.323   2.916 -0.6233  0.2976  0.4367
   96MOL   C23327023   6.791   4.389   2.899  0.5388  0.6090 -0.3780
   96MOL   H23427024   6.799   4.601   3.164 -1.5123 -2.1053  1.6087
   96MOL   H23527025   7.024   4.521   3.175  0.1058 -0.9224 -0.4507
   96MOL   H23627026   7.190   4.349   3.113  0.1208 -0.9324  0.2635
   96MOL   H23727027   7.160   4.252   2.824  1.1296  0.9628  0.1914
   96MOL   H23827028   6.938   4.248   2.843  1.4087  0.1901  1.3190
   96MOL   H23927029   6.732   4.358   2.814 -0.9165 -1.3565  1.3186
   96MOL   C24027030   7.339   4.211   2.919 -0.0624 -0.1473  0.1731
   96MOL   C24127031   7.427   4.196   3.033 -0.3153 -0.3390  0.1943
   96MOL   C24227032   7.561   4.152   3.015  0.3236  0.3690 -0.3397
   96MOL   C24327033   7.612   4.112   2.891  0.3126  0.2687  1.0817
   96MOL   C24427034   7.746   4.061   2.886  0.1127 -0.0188 -0.4574
   96MOL   C24527035   7.801   3.998   2.780 -0.4063 -0.3404 -0.0209
   96MOL   C24627036   7.520   4.121   2.779 -0.8797 -0.0196  0.7172
   96MOL   C24727037   7.389   4.169   2.791  0.0401 -0.7058 -0.5460
   96MOL   H24827038   7.398   4.225   3.133 -0.4525  0.7876 -0.1574
   96MOL   H24927039   7.627   4.145   3.100  0.9186  0.0389 -0.8303
   96MOL   H25027040   7.810   4.072   2.972 -1.2383 -2.4441  0.8755
   96MOL   H25127041   7.737   3.982   2.694 -1.7190 -2.1023  1.2483
   96MOL   H25227042   7.556   4.098   2.680 -1.6035  0.1266  0.4233
   96MOL   H25327043   7.337   4.170   2.697  3.9825 -1.8987 -2.8407
   96MOL   C25427044   7.933   3.929   2.767  0.3315 -0.3271  0.1727
   96MOL   C25527045   7.967   3.865   2.646  0.6630  0.8556 -0.3588
   96MOL   C25627046   8.090   3.807   2.631  0.4249  0.3482 -0.1831
   96MOL   C25727047   0.051   3.820   2.723 -0.0850  0.0982  0.2674
   96MOL   C25827048   0.185   3.766   2.694  0.1024  0.4528 -0.5116
   96MOL   C25927049   0.311   3.791   2.742 -0.1866 -0.4444 -0.1010
   96MOL   C26027050   0.018   3.878   2.845 -0.5049  0.7207 -0.6017
   96MOL   C26127051   8.036   3.935   2.862 -0.2328 -0.3425 -0.7899
   96MOL   H26227052   7.889   3.868   2.571  1.5851  0.8022 -1.3236
   96MOL   H26327053   8.117   3.753   2.541 -2.5129 -0.7661 -0.4680
   96MOL   H26427054   0.188   3.700   2.608  2.5638  2.2736 -1.8723
   96MOL   H26527055   0.384   3.732   2.689 -0.3284  1.3747 -2.4319
   96MOL   H26627056   0.087   3.895   2.926 -1.0451 -0.2757  0.0769
   96MOL   H26727057   8.009   3.994   2.949 -0.2242  0.2095 -1.1611
   96MOL   C26827058   0.359   3.891   2.839 -0.1504  0.0254  0.0822
   96MOL   C26927059   0.327   4.025   2.818  0.4784 -0.3683 -0.3097
   96MOL   C27027060   0.375   4.123   2.911 -0.2524  0.1116  0.3643
   96MOL   C27127061   0.453   4.086   3.021  0.1286 -0.2054  0.0189
   96MOL   C27227062   0.507   4.194   3.108 -0.9047 -0.1381  0.4663
   96MOL   C27327063   0.612   4.189   3.193  0.0814  0.2794 -0.1038
   96MOL   C27427064   0.493   3.953   3.034 -0.2466  0.2635  0.1045
   96MOL   C27527065   0.439   3.856   2.946 -0.9879 -0.1836 -0.4047
   96MOL   H27627066   0.276   4.063   2.730  0.0103  0.7469  0.4321
   96MOL   H27727067   0.357   4.228   2.896 -0.0888  0.3885  2.0210
   96MOL   H27827068   0.443   4.281   3.107 -0.4737  0.1785 -0.4142
   96MOL   H27927069   0.673   4.101   3.206 -0.1635  0.0970 -0.1765
   96MOL   H28027070   0.564   3.921   3.108 -0.0767  0.9573  0.2479
   96MOL   H28127071   0.472   3.753   2.953  0.6452  0.2664 -1.1189
   96MOL   H28227072   0.640   4.281   3.242  0.4824 -0.0057  0.2071
   97MOL     C127073   6.664   6.370   7.847 -0.3382 -0.6462 -1.0256
   97MOL     C227074   6.777   6.368   7.932  0.0116 -0.3639  0.6602
   97MOL     C327075   6.782   6.283   8.044 -0.0507 -0.2538 -0.1491
   97MOL     C427076   6.667   6.207   8.085  0.5204  0.1565  0.3362
   97MOL     C527077   6.666   6.126   0.065 -0.4841 -0.8391  0.1671
   97MOL     C627078   6.778   6.111   0.148  0.5962 -0.2449  0.1574
   97MOL     C727079   6.552   6.216   8.006 -0.4979 -0.0956 -0.2921
   97MOL     C827080   6.549   6.291   7.888  0.3632 -0.2365  0.7060
   97MOL     H927081   6.864   6.430   7.913 -0.7761  0.9584  1.2583
   97MOL    H1027082   6.876   6.285   8.097  0.2873  1.7078 -0.7830
   97MOL    H1127083   6.569   6.083   0.085  0.0454 -1.6594  1.0082
   97MOL    H1227084   6.874   6.156   0.129  0.4250 -0.5690 -1.5228
   97MOL    H1327085   6.462   6.166   8.040 -0.5809  0.8658  0.9515
   97MOL    H1427086   6.457   6.301   7.832 -0.6132  1.1274  2.4813
   97MOL    H1527087   6.661   6.440   7.764  0.9347  0.3074 -0.2890
   97MOL    C1627088   6.778   6.034   0.274 -0.3880  0.6711 -0.1600
   97MOL    C1727089   6.903   6.000   0.342 -0.4709  0.5739  0.3809
   97MOL    C1827090   6.902   5.917   0.458  0.2966 -0.5130 -0.1134
   97MOL    C1927091   6.780   5.868   0.515 -0.3061 -0.2970  0.8907
   97MOL    C2027092   6.776   5.784   0.632  0.0622 -0.1614 -0.3433
   97MOL    C2127093   6.876   5.737   0.707 -0.6020 -0.1628 -0.3789
   97MOL    C2227094   6.663   5.915   0.455  0.3467  0.3838 -0.1045
   97MOL    C2327095   6.659   5.996   0.338  0.0152 -0.1212 -0.3745
   97MOL    H2427096   7.001   6.027   0.304 -0.4549 -0.4790 -0.3548
   97MOL    H2527097   6.995   5.896   0.508  1.0122 -1.2409 -1.7057
   97MOL    H2627098   6.670   5.768   0.649  0.0494  1.0296  0.6989
   97MOL    H2727099   6.981   5.743   0.680 -0.8336  1.4526 -0.9391
   97MOL    H2827100   6.573   5.898   0.512 -0.4903  1.4285 -1.0781
   97MOL    H2927101   6.567   6.036   0.298  0.8592  1.2607 -0.9567
   97MOL    C3027102   6.851   5.669   0.840 -1.1419  0.3205  0.2871
   97MOL    C3127103   6.955   5.691   0.937  0.2744  0.2573 -0.0880
   97MOL    C3227104   6.936   5.657   1.070 -0.1442 -0.1070  0.6779
   97MOL    C3327105   6.818   5.582   1.106 -0.7707 -0.5964 -0.2563
   97MOL    C3427106   6.788   5.567   1.254  0.1930 -0.4006  0.8183
   97MOL    C3527107   6.845   5.634   1.356 -0.0974  0.3269  0.0165
   97MOL    C3627108   6.717   5.554   1.010  0.0910 -0.0342 -0.3125
   97MOL    C3727109   6.738   5.597   0.879 -0.7624  0.6679  0.4451
   97MOL    H3827110   7.046   5.740   0.905 -1.1100  1.2803 -2.6057
   97MOL    H3927111   7.019   5.673   1.137 -0.5494  0.8119  0.9740
   97MOL    H4027112   6.706   5.499   1.272 -1.0117 -0.2188 -3.3382
   97MOL    H4127113   6.917   5.711   1.330  0.0742 -0.0398 -0.6097
   97MOL    H4227114   6.629   5.499   1.039  1.2311 -3.0727 -2.3831
   97MOL    H4327115   6.656   5.573   0.813  0.7693 -1.0284 -0.8987
   97MOL    C4427116   6.812   5.617   1.497 -0.7004 -0.4167  0.0618
   97MOL    C4527117   6.848   5.720   1.588 -0.1332  0.2998 -0.1518
   97MOL    C4627118   6.796   5.729   1.716 -0.3745 -0.3218  0.0801
   97MOL    C4727119   6.702   5.632   1.758  0.2603  1.1005  0.3106
   97MOL    C4827120   6.627   5.653   1.882 -0.3151 -0.0611 -1.0640
   97MOL    C4927121   6.645   5.750   1.970  0.3024  0.6086  1.3958
   97MOL    C5027122   6.683   5.517   1.676 -0.3418 -0.7961 -0.1205
   97MOL    C5127123   6.736   5.511   1.546 -0.7215 -0.2141 -0.1869
   97MOL    H5227124   6.908   5.797   1.543 -0.2743 -0.4441 -1.6428
   97MOL    H5327125   6.824   5.821   1.766  0.5401 -1.4577  1.7110
   97MOL    H5427126   6.541   5.592   1.905 -1.0948  1.2814 -0.3492
   97MOL    H5527127   6.729   5.817   1.963  0.2912  0.4068 -1.0755
   97MOL    H5627128   6.621   5.437   1.714 -1.8554  1.4078  2.1822
   97MOL    H5727129   6.716   5.423   1.487 -0.2482 -1.5396  1.6152
   97MOL    C5827130   6.551   5.786   2.084  0.4824  0.4699  0.3678
   97MOL    C5927131   6.535   5.918   2.120  0.2614 -0.4640 -0.5178
   97MOL    C6027132   6.429   5.964   2.198 -0.6405  0.6979 -0.8423
   97MOL    C6127133   6.326   5.873   2.233  0.3074  0.2025 -0.7724
   97MOL    C6227134   6.202   5.921   2.300  0.2302  0.1869  0.1347
   97MOL    C6327135   6.190   6.017   2.391  0.2572  0.4408 -0.5228
   97MOL    C6427136   6.341   5.737   2.198  0.7705 -0.1257  0.1231
   97MOL    C6527137   6.450   5.696   2.123 -0.0786  0.3390 -0.1427
   97MOL    H6627138   6.603   5.993   2.083  1.8030 -0.7133  1.7217
   97MOL    H6727139   6.419   6.067   2.227  0.7130  0.4742  0.4590
   97MOL    H6827140   6.118   5.881   2.246 -0.7312 -1.6220  2.9146
   97MOL    H6927141   6.278   6.062   2.434  1.3665 -2.5515  0.5039
   97MOL    H7027142   6.264   5.668   2.230  1.0430  0.0898  1.2586
   97MOL    H7127143   6.447   5.591   2.096  0.9986 -0.3609  2.3727
   97MOL    C7227144   6.061   6.069   2.424 -0.3882  0.1488 -0.3909
   97MOL    C7327145   6.050   6.193   2.490 -0.4920 -0.4108  0.2554
   97MOL    C7427146   5.922   6.252   2.519 -0.4306 -0.5601 -0.3395
   97MOL    C7527147   5.802   6.187   2.477 -0.1243 -0.3603  0.6438
   97MOL    C7627148   5.666   6.246   2.487  0.6645  0.1558  0.4389
   97MOL    C7727149   5.561   6.204   2.413  0.0286  1.3882  0.0165
   97MOL    C7827150   5.815   6.066   2.415 -0.3590 -0.0594  0.3771
   97MOL    C7927151   5.943   6.005   2.394 -0.6553  0.3151  0.7973
   97MOL    H8027152   6.134   6.241   2.540 -0.4238 -0.4079  0.1381
   97MOL    H8127153   5.917   6.348   2.568 -0.5346 -2.1504  2.9723
   97MOL    H8227154   5.653   6.322   2.563 -0.7113  0.4696 -0.0944
   97MOL    H8327155   5.551   6.119   2.348 -1.3782  0.9992  0.7170
   97MOL    H8427156   5.736   6.000   2.383 -2.4372  2.5020  0.0445
   97MOL    H8527157   5.942   5.909   2.345 -1.2864  1.0852 -0.7484
   97MOL    C8627158   5.428   6.267   2.429 -0.5569 -0.4925 -0.2353
   97MOL    C8727159   5.396   6.349   2.536 -0.3846 -0.6961 -0.3345
   97MOL    C8827160   5.274   6.415   2.551  0.5997 -0.5285 -0.5584
   97MOL    C8927161   5.175   6.385   2.451  0.1661 -0.7487 -0.4178
   97MOL    C9027162   5.053   6.460   2.466  0.2095 -0.0725 -0.4009
   97MOL    C9127163   4.938   6.442   2.396 -0.4599  0.4422  0.3746
   97MOL    C9227164   5.192   6.285   2.354 -0.1536 -0.2988  0.5829
   97MOL    C9327165   5.320   6.228   2.343 -0.4686 -0.2818  0.0239
   97MOL    H9427166   5.473   6.389   2.600 -1.6522  0.7931  0.2963
   97MOL    H9527167   5.252   6.493   2.623 -0.7419  0.0130 -1.5270
   97MOL    H9627168   5.053   6.539   2.540  1.3952 -0.0373 -0.4436
   97MOL    H9727169   4.939   6.369   2.317  2.5354  0.4894  0.3121
   97MOL    H9827170   5.116   6.267   2.280 -0.5101 -1.3824  1.1977
   97MOL    H9927171   5.333   6.153   2.267 -0.6538 -1.1294  0.8087
   97MOL   C10027172   4.811   6.509   2.421 -0.0486 -0.6659  0.0420
   97MOL   C10127173   4.712   6.495   2.325  0.5660  0.7579 -0.3431
   97MOL   C10227174   4.593   6.567   2.338 -0.2879 -0.0629 -0.1604
   97MOL   C10327175   4.572   6.660   2.439  0.5191 -0.2018  0.5278
   97MOL   C10427176   4.457   6.754   2.445  0.0563 -0.4194 -0.7592
   97MOL   C10527177   4.393   6.791   2.335 -0.5186  0.4511  0.0093
   97MOL   C10627178   4.664   6.673   2.540 -0.3086  0.4202 -0.5488
   97MOL   C10727179   4.788   6.597   2.536  0.3251  0.1307 -0.1515
   97MOL   H10827180   4.721   6.425   2.244 -0.4689 -0.3824  0.5065
   97MOL   H10927181   4.516   6.552   2.264 -0.4008  0.7262 -0.2110
   97MOL   H11027182   4.434   6.787   2.545 -1.5140  0.7380 -1.4813
   97MOL   H11127183   4.429   6.758   2.239 -1.7117  0.3576 -0.4156
   97MOL   H11227184   4.642   6.743   2.620 -2.8143 -0.7390 -0.1814
   97MOL   H11327185   4.855   6.604   2.620 -0.8850 -1.1664  0.9530
   97MOL   C11427186   4.276   6.879   2.328 -0.6348  0.4909 -0.2051
   97MOL   C11527187   4.231   6.934   2.205 -0.1242 -0.1522 -0.3712
   97MOL   C11627188   4.104   6.995   2.197  0.2297 -0.6456 -0.0613
   97MOL   C11727189   4.027   7.011   2.312  0.3264  0.5522  0.0890
   97MOL   C11827190   3.899   7.089   2.311  0.2312 -0.5728 -0.2170
   97MOL   C11927191   3.853   7.166   2.209 -0.1324 -0.2205 -0.1270
   97MOL   C12027192   4.063   6.947   2.433  0.2762 -0.2875 -0.1068
   97MOL   C12127193   4.193   6.883   2.441 -0.1130  0.4671  0.8581
   97MOL   H12227194   4.284   6.915   2.113 -0.7832  2.1098 -1.2446
   97MOL   H12327195   4.083   7.046   2.104  2.2368 -0.8665 -0.6427
   97MOL   H12427196   3.838   7.075   2.398  0.9484  0.0449  0.3931
   97MOL   H12527197   3.924   7.189   2.132  1.5015 -0.2099  1.3575
   97MOL   H12627198   3.999   6.943   2.520 -0.6413 -0.5135 -0.7886
   97MOL   H12727199   4.212   6.836   2.537  2.0003 -0.0882  0.2062
   97MOL   C12827200   3.728   7.225   2.179  0.5163 -0.2397 -0.0477
   97MOL   C12927201   3.699   7.276   2.050  0.1637  0.1317 -0.5635
   97MOL   C13027202   3.571   7.321   2.017  0.0393 -0.4499 -0.4477
   97MOL   C13127203   3.467   7.320   2.112 -0.4685 -0.0304 -0.6513
   97MOL   C13227204   3.335   7.366   2.064 -0.0832 -0.0231  0.6616
   97MOL   C13327205   3.242   7.434   2.137  0.3848 -0.2209  0.0349
   97MOL   C13427206   3.496   7.261   2.238 -0.1316 -0.2478  0.3417
   97MOL   C13527207   3.624   7.218   2.271  0.7033 -0.2631 -0.4287
   97MOL   H13627208   3.771   7.263   1.970  2.9572 -3.1709  2.2880
   97MOL   H13727209   3.557   7.364   1.918  2.2051 -2.5729 -1.7276
   97MOL   H13827210   3.298   7.343   1.965 -1.8733  1.1574  1.0309
   97MOL   H13927211   3.270   7.466   2.237  0.9222 -0.2345 -0.1059
   97MOL   H14027212   3.410   7.259   2.304 -1.2701 -0.6051 -1.1348
   97MOL   H14127213   3.637   7.165   2.364  0.4942 -0.1888 -0.3568
   97MOL   C14227214   3.107   7.468   2.089 -0.3074 -0.5081  0.6927
   97MOL   C14327215   3.071   7.461   1.957 -0.2268  0.1239 -0.1379
   97MOL   C14427216   2.938   7.495   1.918 -0.4224 -0.1851 -0.1646
   97MOL   C14527217   2.843   7.543   2.018  0.2702  0.0647 -0.1663
   97MOL   C14627218   2.712   7.591   1.977 -0.5381 -0.0424 -0.7193
   97MOL   C14727219   2.643   7.569   1.865  0.1236  0.8365  0.0281
   97MOL   C14827220   2.880   7.546   2.157 -0.0545  0.3110 -0.0141
   97MOL   C14927221   3.014   7.512   2.186  0.1691 -0.1362  0.7881
   97MOL   H15027222   3.132   7.426   1.875 -1.1761  0.6362 -1.0802
   97MOL   H15127223   2.906   7.491   1.815  2.4882 -0.3980 -1.0896
   97MOL   H15227224   2.668   7.666   2.042  0.0292 -1.2554  1.1078
   97MOL   H15327225   2.683   7.501   1.791 -0.4212  0.9191 -0.3509
   97MOL   H15427226   2.807   7.581   2.228  0.3847 -2.0930  1.7023
   97MOL   H15527227   3.046   7.523   2.289 -1.5243 -0.5515  1.3785
   97MOL   C15627228   2.514   7.633   1.826 -0.3292 -0.2875 -0.1156
   97MOL   C15727229   2.444   7.578   1.713 -0.1500 -0.6306  0.5182
   97MOL   C15827230   2.315   7.634   1.680 -0.0051 -0.2260 -0.5107
   97MOL   C15927231   2.242   7.704   1.772 -0.5328  0.3253  0.0072
   97MOL   C16027232   2.103   7.740   1.740 -0.2916 -0.6437 -0.2371
   97MOL   C16127233   2.013   7.774   1.830  0.4574 -0.4354  0.5141
   97MOL   C16227234   2.312   7.747   1.889  0.2126 -0.3244  0.1461
   97MOL   C16327235   2.448   7.719   1.913  0.3095 -0.3471 -0.0551
   97MOL   H16427236   2.498   7.510   1.649  3.0322  1.5176  0.7385
   97MOL   H16527237   2.269   7.618   1.584  0.3071 -1.9071 -0.4012
   97MOL   H16627238   2.082   7.744   1.634 -1.1296 -0.9188 -0.0914
   97MOL   H16727239   2.037   7.767   1.935  0.2702 -0.6677  0.5418
   97MOL   H16827240   2.254   7.811   1.953 -0.9899 -0.8282 -0.4198
   97MOL   H16927241   2.491   7.760   2.003 -0.3017 -0.3135  0.2237
   97MOL   C17027242   1.872   7.815   1.796 -0.0240  0.1999  0.7037
   97MOL   C17127243   1.786   7.851   1.905 -0.8202  0.4572 -0.5244
   97MOL   C17227244   1.656   7.891   1.885  0.2078  0.0782 -0.1065
   97MOL   C17327245   1.598   7.891   1.752 -0.0685 -0.1681  0.0313
   97MOL   C17427246   1.453   7.926   1.736  0.1984  1.1897  0.3094
   97MOL   C17527247   1.358   7.892   1.824  0.4315 -0.3688 -0.5511
   97MOL   C17627248   1.677   7.849   1.644 -0.3220  0.3857  0.1484
   97MOL   C17727249   1.813   7.812   1.667  0.5210 -0.1497  0.0150
   97MOL   H17827250   1.829   7.850   2.005  1.1837  5.9241 -1.1633
   97MOL   H17927251   1.589   7.914   1.967 -1.1018  0.8098 -1.3647
   97MOL   H18027252   1.431   7.982   1.646  0.0838  0.7220  0.0486
   97MOL   H18127253   1.372   7.840   1.918  1.7326 -0.2348 -0.6586
   97MOL   H18227254   1.632   7.844   1.545  1.2030 -1.5460 -0.4728
   97MOL   H18327255   1.870   7.775   1.583  0.9934  1.3339 -0.3381
   97MOL   C18427256   1.218   7.937   1.812 -0.6219 -0.2056  0.2849
   97MOL   C18527257   1.123   7.886   1.900  0.3197  0.0530 -0.2076
   97MOL   C18627258   0.987   7.931   1.892  0.0554 -0.4501 -0.3521
   97MOL   C18727259   0.943   8.022   1.793 -0.0980  0.1139  0.5319
   97MOL   C18827260   0.800   8.050   1.763  0.1055 -0.0248 -0.4752
   97MOL   C18927261   0.691   7.990   1.820  0.1241  0.0707 -0.5823
   97MOL   C19027262   1.038   8.076   1.705 -0.2688  0.9854  0.1783
   97MOL   C19127263   1.173   8.034   1.719  0.9878 -0.4574  0.2788
   97MOL   H19227264   1.155   7.819   1.978  0.0539  1.3530  1.0311
   97MOL   H19327265   0.915   7.905   1.968 -0.5941  0.2787 -0.7171
   97MOL   H19427266   0.783   8.131   1.694 -0.7667  1.1880  1.1359
   97MOL   H19527267   0.709   7.913   1.894  1.1982  1.6609  0.8603
   97MOL   H19627268   1.012   0.007   1.632  2.0124 -0.2502 -1.9708
   97MOL   H19727269   1.241   8.079   1.649  0.3122  2.3977  1.3490
   97MOL   C19827270   0.548   8.021   1.784  0.2697  0.5021  0.6555
   97MOL   C19927271   0.465   7.908   1.777  0.5979  0.2452  1.0319
   97MOL   C20027272   0.334   7.929   1.734 -0.3548  0.1400 -0.0873
   97MOL   C20127273   0.284   8.065   1.714 -0.6491  0.7034 -0.2761
   97MOL   C20227274   0.144   8.098   1.671 -0.8342 -1.0800  0.5531
   97MOL   C20327275   0.057   8.015   1.613  0.0788 -0.3991 -0.0399
   97MOL   C20427276   0.374   0.026   1.720 -0.3312 -0.3117  0.1407
   97MOL   C20527277   0.507   0.005   1.747  0.3254 -0.2912  0.2379
   97MOL   H20627278   0.504   7.809   1.789 -1.1331 -0.4833  0.7586
   97MOL   H20727279   0.269   7.845   1.714 -0.4844  0.5409 -1.4392
   97MOL   H20827280   0.119   0.058   1.685 -1.2917 -1.4070  2.2110
   97MOL   H20927281   0.086   7.912   1.598  0.7491 -0.0676 -1.0721
   97MOL   H21027282   0.350   0.125   1.683  1.2249  0.6036  1.5279
   97MOL   H21127283   0.578   0.086   1.759 -0.9053  1.4391 -3.4167
   97MOL   C21227284   8.067   8.046   1.573  0.5713  0.1384  0.3818
   97MOL   C21327285   8.012   0.028   1.594  0.0499 -0.1240 -0.0848
   97MOL   C21427286   7.890   0.062   1.531 -0.4745  0.3332 -0.1599
   97MOL   C21527287   7.819   8.113   1.449  0.4909 -0.1965  0.7543
   97MOL   C21627288   7.694   0.014   1.398  0.2259 -0.1033  0.5805
   97MOL   C21727289   7.613   8.087   1.313 -0.0186 -0.9519  0.2054
   97MOL   C21827290   7.866   7.980   1.444 -0.3051 -0.1744  0.6303
   97MOL   C21927291   7.989   7.948   1.503 -0.5373  0.1074 -0.1160
   97MOL   H22027292   8.064   0.108   1.644  0.0473 -0.5124  0.5514
   97MOL   H22127293   7.858   0.164   1.547 -0.8211  0.0100  1.2439
   97MOL   H22227294   7.663   0.114   1.424  1.0364  0.1126  0.7115
   97MOL   H22327295   7.644   7.987   1.286 -1.4261 -0.6320 -2.7975
   97MOL   H22427296   7.803   7.903   1.403  1.6502 -1.2821 -0.3570
   97MOL   H22527297   8.016   7.845   1.514 -2.1599 -0.0258  3.1074
   97MOL   C22627298   7.482   8.127   1.253 -0.5183 -0.1923  0.1523
   97MOL   C22727299   7.417   0.105   1.290 -0.1059  0.0268  0.1685
   97MOL   C22827300   7.293   0.144   1.227 -1.0066 -0.2069  0.0798
   97MOL   C22927301   7.228   0.069   1.125 -0.5298 -0.0247 -0.6554
   97MOL   C23027302   7.092   0.112   1.066 -0.0543  0.6265  0.2570
   97MOL   C23127303   7.025   0.049   0.970 -1.1570  0.0924  0.1027
   97MOL   C23227304   7.289   8.091   1.091 -0.0226 -0.7305  0.7892
   97MOL   C23327305   7.411   8.050   1.150 -0.3126 -0.8009  0.0383
   97MOL   H23427306   7.471   0.159   1.366 -1.8508  2.0390  0.0349
   97MOL   H23527307   7.247   0.232   1.269  2.5051  1.1999  1.1373
   97MOL   H23627308   7.041   0.202   1.094  1.5047  0.8400  2.5755
   97MOL   H23727309   7.069   8.103   0.931 -0.4477  0.4268  0.1256
   97MOL   H23827310   7.247   8.019   1.022  2.1716 -1.3260  0.0212
   97MOL   H23927311   7.452   7.954   1.123  0.8054 -0.4204  0.3601
   97MOL   C24027312   6.895   0.098   0.909 -0.1067 -0.0110  0.4069
   97MOL   C24127313   6.832   0.024   0.803  0.1290  0.4096 -0.4636
   97MOL   C24227314   6.713   0.068   0.746 -0.7438 -0.3770  0.1471
   97MOL   C24327315   6.653   0.190   0.787 -0.1033 -0.1713 -0.3698
   97MOL   C24427316   6.519   0.231   0.743 -0.2730 -0.4550 -0.3852
   97MOL   C24527317   6.427   0.151   0.694 -0.2789  0.1611 -0.1703
   97MOL   C24627318   6.707   0.263   0.891  0.4422  0.7491 -0.3813
   97MOL   C24727319   6.826   0.217   0.952 -0.0633 -0.2900  0.1082
   97MOL   H24827320   6.879   8.079   0.766 -0.0595 -0.7962  2.0534
   97MOL   H24927321   6.657   0.005   0.678  2.4642 -0.7500 -2.2731
   97MOL   H25027322   6.497   0.337   0.743  2.3597  0.1742  2.4240
   97MOL   H25127323   6.457   0.050   0.673 -1.8289 -0.1405 -0.9510
   97MOL   H25227324   6.654   0.346   0.937  0.5185  0.7487 -0.2914
   97MOL   H25327325   6.857   0.265   1.044  0.6379 -0.7404  0.1142
   97MOL   C25427326   6.291   0.182   0.637  0.1035 -0.1255  0.8126
   97MOL   C25527327   6.230   0.311   0.653 -0.0885 -0.3820  0.5196
   97MOL   C25627328   6.104   0.336   0.592  0.7282  0.1704 -0.7638
   97MOL   C25727329   6.045   0.232   0.514 -0.2203  0.2839 -0.2218
   97MOL   C25827330   5.922   0.268   0.442  0.1437 -0.1319 -0.3380
   97MOL   C25927331   5.896   0.232   0.315 -0.2181 -0.4634  0.0946
   97MOL   C26027332   6.100   0.095   0.510  0.4536 -1.2578  0.0369
   97MOL   C26127333   6.227   0.076   0.571  0.1447  0.7633 -1.0415
   97MOL   H26227334   6.286   0.392   0.696 -0.2198  0.1751 -0.3462
   97MOL   H26327335   6.048   0.427   0.602 -0.1448 -0.5007  0.7762
   97MOL   H26427336   5.863   0.337   0.500 -0.6348 -0.5341 -0.6344
   97MOL   H26527337   5.798   0.263   0.280  0.4764  1.1235 -0.4774
   97MOL   H26627338   6.052   0.018   0.452 -0.7353  0.3666 -1.1579
   97MOL   H26727339   6.271   8.124   0.551 -1.5189 -0.2530  0.0177
   97MOL   C26827340   5.984   0.155   0.223 -0.3669 -0.0548 -0.5499
   97MOL   C26927341   6.083   0.223   0.147  0.3635 -0.2778 -0.3804
   97MOL   C27027342   6.153   0.158   0.046 -0.0373  0.1861  0.3072
   97MOL   C27127343   6.135   0.017   0.029  0.3730 -0.3665  0.6945
   97MOL   C27227344   6.195   8.089   8.061 -0.1336 -0.6728  0.1474
   97MOL   C27327345   6.298   8.141   7.985 -0.7770  0.0032  0.9604
   97MOL   C27427346   6.043   8.097   0.105 -0.0781 -0.3499 -1.5876
   97MOL   C27527347   5.964   0.019   0.202 -0.1644  0.0202 -0.5014
   97MOL   H27627348   6.104   0.327   0.169 -0.5212 -0.6054  2.1095
   97MOL   H27727349   6.231   0.205   8.133 -0.1596 -1.3172 -1.1546
   97MOL   H27827350   6.151   7.995   8.032  0.3155 -1.1763  1.0812
   97MOL   H27927351   6.332   0.097   8.007 -2.3649  0.8604 -0.3562
   97MOL   H28027352   6.018   7.996   0.076  0.3662 -1.1538  0.6775
   97MOL   H28127353   5.880   8.113   0.247 -0.7802 -0.8247 -2.5227
   97MOL   H28227354   6.348   8.089   7.904 -0.4558  1.9685 -0.1432
   98MOL     C127355   2.129   1.603   5.673  0.0948  0.1813  0.1027
   98MOL     C227356   2.025   1.586   5.771 -0.3322  0.0765  0.4082
   98MOL     C327357   1.925   1.492   5.749 -0.5851  0.7587 -0.0113
   98MOL     C427358   1.926   1.423   5.623 -0.3338 -0.4127  0.1686
   98MOL     C527359   1.818   1.332   5.579  0.0992  0.1273  0.3654
   98MOL     C627360   1.729   1.282   5.660 -0.4007 -0.5107  0.5529
   98MOL     C727361   2.031   1.437   5.531 -1.2182  0.0716 -0.0637
   98MOL     C827362   2.134   1.529   5.553  0.2633  0.2441 -0.2218
   98MOL     H927363   2.026   1.638   5.865 -0.9801 -2.0517  1.6169
   98MOL    H1027364   1.859   1.486   5.833 -0.3940  0.8286  0.1460
   98MOL    H1127365   1.815   1.309   5.474 -0.4935 -1.6776  0.7647
   98MOL    H1227366   1.727   1.305   5.765  1.5013  0.6371  0.3587
   98MOL    H1327367   2.020   1.393   5.432 -1.2389  1.4935 -0.7043
   98MOL    H1427368   2.218   1.534   5.487 -0.0325 -2.1258 -0.8311
   98MOL    H1527369   2.214   1.663   5.702 -2.1368  2.7512  1.5581
   98MOL    C1627370   1.622   1.186   5.608  0.0577  0.0587 -0.4141
   98MOL    C1727371   1.604   1.149   5.476  0.3050  0.1655  0.1057
   98MOL    C1827372   1.500   1.068   5.428  0.3262  0.3645 -0.2120
   98MOL    C1927373   1.418   0.998   5.520 -0.0425  0.1934  0.5302
   98MOL    C2027374   1.324   0.887   5.475  0.1769 -0.3197  0.0643
   98MOL    C2127375   1.294   0.836   5.355  0.0401  0.1486 -0.8757
   98MOL    C2227376   1.429   1.035   5.655 -0.0426  0.1802  0.0606
   98MOL    C2327377   1.529   1.128   5.699 -0.1607  0.4584  0.2894
   98MOL    H2427378   1.674   1.181   5.400 -2.6264  1.8149 -1.9901
   98MOL    H2527379   1.499   1.043   5.323 -1.6535 -1.1823  0.1310
   98MOL    H2627380   1.280   0.843   5.564 -0.2973 -1.1844 -0.5979
   98MOL    H2727381   1.351   0.880   5.274  1.0855 -1.9364 -1.3004
   98MOL    H2827382   1.358   0.996   5.726  0.0756 -0.2255 -0.0406
   98MOL    H2927383   1.540   1.150   5.804  2.5381 -3.7238  1.0455
   98MOL    C3027384   1.195   0.729   5.320 -0.1528 -0.2399  0.4608
   98MOL    C3127385   1.140   0.733   5.189 -0.1065 -0.5022  0.2509
   98MOL    C3227386   1.069   0.625   5.137  0.5412  0.3207  0.5395
   98MOL    C3327387   1.034   0.521   5.226 -0.4446 -0.4063 -1.0331
   98MOL    C3427388   0.978   0.399   5.165  0.4915 -0.4506  0.0728
   98MOL    C3527389   0.975   0.271   5.214 -0.2515 -0.3106 -0.2573
   98MOL    C3627390   1.076   0.525   5.359 -0.0187  0.1870 -0.2104
   98MOL    C3727391   1.156   0.631   5.405  0.3168 -0.0825 -0.0240
   98MOL    H3827392   1.160   0.811   5.116 -1.2911  0.2429  0.7107
   98MOL    H3927393   1.048   0.621   5.031  0.8955 -0.4445  0.4952
   98MOL    H4027394   0.931   0.423   5.071 -0.4649  0.3248  0.7449
   98MOL    H4127395   1.014   0.246   5.311  1.2218 -0.4173 -0.8646
   98MOL    H4227396   1.044   0.448   5.428 -1.3252  0.6741 -0.2678
   98MOL    H4327397   1.188   0.624   5.508 -1.0590 -0.2640  0.4099
   98MOL    C4427398   0.911   0.156   5.145  0.5395 -0.0651  0.6255
   98MOL    C4527399   0.934   0.028   5.194  0.2209  0.6584  0.2341
   98MOL    C4627400   0.873   8.055   5.140 -0.5264 -0.1366  0.5928
   98MOL    C4727401   0.790   8.066   5.031 -0.2036 -0.8151 -0.4886
   98MOL    C4827402   0.736   7.952   4.964 -0.2182  0.7280 -0.1590
   98MOL    C4927403   0.770   7.822   4.974 -0.3921  0.6485  0.2650
   98MOL    C5027404   0.766   0.047   4.975 -0.3035  0.1461 -0.0432
   98MOL    C5127405   0.828   0.165   5.023 -0.0364  0.0282 -0.3304
   98MOL    H5227406   0.998   0.026   5.281 -0.0844 -0.5226  0.4351
   98MOL    H5327407   0.897   7.960   5.186  0.5566 -0.1844 -0.0247
   98MOL    H5427408   0.651   7.982   4.903 -0.2928  0.9638  0.0613
   98MOL    H5527409   0.860   7.802   5.030 -0.2058 -0.0147 -0.2616
   98MOL    H5627410   0.709   0.052   4.884  0.7723 -1.2602 -0.8043
   98MOL    H5727411   0.807   0.263   4.982  3.4154  0.4878 -1.1763
   98MOL    C5827412   0.697   7.718   4.907  0.4133  0.8738  0.6585
   98MOL    C5927413   0.562   7.726   4.865 -0.0819  0.6584  0.1130
   98MOL    C6027414   0.495   7.610   4.809  0.2744 -0.5674 -0.3488
   98MOL    C6127415   0.569   7.492   4.802  0.1684 -0.1437  0.0574
   98MOL    C6227416   0.507   7.374   4.738 -0.0094  0.0434 -0.3802
   98MOL    C6327417   0.402   7.373   4.654  1.0781  0.5168 -0.0506
   98MOL    C6427418   0.708   7.485   4.832  0.5020 -0.1783 -0.6097
   98MOL    C6527419   0.765   7.596   4.883 -0.1096 -0.7007 -0.0201
   98MOL    H6627420   0.508   7.820   4.864 -1.8895 -0.3129 -3.5157
   98MOL    H6727421   0.392   7.610   4.776 -0.5110 -1.7749  2.0117
   98MOL    H6827422   0.562   7.284   4.763  0.5662  0.9734  1.8424
   98MOL    H6927423   0.345   7.464   4.641 -0.9328 -0.8560 -1.0931
   98MOL    H7027424   0.765   7.393   4.833 -0.1633 -0.5912 -0.0925
   98MOL    H7127425   0.870   7.592   4.906 -0.0410 -0.6890 -0.3303
   98MOL    C7227426   0.356   7.256   4.567  0.5429  0.5345  0.6063
   98MOL    C7327427   0.218   7.259   4.520  0.3603  0.1796  0.0765
   98MOL    C7427428   0.166   7.154   4.441 -0.4786  0.3098  0.3049
   98MOL    C7527429   0.251   7.045   4.405 -0.1589  0.3020  0.3328
   98MOL    C7627430   0.209   6.941   4.304 -0.5275  0.9828 -0.5891
   98MOL    C7727431   0.082   6.914   4.258  0.5661 -0.5428 -0.9781
   98MOL    C7827432   0.382   7.045   4.459 -0.1028  0.3711  0.0977
   98MOL    C7927433   0.429   7.149   4.540  0.8641 -0.0012 -0.1273
   98MOL    H8027434   0.160   7.346   4.548  3.0985  2.4676 -1.0392
   98MOL    H8127435   0.063   7.168   4.410  0.3796  3.1005 -1.5812
   98MOL    H8227436   0.288   6.876   4.270 -1.0844 -1.7576  3.0544
   98MOL    H8327437   0.002   6.972   4.302  1.5336  0.5679 -0.6696
   98MOL    H8427438   0.439   6.956   4.438  1.2258  1.4559 -1.0031
   98MOL    H8527439   0.528   7.135   4.583  0.6545 -0.0671  0.3371
   98MOL    C8627440   0.042   6.812   4.161  0.1950 -0.2086  0.7840
   98MOL    C8727441   8.072   6.726   4.187 -1.0437  0.0422  0.4495
   98MOL    C8827442   8.055   6.613   4.104  0.0902 -0.3648  0.3822
   98MOL    C8927443   8.144   6.586   3.999 -0.4828 -0.2180 -0.2296
   98MOL    C9027444   8.111   6.481   3.904  0.4498 -0.4711 -0.1287
   98MOL    C9127445   7.997   6.420   3.880  0.5225  0.0540 -0.0492
   98MOL    C9227446   0.099   6.680   3.964 -0.5159 -0.5885 -0.3261
   98MOL    C9327447   0.124   6.790   4.048 -0.0136 -0.3298 -0.3433
   98MOL    H9427448   8.008   6.750   4.270  0.6179  1.1865  1.4213
   98MOL    H9527449   7.965   6.559   4.131 -0.1337 -0.1519  0.0608
   98MOL    H9627450   0.056   6.457   3.849  1.1976 -1.7318  1.5848
   98MOL    H9727451   7.913   6.441   3.944 -0.7468 -0.9236 -1.3604
   98MOL    H9827452   0.159   6.666   3.875  0.8529  0.8286  0.3661
   98MOL    H9927453   0.207   6.856   4.028  0.2802 -0.7988 -0.6612
   98MOL   C10027454   7.978   6.315   3.776  0.2583  0.4628 -1.0579
   98MOL   C10127455   7.854   6.257   3.759 -0.0280  0.1637  0.3508
   98MOL   C10227456   7.834   6.167   3.652  0.3427  0.7835  0.3218
   98MOL   C10327457   7.940   6.109   3.575  0.7469  0.5065  0.1341
   98MOL   C10427458   7.926   6.019   3.470  0.7741 -0.3643  0.3701
   98MOL   C10527459   8.016   5.937   3.415 -1.1214  0.2684  0.5270
   98MOL   C10627460   8.069   6.156   3.613 -0.4433  0.4631 -0.0608
   98MOL   C10727461   8.085   6.257   3.706  0.0351 -0.6462 -0.5264
   98MOL   H10827462   7.776   6.285   3.827  0.3828 -0.9164  1.2939
   98MOL   H10927463   7.736   6.124   3.638  1.0979 -0.8310 -0.0982
   98MOL   H11027464   7.828   6.029   3.425  0.5627 -2.5969  0.2715
   98MOL   H11127465   8.116   5.929   3.455 -1.2751  0.3123  0.9167
   98MOL   H11227466   0.014   6.110   3.574 -1.4196 -2.0072  0.5812
   98MOL   H11327467   0.041   6.292   3.728  0.2729 -2.5340  1.5901
   98MOL   C11427468   8.003   5.859   3.289 -0.0271  0.5521 -0.8354
   98MOL   C11527469   8.120   5.787   3.246 -0.5330 -0.8240  0.2248
   98MOL   C11627470   8.108   5.717   3.125 -0.8667  0.4981  0.4408
   98MOL   C11727471   8.002   5.728   3.034  0.6138  0.6661  0.0815
   98MOL   C11827472   8.002   5.662   2.905 -1.0892 -0.6993 -0.0625
   98MOL   C11927473   8.098   5.580   2.856  1.0725  0.2764 -1.0025
   98MOL   C12027474   7.887   5.808   3.081  0.2500 -0.2627  0.0756
   98MOL   C12127475   7.887   5.863   3.211 -1.1394  0.6858 -0.3264
   98MOL   H12227476   0.065   5.787   3.306  0.3737  1.1832 -1.0913
   98MOL   H12327477   0.043   5.650   3.094 -0.5256  0.9650  0.2998
   98MOL   H12427478   7.919   5.688   2.842  0.5832  2.6360 -1.0358
   98MOL   H12527479   0.032   5.544   2.921  1.0257 -0.4607 -1.3487
   98MOL   H12627480   7.804   5.823   3.014  0.8207  2.5122 -0.0736
   98MOL   H12727481   7.809   5.932   3.240 -1.0417  0.8067 -0.3535
   98MOL   C12827482   8.101   5.519   2.719  0.7473 -0.8283  0.5231
   98MOL   C12927483   0.082   5.472   2.664 -0.0838  0.1521  0.6811
   98MOL   C13027484   0.090   5.438   2.526  0.4976  0.3590  0.6865
   98MOL   C13127485   8.119   5.428   2.449 -0.0773  0.6348  0.3352
   98MOL   C13227486   8.136   5.381   2.313 -0.0473  0.6504  0.4412
   98MOL   C13327487   8.042   5.339   2.233 -0.0861 -0.4537  1.1158
   98MOL   C13427488   7.993   5.451   2.506  0.3840 -0.0233 -0.3176
   98MOL   C13527489   7.985   5.501   2.638  0.2499 -0.3741  0.1247
   98MOL   H13627490   0.172   5.489   2.721  2.1587  0.7864 -2.8865
   98MOL   H13727491   0.188   5.415   2.484  0.8527 -0.7069  2.0670
   98MOL   H13827492   0.093   5.355   2.285 -0.2636 -0.7244  0.9085
   98MOL   H13927493   7.941   5.344   2.271  0.6986  1.3634  3.1014
   98MOL   H14027494   7.901   5.419   2.459 -1.8910  0.8104  3.3068
   98MOL   H14127495   7.887   5.527   2.677  0.2788  0.3086 -0.2647
   98MOL   C14227496   8.051   5.294   2.094  0.3296 -0.0432 -0.2552
   98MOL   C14327497   0.027   5.312   2.017  0.3399  0.3037  0.1653
   98MOL   C14427498   0.029   5.274   1.878 -0.0799 -0.5143  0.4508
   98MOL   C14527499   8.054   5.224   1.812  0.4445 -0.4540 -0.7398
   98MOL   C14627500   8.029   5.210   1.666 -0.1620 -0.2222  0.1509
   98MOL   C14727501   8.116   5.207   1.568 -0.5375  0.0685  0.0526
   98MOL   C14827502   7.951   5.184   1.896  0.6936 -0.3547 -0.0567
   98MOL   C14927503   7.949   5.219   2.030  0.4835  0.4746 -0.2900
   98MOL   H15027504   0.112   5.368   2.053  0.7861 -1.0131  1.2278
   98MOL   H15127505   0.109   5.305   1.812 -1.2290  0.5332 -0.4671
   98MOL   H15227506   7.926   5.191   1.640 -0.1054  1.6875 -1.6097
   98MOL   H15327507   0.078   5.224   1.582 -0.1713 -2.2710  0.3264
   98MOL   H15427508   7.863   5.141   1.851  0.5657  0.4478 -0.5886
   98MOL   H15527509   7.864   5.199   2.094  1.6702  0.5589  1.3530
   98MOL   C15627510   8.087   5.174   1.428  0.5949  0.4163  0.0022
   98MOL   C15727511   7.965   5.119   1.383 -0.1784  0.0755  0.1153
   98MOL   C15827512   7.943   5.084   1.244 -0.8029  0.2422 -0.1129
   98MOL   C15927513   8.045   5.106   1.144 -0.8134 -0.1914  0.6574
   98MOL   C16027514   8.018   5.075   0.998 -0.0783  0.2626 -0.3791
   98MOL   C16127515   8.105   5.075   0.896 -0.6317 -0.3788  0.0141
   98MOL   C16227516   0.026   5.150   1.196  0.1933  0.0305  0.3324
   98MOL   C16327517   0.039   5.195   1.328  0.5341  0.5607  0.0081
   98MOL   H16427518   7.884   5.094   1.449  0.4745  0.1264  0.9371
   98MOL   H16527519   7.848   5.038   1.222 -0.1463 -0.0766 -2.3627
   98MOL   H16627520   7.913   5.053   0.990 -0.7290  3.1104 -0.4439
   98MOL   H16727521   0.063   5.100   0.916 -0.8250 -2.4741  3.9806
   98MOL   H16827522   0.105   5.158   1.122 -0.5898 -0.3887 -0.5645
   98MOL   H16927523   0.133   5.247   1.339  1.3672 -0.2846 -2.6739
   98MOL   C17027524   8.065   5.054   0.752  0.6610  0.1620 -0.1166
   98MOL   C17127525   0.024   5.036   0.661 -0.2421  0.4411 -0.2988
   98MOL   C17227526   0.002   5.035   0.524 -0.5684 -0.4618 -0.0354
   98MOL   C17327527   8.014   5.043   0.481  0.2213  0.1789  0.4660
   98MOL   C17427528   7.982   5.076   0.343  0.5755  0.0697 -0.0282
   98MOL   C17527529   8.071   5.113   0.248  0.2783 -0.4537  0.4247
   98MOL   C17627530   7.904   5.052   0.572 -0.0772  0.6661 -0.4165
   98MOL   C17727531   7.929   5.057   0.709 -0.9394 -0.3420 -0.7315
   98MOL   H17827532   0.125   5.012   0.692 -0.3485  1.2600  0.6787
   98MOL   H17927533   0.090   5.015   0.466 -1.4487 -1.8492 -0.9234
   98MOL   H18027534   7.879   5.063   0.315  0.2324 -1.3701  1.8353
   98MOL   H18127535   0.033   5.115   0.270  0.8840 -0.1998 -2.3007
   98MOL   H18227536   7.804   5.060   0.533 -0.4252 -0.7707  0.1566
   98MOL   H18327537   7.837   5.060   0.765 -0.6734  1.2497 -0.3500
   98MOL   C18427538   8.034   5.152   0.108  0.2944 -0.1932  0.6944
   98MOL   C18527539   8.118   5.126   0.000 -0.0347 -0.3920  1.4624
   98MOL   C18627540   8.088   5.173   8.015  0.2040  0.8874 -0.3759
   98MOL   C18727541   7.965   5.239   7.993 -0.1216 -0.0946 -0.3021
   98MOL   C18827542   7.928   5.298   7.866  0.9364  0.6364 -0.2573
   98MOL   C18927543   7.981   5.273   7.743 -0.4894 -0.1685  0.5283
   98MOL   C19027544   7.870   5.253   8.097 -0.0943  0.2608  0.7569
   98MOL   C19127545   7.904   5.211   0.086 -0.0406  0.4174 -0.3234
   98MOL   H19227546   0.064   5.070   0.018 -0.0114 -0.8435 -0.0246
   98MOL   H19327547   0.007   5.153   7.930 -0.4019 -0.0709 -0.6036
   98MOL   H19427548   7.839   5.358   7.864  0.0219 -0.7135 -0.8673
   98MOL   H19527549   8.066   5.206   7.743 -0.6310 -0.3748  2.2903
   98MOL   H19627550   7.772   5.290   8.072  0.6540 -0.0256 -2.8335
   98MOL   H19727551   7.833   5.213   0.168  1.2790  1.7370  0.8080
   98MOL   C19827552   7.946   5.326   7.616  0.3835 -0.9428  1.0999
   98MOL   C19927553   7.868   5.443   7.600 -0.0863  0.1769 -0.1465
   98MOL   C20027554   7.850   5.493   7.470  0.5568 -0.0231  0.6837
   98MOL   C20127555   7.894   5.431   7.349  0.3790  0.3971 -0.3568
   98MOL   C20227556   7.877   5.491   7.220 -0.2879  0.0174 -0.0549
   98MOL   C20327557   7.800   5.599   7.200  0.2407 -0.2438  0.2391
   98MOL   C20427558   7.964   5.312   7.367  0.3923 -0.1796  0.3431
   98MOL   C20527559   8.001   5.272   7.495 -0.5699  0.3228 -0.0824
   98MOL   H20627560   7.833   5.501   7.684 -2.1863 -0.6914 -0.3972
   98MOL   H20727561   7.805   5.590   7.459 -0.0113 -0.1080  2.1377
   98MOL   H20827562   7.930   5.442   7.139 -0.8261  0.9410 -0.9774
   98MOL   H20927563   7.756   5.660   7.277  2.2490  1.2966  0.2127
   98MOL   H21027564   8.014   5.268   7.282 -0.7380  0.9335 -0.9229
   98MOL   H21127565   8.056   5.180   7.506 -3.1011 -1.2840 -0.5158
   98MOL   C21227566   7.752   5.655   7.073  0.2428  0.2070  0.1165
   98MOL   C21327567   7.676   5.774   7.069  0.5465  0.1767  0.7925
   98MOL   C21427568   7.622   5.815   6.945  0.9440  0.3875 -0.1217
   98MOL   C21527569   7.661   5.761   6.823  0.6406 -0.8691 -0.0754
   98MOL   C21627570   7.598   5.821   6.697 -0.1370  0.0628 -0.0374
   98MOL   C21727571   7.606   5.773   6.575  0.1182 -0.0232  0.2921
   98MOL   C21827572   7.738   5.645   6.828 -0.1271 -0.0098 -0.0780
   98MOL   C21927573   7.785   5.590   6.955  0.5589 -0.4423  0.2511
   98MOL   H22027574   7.649   5.823   7.162 -2.5617  0.2354 -0.0979
   98MOL   H22127575   7.552   5.897   6.958  2.0843  0.8625  3.6923
   98MOL   H22227576   7.541   5.911   6.715 -0.7182 -0.5974  1.5318
   98MOL   H22327577   7.649   5.674   6.571  1.3105  0.4880  0.2058
   98MOL   H22427578   7.778   5.600   6.738  1.2326  0.7857  0.1064
   98MOL   H22527579   7.835   5.495   6.963  1.1174 -0.1703 -0.0462
   98MOL   C22627580   7.564   5.833   6.446 -0.3447 -0.6651 -0.5377
   98MOL   C22727581   7.578   5.752   6.332 -0.2110  0.0122 -0.3323
   98MOL   C22827582   7.518   5.792   6.212  0.6065 -0.6907 -0.2222
   98MOL   C22927583   7.462   5.918   6.200  0.2860 -0.3194  0.6187
   98MOL   C23027584   7.395   5.945   6.070  0.7580 -0.3055  0.1539
   98MOL   C23127585   7.294   6.030   6.037  0.5568  0.7744 -0.5528
   98MOL   C23227586   7.452   6.003   6.313  0.1133  0.3473  0.0466
   98MOL   C23327587   7.520   5.967   6.428 -0.5679  0.2776  0.2564
   98MOL   H23427588   7.634   5.660   6.339 -1.6329 -1.1881 -3.7263
   98MOL   H23527589   7.517   5.717   6.135 -0.5622 -0.6382 -0.2585
   98MOL   H23627590   7.434   5.892   5.984 -1.8448 -1.6349 -0.2360
   98MOL   H23727591   7.239   6.080   6.116 -2.1201 -1.3090 -1.0209
   98MOL   H23827592   7.414   6.103   6.300  1.3084  0.7313 -0.6053
   98MOL   H23927593   7.516   6.048   6.500 -2.4834  0.1496  0.3294
   98MOL   C24027594   7.246   6.073   5.901  0.5323  0.1311 -0.0097
   98MOL   C24127595   7.113   6.116   5.880 -0.1178 -0.0083  0.0441
   98MOL   C24227596   7.078   6.172   5.752  0.7784  0.4204 -0.3516
   98MOL   C24327597   7.163   6.163   5.644 -0.5402 -0.0926 -0.0895
   98MOL   C24427598   7.113   6.211   5.509  0.2476  0.7504 -0.0478
   98MOL   C24527599   7.161   6.173   5.390  0.0232  0.2232 -0.2250
   98MOL   C24627600   7.296   6.108   5.664  0.5948  0.1412 -0.1189
   98MOL   C24727601   7.337   6.076   5.791  0.1803  0.1165  0.0418
   98MOL   H24827602   7.037   6.102   5.956 -1.8482  2.8314 -1.0742
   98MOL   H24927603   6.978   6.210   5.737  0.8083 -0.4393 -2.9746
   98MOL   H25027604   7.030   6.280   5.512 -2.4004 -2.2661 -0.5795
   98MOL   H25127605   7.252   6.115   5.380  0.3508  1.0645 -2.2683
   98MOL   H25227606   7.366   6.093   5.583  0.3129 -1.8773 -0.0012
   98MOL   H25327607   7.441   6.048   5.804 -0.2354 -1.7809 -0.5943
   98MOL   C25427608   7.114   6.224   5.258 -0.3452  0.5557  0.3759
   98MOL   C25527609   7.195   6.196   5.148 -0.0451 -0.5071 -0.0691
   98MOL   C25627610   7.167   6.260   5.019 -0.0899 -0.3859 -0.2187
   98MOL   C25727611   7.072   6.359   5.011  0.0294 -0.1377  0.1537
   98MOL   C25827612   7.064   6.455   4.896  0.7412 -0.0672 -0.5534
   98MOL   C25927613   7.157   6.485   4.800 -0.2786 -0.0841 -0.6663
   98MOL   C26027614   6.991   6.382   5.124  0.6343 -0.9183 -1.3072
   98MOL   C26127615   7.002   6.312   5.245 -0.5031 -0.1558  0.5194
   98MOL   H26227616   7.273   6.122   5.144  0.9371  0.5147  0.1561
   98MOL   H26327617   7.220   6.230   4.930  0.9937  1.6544 -0.2977
   98MOL   H26427618   6.973   6.514   4.887  1.2231  0.5073 -1.8139
   98MOL   H26527619   7.123   6.560   4.730 -0.2256 -0.4374 -1.0735
   98MOL   H26627620   6.912   6.455   5.111 -0.9676 -2.6282 -1.3560
   98MOL   H26727621   6.933   6.333   5.325 -0.7251  0.6914  0.1166
   98MOL   C26827622   7.290   6.425   4.780 -0.3647 -0.1503 -0.0321
   98MOL   C26927623   7.335   6.378   4.657  0.0068  0.1763  0.1425
   98MOL   C27027624   7.460   6.327   4.638 -0.5485  0.2933 -0.0143
   98MOL   C27127625   7.555   6.319   4.742 -0.4182 -0.1154  0.0032
   98MOL   C27227626   7.689   6.260   4.711 -0.0672 -0.9622 -0.2630
   98MOL   C27327627   7.771   6.222   4.811 -0.2959  0.1287 -0.2268
   98MOL   C27427628   7.518   6.377   4.863  0.5010 -0.4608  0.6488
   98MOL   C27527629   7.387   6.433   4.883  0.1314  0.1304  0.5850
   98MOL   H27627630   7.284   6.369   4.562 -0.4338  1.6957  0.2194
   98MOL   H27727631   7.475   6.292   4.537  2.0574  1.4769 -0.0863
   98MOL   H27827632   7.710   6.237   4.608  1.1363 -1.5773  0.1193
   98MOL   H27927633   7.752   6.237   4.916  0.3610  0.4089 -0.1462
   98MOL   H28027634   7.589   6.359   4.942  0.7237 -3.8807 -0.2389
   98MOL   H28127635   7.370   6.474   4.982  1.8426  0.3507  0.8082
   98MOL   H28227636   7.862   6.173   4.779 -0.7371  0.1048 -1.4864
   99MOL     C127637   4.798   5.647   7.042  0.4104 -0.4108 -0.2790
   99MOL     C227638   4.762   5.773   6.982 -0.6957 -0.4139  0.4883
   99MOL     C327639   4.848   5.838   6.891 -0.0001 -0.6363  0.2978
   99MOL     C427640   4.975   5.776   6.857 -0.1946  0.3518 -0.3097
   99MOL     C527641   5.071   5.831   6.753 -0.2352 -0.0116  0.5243
   99MOL     C627642   5.042   5.943   6.686  0.2662  0.1506  0.3624
   99MOL     C727643   5.008   5.652   6.916  0.1461 -0.2933 -0.5753
   99MOL     C827644   4.921   5.585   7.006 -0.8761  0.9000 -0.2812
   99MOL     H927645   4.669   5.822   7.005 -1.6134 -1.9310  0.1247
   99MOL    H1027646   4.809   5.927   6.844 -1.8540 -0.9100  1.2669
   99MOL    H1127647   5.162   5.775   6.737 -0.2649  0.5987 -1.9360
   99MOL    H1227648   4.946   5.987   6.707 -0.9723 -2.1284 -0.3835
   99MOL    H1327649   5.101   5.608   6.885 -0.2655 -0.3718 -1.7302
   99MOL    H1427650   4.952   5.489   7.046  1.1379  1.3838 -0.6315
   99MOL    H1527651   4.731   5.602   7.113  1.3093  0.7100  1.3119
   99MOL    C1627652   5.136   6.012   6.590 -0.1913 -0.3289  0.1842
   99MOL    C1727653   5.096   6.130   6.518 -0.1627  0.5260 -0.0171
   99MOL    C1827654   5.184   6.192   6.431 -0.6712 -0.0443 -0.6389
   99MOL    C1927655   5.319   6.147   6.413  0.7375  0.0511  0.1163
   99MOL    C2027656   5.416   6.227   6.327  0.0982 -0.6041 -0.4146
   99MOL    C2127657   5.539   6.192   6.289 -0.4003 -0.2094 -0.1224
   99MOL    C2227658   5.360   6.034   6.485  0.6825  0.5666  1.1695
   99MOL    C2327659   5.264   5.966   6.568  0.3228  0.6604 -0.3979
   99MOL    H2427660   4.996   6.169   6.530 -0.2911  0.6095 -1.3411
   99MOL    H2527661   5.142   6.280   6.383 -3.0691 -1.1414 -0.6350
   99MOL    H2627662   5.368   6.318   6.296  1.3448  0.5055  0.8385
   99MOL    H2727663   5.583   6.102   6.328 -0.3091 -1.2669 -2.5907
   99MOL    H2827664   5.459   5.991   6.476  0.7253  0.9362 -0.4012
   99MOL    H2927665   5.303   5.876   6.614  1.1588  0.3045 -1.7641
   99MOL    C3027666   5.626   6.259   6.191  0.0536  0.7981  0.0017
   99MOL    C3127667   5.741   6.190   6.139 -0.4632 -0.2060 -0.4874
   99MOL    C3227668   5.820   6.247   6.033 -0.0380 -0.2534  0.0244
   99MOL    C3327669   5.786   6.375   5.979  0.0880 -0.0344  0.4188
   99MOL    C3427670   5.857   6.435   5.861  0.7937 -0.2693 -0.0542
   99MOL    C3527671   5.922   6.356   5.776 -0.0267  0.1372 -0.6702
   99MOL    C3627672   5.675   6.444   6.028 -0.4859  0.3622  0.0267
   99MOL    C3727673   5.593   6.380   6.126  0.1675 -0.6715 -0.1722
   99MOL    H3827674   5.768   6.098   6.189 -1.6928  0.8321  2.1824
   99MOL    H3927675   5.917   6.203   6.011  0.7166  1.4731 -0.1377
   99MOL    H4027676   5.847   6.541   5.845 -0.4556 -0.3846 -0.1342
   99MOL    H4127677   5.931   6.250   5.795  0.0898  0.2191 -0.2721
   99MOL    H4227678   5.648   6.542   5.990  0.0359  1.1416  1.6108
   99MOL    H4327679   5.506   6.435   6.156 -0.0816  0.3778 -2.6709
   99MOL    C4427680   5.990   6.409   5.659  0.5476 -0.1797  0.4046
   99MOL    C4527681   6.035   6.311   5.565 -0.2664  0.3156  0.4839
   99MOL    C4627682   6.113   6.346   5.452  0.8521 -0.3508  0.0727
   99MOL    C4727683   6.138   6.480   5.431  0.7518 -0.0485 -0.5817
   99MOL    C4827684   6.218   6.521   5.313 -0.5187 -0.0647 -0.3261
   99MOL    C4927685   6.233   6.458   5.197 -0.2245 -0.1556  0.4926
   99MOL    C5027686   6.071   6.579   5.510  0.7936  0.3170  0.2432
   99MOL    C5127687   6.003   6.544   5.628  0.2639 -0.1372 -0.0179
   99MOL    H5227688   6.024   6.207   5.592 -0.4812  0.4039  0.7359
   99MOL    H5327689   6.144   6.279   5.374 -2.4002 -0.3424 -1.3257
   99MOL    H5427690   6.274   6.612   5.324  0.0523 -0.5034  0.4483
   99MOL    H5527691   6.169   6.371   5.183 -2.9148  1.7096  0.8099
   99MOL    H5627692   6.085   6.683   5.485  1.5122 -0.2550 -1.9481
   99MOL    H5727693   5.964   6.619   5.695  1.5954  0.4379  0.1131
   99MOL    C5827694   6.329   6.510   5.088  0.1203 -0.0993  0.7066
   99MOL    C5927695   6.434   6.602   5.109  0.0312 -0.6722  0.4678
   99MOL    C6027696   6.518   6.646   5.004  0.1636  0.5940  0.2788
   99MOL    C6127697   6.508   6.590   4.873 -0.0922  0.3019  0.3443
   99MOL    C6227698   6.609   6.618   4.768 -0.2624 -0.4224  0.3326
   99MOL    C6327699   6.588   6.628   4.638  0.3216  0.3502 -0.1422
   99MOL    C6427700   6.407   6.496   4.849 -0.0540  0.2529  0.0939
   99MOL    C6527701   6.320   6.460   4.954 -0.2352 -0.3733  0.2264
   99MOL    H6627702   6.456   6.644   5.206  3.2155 -0.7174 -0.1719
   99MOL    H6727703   6.599   6.716   5.018  1.1118 -0.4184 -0.0942
   99MOL    H6827704   6.709   6.623   4.809  0.0722 -0.4007 -0.4825
   99MOL    H6927705   6.492   6.607   4.594 -1.0297  0.3113  2.6878
   99MOL    H7027706   6.406   6.454   4.749  2.6762 -0.5660  0.3689
   99MOL    H7127707   6.232   6.401   4.933  0.7187 -2.0659  0.8599
   99MOL    C7227708   6.700   6.664   4.555  0.3543 -0.3345  0.1511
   99MOL    C7327709   6.829   6.628   4.591 -0.7566 -0.0613  0.3726
   99MOL    C7427710   6.932   6.667   4.508 -0.2404  0.2578  0.0620
   99MOL    C7527711   6.922   6.750   4.393  1.0595 -0.0766 -0.8457
   99MOL    C7627712   7.045   6.796   4.338 -0.1458 -0.0933 -0.1026
   99MOL    C7727713   7.069   6.907   4.263  0.5524  0.7488  0.4152
   99MOL    C7827714   6.794   6.796   4.363  0.0673 -0.3861  0.1233
   99MOL    C7927715   6.683   6.754   4.442  0.5024  0.6216  0.0162
   99MOL    H8027716   6.847   6.555   4.668  0.3150 -0.8312 -0.5915
   99MOL    H8127717   7.032   6.639   4.538  0.0434  0.7348 -0.4399
   99MOL    H8227718   7.128   6.728   4.348 -0.2006 -0.0591  0.6156
   99MOL    H8327719   6.995   6.981   4.238  0.2025  0.2631  0.0074
   99MOL    H8427720   6.775   6.850   4.272  0.9968 -0.5417 -0.1645
   99MOL    H8527721   6.580   6.772   4.415  0.8500 -0.2813 -1.9246
   99MOL    C8627722   7.200   6.942   4.212 -0.4073 -0.1802 -0.0738
   99MOL    C8727723   7.250   7.071   4.206 -0.1729 -0.8777 -0.3382
   99MOL    C8827724   7.384   7.101   4.169  0.1586  0.5820 -0.2562
   99MOL    C8927725   7.474   6.996   4.135  0.0008  0.5647 -0.3293
   99MOL    C9027726   7.606   7.016   4.082 -0.1884  0.5247 -0.5665
   99MOL    C9127727   7.646   7.125   4.016  0.5428 -0.0729 -0.8101
   99MOL    C9227728   7.430   6.869   4.132  0.1808 -0.2315  0.9219
   99MOL    C9327729   7.298   6.841   4.177  0.5787  0.1748 -0.0402
   99MOL    H9427730   7.183   7.153   4.225 -0.3916 -0.8839 -1.0659
   99MOL    H9527731   7.414   7.205   4.168  2.5730 -0.0856 -0.2724
   99MOL    H9627732   7.677   6.936   4.103 -0.2589  0.1672 -1.6871
   99MOL    H9727733   7.578   7.206   3.995  0.6407  0.3152  0.3659
   99MOL    H9827734   7.494   6.791   4.093 -1.7923 -0.4447 -2.0805
   99MOL    H9927735   7.257   6.741   4.172  0.8699  0.0424  0.2890
   99MOL   C10027736   7.785   7.148   3.973 -0.0910 -0.0560  0.3227
   99MOL   C10127737   7.816   7.253   3.883 -0.2938  0.5426 -0.0297
   99MOL   C10227738   7.946   7.291   3.847 -1.0335  0.0141 -0.3643
   99MOL   C10327739   8.054   7.207   3.895  0.0755  0.3795  0.5889
   99MOL   C10427740   0.052   7.233   3.865 -0.2297 -0.2785 -0.0888
   99MOL   C10527741   0.157   7.180   3.936  0.1530 -0.2987  0.5112
   99MOL   C10627742   8.023   7.098   3.973 -0.3920 -0.0234 -0.2064
   99MOL   C10727743   7.892   7.068   4.020 -0.7825  0.4718 -0.0323
   99MOL   H10827744   7.732   7.310   3.845  0.2934  1.8953  0.6779
   99MOL   H10927745   7.957   7.388   3.801 -1.1312  0.3476  0.3067
   99MOL   H11027746   0.066   7.295   3.777  0.0636  2.4581  1.8448
   99MOL   H11127747   0.141   7.123   4.026  0.3858  0.5692  1.1074
   99MOL   H11227748   8.098   7.026   4.002 -0.2353  1.3009  2.8357
   99MOL   H11327749   7.886   6.986   4.089  3.0918  0.1820  0.0650
   99MOL   C11427750   0.299   7.182   3.908 -0.4247  0.6116  0.4144
   99MOL   C11527751   0.344   7.186   3.776  0.5472 -0.1946 -0.0531
   99MOL   C11627752   0.483   7.210   3.758 -0.4984 -0.2686 -0.5773
   99MOL   C11727753   0.580   7.199   3.861 -0.5280 -0.5410  0.0739
   99MOL   C11827754   0.724   7.202   3.833  0.5931  0.1988 -0.0736
   99MOL   C11927755   0.812   7.265   3.915 -0.2916 -0.6191 -0.6776
   99MOL   C12027756   0.528   7.207   3.992  0.2726  0.4354  0.8516
   99MOL   C12127757   0.390   7.193   4.017  0.4825  0.0319 -0.4960
   99MOL   H12227758   0.275   7.184   3.692  1.8468 -0.0658 -1.1455
   99MOL   H12327759   0.524   7.195   3.660 -2.1404 -0.7309 -1.2165
   99MOL   H12427760   0.752   7.139   3.749  1.2654 -0.4409  0.6247
   99MOL   H12527761   0.788   7.332   3.997 -0.9290  0.2918 -1.5943
   99MOL   H12627762   0.603   7.198   4.069  0.8331 -0.2990  0.2325
   99MOL   H12727763   0.364   7.186   4.122  0.4075 -1.6668 -0.6086
   99MOL   C12827764   0.954   7.251   3.899  0.2879  0.8621 -0.3523
   99MOL   C12927765   1.032   7.360   3.948 -0.2627  0.4751  0.0036
   99MOL   C13027766   1.168   7.341   3.955  0.9419 -0.1097  0.6035
   99MOL   C13127767   1.229   7.221   3.911 -0.1260  0.3411 -0.0817
   99MOL   C13227768   1.370   7.205   3.943 -0.4889 -0.4973  0.5271
   99MOL   C13327769   1.441   7.088   3.941  0.2159 -0.6451 -0.1956
   99MOL   C13427770   1.154   7.120   3.857 -0.0735 -0.1507  0.2189
   99MOL   C13527771   1.015   7.137   3.840  0.3886  0.4459  0.3361
   99MOL   H13627772   0.992   7.448   3.996 -0.0950  1.7475 -2.1225
   99MOL   H13727773   1.224   7.421   4.002  0.0950 -1.3540  3.8547
   99MOL   H13827774   1.417   7.296   3.976 -2.1485 -0.5636  3.2813
   99MOL   H13927775   1.395   6.994   3.914  3.7371 -3.0292  1.7749
   99MOL   H14027776   1.195   7.031   3.811 -2.7274 -1.0342 -0.5090
   99MOL   H14127777   0.960   7.054   3.800 -1.9497  1.8611  0.5185
   99MOL   C14227778   1.581   7.072   3.986  0.4129 -0.0417 -0.1915
   99MOL   C14327779   1.643   6.959   3.936 -0.0549  0.1580 -0.2392
   99MOL   C14427780   1.780   6.938   3.951  1.1843 -0.3442  0.9093
   99MOL   C14527781   1.855   7.030   4.027  0.9924 -0.6657  0.1446
   99MOL   C14627782   1.995   7.009   4.065  0.2820  0.4160  0.2988
   99MOL   C14727783   2.062   6.896   4.034 -0.1467  0.0354 -0.7498
   99MOL   C14827784   1.786   7.148   4.072 -0.0118 -0.3931  0.0728
   99MOL   C14927785   1.651   7.166   4.050 -0.3658 -0.0932  0.4822
   99MOL   H15027786   1.590   6.886   3.876  0.4732 -0.3775 -0.0470
   99MOL   H15127787   1.818   6.862   3.884 -0.4893 -0.6523  0.2817
   99MOL   H15227788   2.048   7.079   4.127  1.7584  1.0655 -1.6444
   99MOL   H15327789   2.008   6.821   3.979 -1.1464  1.5392 -1.8770
   99MOL   H15427790   1.845   7.225   4.119 -1.2891  1.7294 -1.6896
   99MOL   H15527791   1.592   7.250   4.083  1.5326  2.0813 -1.4326
   99MOL   C15627792   2.203   6.861   4.065  0.0581 -0.1765 -0.2615
   99MOL   C15727793   2.291   6.948   4.129  0.7297 -0.4091 -0.2214
   99MOL   C15827794   2.413   6.900   4.173 -0.3182  0.0704  0.0829
   99MOL   C15927795   2.459   6.771   4.139  0.2892 -0.4850 -0.2197
   99MOL   C16027796   2.590   6.724   4.182  0.0719 -0.4120 -0.1689
   99MOL   C16127797   2.655   6.610   4.152  1.0419 -0.0594 -0.1331
   99MOL   C16227798   2.370   6.691   4.066 -0.2830 -0.0036 -0.4959
   99MOL   C16327799   2.241   6.729   4.038  0.0864 -1.0027 -1.1171
   99MOL   H16427800   2.260   7.050   4.147  0.5398 -0.6874  1.0709
   99MOL   H16527801   2.478   6.976   4.214  1.1328 -0.3885 -1.3015
   99MOL   H16627802   2.635   6.790   4.254 -0.2872 -0.2319 -0.1053
   99MOL   H16727803   2.600   6.544   4.086 -1.8234  1.9609  0.1391
   99MOL   H16827804   2.393   6.593   4.027  2.3080  0.2433  0.3377
   99MOL   H16927805   2.177   6.652   3.998  1.1744 -2.0327 -0.9160
   99MOL   C17027806   2.778   6.560   4.207  0.2199 -0.1078  0.6728
   99MOL   C17127807   2.836   6.619   4.323  0.3292 -0.0747 -0.5405
   99MOL   C17227808   2.960   6.574   4.367  0.5766  0.0521  0.5020
   99MOL   C17327809   3.034   6.475   4.296  0.1849 -0.0546  0.4743
   99MOL   C17427810   3.174   6.443   4.333 -0.0090  0.1888  0.5462
   99MOL   C17527811   3.242   6.341   4.275 -0.0513 -0.1686  0.7423
   99MOL   C17627812   2.972   6.416   4.182  0.2498  0.1109 -0.0023
   99MOL   C17727813   2.847   6.455   4.141  0.8136 -0.1642  0.0365
   99MOL   H17827814   2.781   6.698   4.372  0.4303 -1.0292  1.1368
   99MOL   H17927815   2.984   6.616   4.463 -0.0041 -0.5693  0.9293
   99MOL   H18027816   3.223   6.507   4.405  0.9896  0.4138 -0.3211
   99MOL   H18127817   3.190   6.280   4.203  2.6949  0.3322 -1.7557
   99MOL   H18227818   3.021   6.338   4.125  0.5962 -1.2961  2.1355
   99MOL   H18327819   2.795   6.407   4.060  1.5553 -2.6812  1.0210
   99MOL   C18427820   3.377   6.299   4.302  0.3128 -0.4255  0.3410
   99MOL   C18527821   3.452   6.340   4.414 -0.1075  0.2122 -0.4560
   99MOL   C18627822   3.579   6.276   4.434 -0.0480  0.3483 -0.4489
   99MOL   C18727823   3.639   6.197   4.337 -0.0013 -0.5078  0.1745
   99MOL   C18827824   3.767   6.128   4.381 -0.3096  0.0236  0.0251
   99MOL   C18927825   3.848   6.055   4.303  0.4888  1.0198 -0.1778
   99MOL   C19027826   3.572   6.172   4.220  1.1317 -0.2410 -0.6031
   99MOL   C19127827   3.442   6.225   4.203  0.1166  0.7017  0.3803
   99MOL   H19227828   3.396   6.393   4.489 -1.4952 -0.4846 -0.9671
   99MOL   H19327829   3.636   6.300   4.522 -0.4543 -2.2471  0.5596
   99MOL   H19427830   3.788   6.140   4.486 -0.1223 -0.8591  0.0958
   99MOL   H19527831   3.817   6.057   4.200  1.1766 -1.7406 -0.4812
   99MOL   H19627832   3.634   6.115   4.151  0.3554 -2.9259  0.8462
   99MOL   H19727833   3.389   6.196   4.113 -0.5144 -1.2149  1.3445
   99MOL   C19827834   3.975   5.987   4.353  0.0003 -0.4783 -0.0439
   99MOL   C19927835   4.076   5.962   4.260  0.5419  0.2049  0.1061
   99MOL   C20027836   4.197   5.903   4.302 -0.3125 -0.2889  0.0829
   99MOL   C20127837   4.226   5.878   4.439  1.0208  0.4197  0.2102
   99MOL   C20227838   4.343   5.806   4.484  0.5510 -0.2344  0.2448
   99MOL   C20327839   4.455   5.792   4.412 -0.4966  0.1315 -0.3873
   99MOL   C20427840   4.129   5.915   4.536 -0.0410 -0.9590 -0.6336
   99MOL   C20527841   4.003   5.961   4.494  0.0126  0.4989 -0.0220
   99MOL   H20627842   4.064   5.983   4.155  0.7677  0.0811  0.0539
   99MOL   H20727843   4.270   5.875   4.228 -2.5923 -2.2472 -1.4951
   99MOL   H20827844   4.342   5.768   4.585  0.2154 -0.9229 -0.0124
   99MOL   H20927845   4.460   5.845   4.318  1.8849  0.4532 -0.1116
   99MOL   H21027846   4.150   5.897   4.640 -1.1009 -0.9710 -0.4078
   99MOL   H21127847   3.927   5.979   4.569 -2.3532  0.1646 -2.2832
   99MOL   C21227848   4.579   5.726   4.448  0.2248  0.3618  0.3398
   99MOL   C21327849   4.669   5.681   4.348  0.5621 -0.0429  0.7519
   99MOL   C21427850   4.798   5.625   4.390  0.0645  0.1211 -0.2383
   99MOL   C21527851   4.831   5.626   4.523  0.5033 -0.7468  0.1420
   99MOL   C21627852   4.972   5.594   4.561  0.2815  0.3763  0.7212
   99MOL   C21727853   5.075   5.546   4.495  0.3219  0.1196 -1.0016
   99MOL   C21827854   4.731   5.649   4.620  0.0352 -0.5660 -0.8325
   99MOL   C21927855   4.607   5.696   4.583  0.1050  0.2538  0.1863
   99MOL   H22027856   4.626   5.681   4.249 -0.2940  0.7884  1.1187
   99MOL   H22127857   4.861   5.587   4.311 -1.1779  0.3420 -1.3771
   99MOL   H22227858   5.004   5.621   4.660  0.9410 -0.8380  0.8470
   99MOL   H22327859   5.068   5.527   4.389  1.4334 -1.0152 -0.8799
   99MOL   H22427860   4.739   5.634   4.726 -2.6137 -1.2958 -0.6918
   99MOL   H22527861   4.537   5.712   4.663 -1.0850 -3.3513 -0.0375
   99MOL   C22627862   5.210   5.521   4.556 -0.5419 -0.0385  0.0236
   99MOL   C22727863   5.261   5.585   4.672  0.1775 -0.2289  0.8630
   99MOL   C22827864   5.393   5.569   4.714  0.0474  0.3240  0.8084
   99MOL   C22927865   5.480   5.486   4.647 -0.1686 -0.1539 -1.2740
   99MOL   C23027866   5.614   5.481   4.700 -0.6265  0.4191  0.0919
   99MOL   C23127867   5.702   5.393   4.662  0.4082  0.6449  0.2933
   99MOL   C23227868   5.428   5.416   4.536 -0.0164 -0.3046  0.4640
   99MOL   C23327869   5.295   5.433   4.492 -1.1311  0.3258 -0.5021
   99MOL   H23427870   5.205   5.663   4.723 -0.6862  0.9068 -1.7501
   99MOL   H23527871   5.423   5.625   4.801 -1.6898  4.3080 -1.0112
   99MOL   H23627872   5.643   5.550   4.778  0.3315  2.0148 -1.6314
   99MOL   H23727873   5.677   5.315   4.591 -0.5906 -0.4788  1.8299
   99MOL   H23827874   5.493   5.350   4.480 -1.0366  0.2136 -1.3647
   99MOL   H23927875   5.258   5.371   4.413 -1.5682  1.2243 -1.0073
   99MOL   C24027876   5.840   5.377   4.708 -0.0378  0.8156 -0.2121
   99MOL   C24127877   5.921   5.273   4.650  0.0540 -0.4428  0.2357
   99MOL   C24227878   6.055   5.256   4.699 -0.1740  0.3213 -0.5962
   99MOL   C24327879   6.110   5.345   4.793 -0.4025 -0.0473 -0.2071
   99MOL   C24427880   6.247   5.325   4.849  0.4108 -0.3904  0.4083
   99MOL   C24527881   6.353   5.281   4.783 -0.2661 -0.1050 -0.0262
   99MOL   C24627882   6.032   5.452   4.838  0.0171 -0.4466  0.3428
   99MOL   C24727883   5.901   5.464   4.796 -0.0298 -0.5757  0.0441
   99MOL   H24827884   5.880   5.191   4.592 -1.1411  0.2471  0.0760
   99MOL   H24927885   6.114   5.169   4.672  1.7324  0.8166  1.7712
   99MOL   H25027886   6.256   5.361   4.950 -0.3588  1.9811 -0.3325
   99MOL   H25127887   6.342   5.248   4.681 -0.8262  1.6866 -0.5672
   99MOL   H25227888   6.078   5.521   4.907  4.7636 -2.8117 -0.2941
   99MOL   H25327889   5.841   5.536   4.848 -0.3137  1.4054 -2.8950
   99MOL   C25427890   6.493   5.281   4.839 -0.1899  0.0899 -0.0815
   99MOL   C25527891   6.531   5.340   4.964 -0.2825  0.3726 -0.5441
   99MOL   C25627892   6.661   5.339   5.010  0.3615  0.2217  1.0667
   99MOL   C25727893   6.764   5.271   4.941  0.2303 -0.2554  0.3770
   99MOL   C25827894   6.903   5.268   4.992  0.1543  0.5791 -0.1014
   99MOL   C25927895   6.956   5.294   5.115 -0.4309 -0.0655 -0.0313
   99MOL   C26027896   6.728   5.199   4.823  0.0784  0.1514 -0.2004
   99MOL   C26127897   6.594   5.207   4.777 -0.1190 -0.1437  0.2683
   99MOL   H26227898   6.467   5.405   5.022 -2.6130 -0.8450 -1.6926
   99MOL   H26327899   6.683   5.397   5.099  0.2453  2.5499 -0.4017
   99MOL   H26427900   6.971   5.242   4.912 -0.3103 -0.3264 -0.2187
   99MOL   H26527901   7.064   5.292   5.124 -0.3429 -0.6689 -1.1430
   99MOL   H26627902   6.802   5.144   4.766  0.6284  1.9489 -1.2819
   99MOL   H26727903   6.565   5.149   4.691 -0.0833  0.1482  0.0601
   99MOL   C26827904   6.883   5.325   5.240 -0.6919  0.0738 -0.2350
   99MOL   C26927905   6.912   5.447   5.306 -0.3226 -0.2627  0.3904
   99MOL   C27027906   6.821   5.492   5.405 -0.1921 -0.0522  0.0271
   99MOL   C27127907   6.712   5.410   5.441  0.1613 -0.8277 -0.5668
   99MOL   C27227908   6.607   5.452   5.540  0.5590 -0.8870  0.0953
   99MOL   C27327909   6.638   5.528   5.649  0.8310 -0.1322  0.2755
   99MOL   C27427910   6.697   5.278   5.397  0.7711  0.2045  0.3385
   99MOL   C27527911   6.781   5.237   5.290  0.7308 -0.4459 -0.1662
   99MOL   H27627912   6.983   5.524   5.279  0.4957 -0.9010  0.7107
   99MOL   H27727913   6.822   5.592   5.445 -1.8790 -0.0364  0.0681
   99MOL   H27827914   6.510   5.409   5.523 -0.0215  0.5755 -0.4243
   99MOL   H27927915   6.731   5.575   5.676 -0.4026  1.6249  1.5434
   99MOL   H28027916   6.616   5.210   5.420  1.0235 -0.0406  0.4849
   99MOL   H28127917   6.752   5.140   5.251 -0.0348 -1.3726  2.6097
   99MOL   H28227918   6.565   5.559   5.723 -1.2843 -2.0884 -0.8940
  100MOL     C127919   0.142   3.589   4.766  0.0404  0.1131  0.2837
  100MOL     C227920   0.035   3.510   4.715  0.0226  0.7257 -0.0945
  100MOL     C327921   8.047   3.564   4.708  0.3156 -0.1984  0.3979
  100MOL     C427922   8.018   3.681   4.772 -0.3787  0.2882  0.1015
  100MOL     C527923   7.881   3.727   4.780 -0.7478 -0.1978 -0.3357
  100MOL     C627924   7.827   3.807   4.870 -0.0388 -0.2149  0.2834
  100MOL     C727925   8.119   3.754   4.835 -0.0260  0.1823 -0.4145
  100MOL     C827926   0.110   3.709   4.827  0.8872 -0.9495 -0.2255
  100MOL     H927927   0.063   3.415   4.672 -2.5929  0.4646 -1.3252
  100MOL    H1027928   7.971   3.505   4.658 -1.3648  3.4601 -1.5486
  100MOL    H1127929   7.821   3.694   4.696 -0.1963 -1.3398 -0.2904
  100MOL    H1227930   7.894   3.849   4.944 -1.4518  1.3364  0.7249
  100MOL    H1327931   8.101   3.842   4.895  2.3000  0.3520  0.0642
  100MOL    H1427932   0.190   3.771   4.866 -1.7061  2.7933 -0.5740
  100MOL    H1527933   0.243   3.552   4.756 -0.4165 -0.7719 -1.2690
  100MOL    C1627934   7.685   3.849   4.885  0.2931 -1.2188  0.9248
  100MOL    C1727935   7.643   3.928   4.999  0.2670 -0.1920 -0.4750
  100MOL    C1827936   7.514   3.983   5.010  0.2071 -0.0978  0.2214
  100MOL    C1927937   7.411   3.948   4.917  0.0730 -0.3264  0.5151
  100MOL    C2027938   7.279   4.007   4.921  0.6324  0.3773  0.7054
  100MOL    C2127939   7.192   4.016   4.810  0.1243  0.6902 -0.2900
  100MOL    C2227940   7.452   3.859   4.805 -0.0652 -0.0348 -0.6176
  100MOL    C2327941   7.588   3.806   4.798 -0.0789 -0.1648  0.6062
  100MOL    H2427942   7.720   3.942   5.074 -0.0873 -0.0992 -0.1281
  100MOL    H2527943   7.490   4.050   5.092  0.7406 -0.8602  1.0047
  100MOL    H2627944   7.240   4.048   5.013 -1.0584  0.4864 -0.0319
  100MOL    H2727945   7.226   3.974   4.717 -2.3876 -0.3374 -0.8014
  100MOL    H2827946   7.372   3.831   4.738 -1.6912 -1.3372  1.7997
  100MOL    H2927947   7.611   3.741   4.715  0.3005 -1.6161  1.8461
  100MOL    C3027948   7.061   4.076   4.808 -0.2205 -0.1989 -0.1865
  100MOL    C3127949   7.001   4.141   4.918 -0.4905 -0.2698  0.4316
  100MOL    C3227950   6.867   4.187   4.905  0.3246 -0.3068  0.2342
  100MOL    C3327951   6.791   4.151   4.794 -0.8088 -0.5072  0.2213
  100MOL    C3427952   6.652   4.216   4.780 -0.1149 -0.2037  0.4964
  100MOL    C3527953   6.575   4.210   4.670 -0.5502 -0.2256 -0.3922
  100MOL    C3627954   6.849   4.079   4.686  0.0998 -0.1492 -0.9882
  100MOL    C3727955   6.982   4.048   4.701 -0.5575 -0.1469  0.4056
  100MOL    H3827956   7.055   4.162   5.010  0.5992 -0.4961 -0.1564
  100MOL    H3927957   6.831   4.249   4.986  0.1828 -1.1802  0.8618
  100MOL    H4027958   6.609   4.263   4.868  1.2337  1.6967  0.1704
  100MOL    H4127959   6.612   4.167   4.578  0.4030  0.1827 -0.2034
  100MOL    H4227960   6.804   4.055   4.591  0.1845  2.2716 -1.6736
  100MOL    H4327961   7.030   3.994   4.621 -1.1379 -0.4917  0.2910
  100MOL    C4427962   6.435   4.268   4.654 -0.3342 -0.4042 -0.1385
  100MOL    C4527963   6.381   4.372   4.741 -0.1202  0.6530  0.2553
  100MOL    C4627964   6.244   4.413   4.723  0.3885  0.4553 -0.6357
  100MOL    C4727965   6.165   4.348   4.628  0.3588  0.7121 -0.5029
  100MOL    C4827966   6.023   4.379   4.621  0.4703 -0.1259  0.4884
  100MOL    C4927967   5.941   4.345   4.518  0.4207 -1.0322  0.0631
  100MOL    C5027968   6.215   4.242   4.544  0.5589  0.0622 -0.1403
  100MOL    C5127969   6.347   4.209   4.556  0.1121 -0.2746  0.2125
  100MOL    H5227970   6.448   4.411   4.816  0.9522 -3.0797  1.3599
  100MOL    H5327971   6.198   4.493   4.781  1.5134 -0.7507  2.0047
  100MOL    H5427972   5.983   4.444   4.697  0.2529  0.8700 -0.4583
  100MOL    H5527973   5.965   4.287   4.431 -2.4493 -0.6661 -1.0445
  100MOL    H5627974   6.151   4.186   4.478  0.6414  0.6171 -0.6966
  100MOL    H5727975   6.389   4.127   4.500  0.6920  2.0251 -2.9095
  100MOL    C5827976   5.797   4.383   4.506  0.3675  0.3235 -0.2796
  100MOL    C5927977   5.743   4.497   4.574  0.1414 -0.6608  0.7351
  100MOL    C6027978   5.609   4.535   4.555  0.4868 -0.1842 -0.4808
  100MOL    C6127979   5.523   4.448   4.488  0.4659 -0.5913 -0.0677
  100MOL    C6227980   5.380   4.471   4.459  0.2935  1.0803 -0.1686
  100MOL    C6327981   5.308   4.580   4.487 -0.4395  0.0261 -0.2094
  100MOL    C6427982   5.578   4.326   4.426 -0.2164 -0.9862  0.0004
  100MOL    C6527983   5.713   4.305   4.428 -0.8378 -0.7362  0.0939
  100MOL    H6627984   5.807   4.557   4.636 -0.8817 -0.9523  2.0968
  100MOL    H6727985   5.571   4.625   4.601  2.2055 -0.6027  1.8432
  100MOL    H6827986   5.340   4.378   4.421 -0.8817  1.6126 -0.2290
  100MOL    H6927987   5.353   4.663   4.540 -0.3480 -1.6257  2.4043
  100MOL    H7027988   5.521   4.260   4.363  0.7057 -2.3794  0.5848
  100MOL    H7127989   5.752   4.217   4.379  0.2483 -0.5892  0.6658
  100MOL    C7227990   5.169   4.592   4.463  0.4145  0.3406  0.7948
  100MOL    C7327991   5.081   4.684   4.528 -0.0859  0.2261 -0.8122
  100MOL    C7427992   4.947   4.687   4.498  0.1395  0.4867  0.0911
  100MOL    C7527993   4.882   4.603   4.407 -1.0575 -0.2110 -0.1818
  100MOL    C7627994   4.739   4.601   4.374  0.0112  0.0249 -0.0865
  100MOL    C7727995   4.645   4.685   4.418  0.0840 -0.6518  0.4981
  100MOL    C7827996   4.967   4.511   4.336 -0.1283  0.6495  0.5128
  100MOL    C7927997   5.107   4.506   4.366 -0.2500 -0.3316 -0.0987
  100MOL    H8027998   5.103   4.741   4.617 -0.3085 -1.5467  0.4049
  100MOL    H8127999   4.888   4.757   4.556  1.0719  0.7524  0.7278
  100MOL    H8228000   4.697   4.527   4.308  2.1483 -1.9046  0.6362
  100MOL    H8328001   4.670   4.765   4.486 -1.4041 -0.0781  0.3818
  100MOL    H8428002   4.930   4.439   4.264 -0.6542 -0.1868  1.6155
  100MOL    H8528003   5.175   4.439   4.317  0.5390 -0.0375  0.5878
  100MOL    C8628004   4.502   4.688   4.388  0.3950  0.5856 -0.7038
  100MOL    C8728005   4.429   4.806   4.384 -0.2451  0.2729  0.6082
  100MOL    C8828006   4.288   4.809   4.359  0.1438 -1.1106  0.4449
  100MOL    C8928007   4.216   4.684   4.351 -0.3748 -0.6385 -0.4700
  100MOL    C9028008   4.074   4.686   4.329 -0.1442 -0.4242 -0.2854
  100MOL    C9128009   3.981   4.609   4.392 -0.4898  0.3616  0.8366
  100MOL    C9228010   4.291   4.563   4.354 -0.8275  0.6295 -0.0298
  100MOL    C9328011   4.438   4.565   4.368  0.2600  0.0254  0.1038
  100MOL    H9428012   4.473   4.900   4.409 -0.0336  0.2872  0.1902
  100MOL    H9528013   4.237   4.903   4.350 -1.0419 -1.7180  0.6840
  100MOL    H9628014   4.038   4.764   4.263  0.4854  0.4081  0.3525
  100MOL    H9728015   4.022   4.538   4.461 -1.6996  1.5287  2.7967
  100MOL    H9828016   4.244   4.468   4.333  0.3402 -0.1103  0.6549
  100MOL    H9928017   4.500   4.477   4.372 -0.3425 -0.3752  0.6500
  100MOL   C10028018   3.833   4.612   4.371  0.3466 -0.0303  0.6025
  100MOL   C10128019   3.777   4.726   4.312  0.3026  0.4369  0.0804
  100MOL   C10228020   3.640   4.734   4.287  0.0410  0.8519  0.5836
  100MOL   C10328021   3.559   4.615   4.303 -0.1742  0.0783 -0.2201
  100MOL   C10428022   3.412   4.621   4.280  0.2311 -0.2284 -0.4466
  100MOL   C10528023   3.339   4.730   4.278  0.5219  0.0847 -0.2446
  100MOL   C10628024   3.621   4.504   4.357 -0.5082 -0.4329 -0.0244
  100MOL   C10728025   3.753   4.504   4.400 -0.7291  0.8537  0.2202
  100MOL   H10828026   3.838   4.813   4.292  0.5538  0.8588  2.4515
  100MOL   H10928027   3.589   4.812   4.233 -1.7756 -1.8922 -1.8776
  100MOL   H11028028   3.366   4.524   4.264  1.5347 -0.9272 -0.0298
  100MOL   H11128029   3.390   4.825   4.291  1.8039 -0.5746 -0.3468
  100MOL   H11228030   3.553   4.422   4.374 -0.0428 -1.3944 -2.5190
  100MOL   H11328031   3.798   4.415   4.442 -0.4130  0.9994  0.1920
  100MOL   C11428032   3.194   4.728   4.247 -0.0697  0.1685 -0.2462
  100MOL   C11528033   3.129   4.616   4.187 -0.2593 -0.0892  0.8982
  100MOL   C11628034   2.998   4.628   4.145  0.4268  0.1486  0.2565
  100MOL   C11728035   2.919   4.745   4.171 -0.6026 -0.6091 -0.2101
  100MOL   C11828036   2.776   4.750   4.126 -0.0825  0.8019 -0.1646
  100MOL   C11928037   2.692   4.853   4.138  0.1414 -0.3414  0.3616
  100MOL   C12028038   2.984   4.852   4.238  1.1440 -0.5897 -0.4629
  100MOL   C12128039   3.119   4.839   4.280  0.0116  0.0693 -0.8222
  100MOL   H12228040   3.181   4.526   4.157 -0.3748  0.4987 -1.1219
  100MOL   H12328041   2.959   4.548   4.084 -0.6153  1.4721 -0.8175
  100MOL   H12428042   2.755   4.654   4.081 -2.5188  1.2471 -0.0596
  100MOL   H12528043   2.731   4.941   4.188  0.8068 -0.8763  0.7939
  100MOL   H12628044   2.930   4.943   4.259  0.3592 -1.0390 -0.5271
  100MOL   H12728045   3.175   4.917   4.329  1.9656 -1.7368 -0.0715
  100MOL   C12828046   2.550   4.850   4.087 -0.5714 -0.1992  0.0447
  100MOL   C12928047   2.495   4.736   4.037  0.4459  0.3911 -0.4588
  100MOL   C13028048   2.364   4.737   3.989 -0.4844 -0.5535  0.1518
  100MOL   C13128049   2.288   4.850   3.980  0.2930 -0.5083  0.1195
  100MOL   C13228050   2.155   4.833   3.918 -0.1354  0.5026 -0.6197
  100MOL   C13328051   2.074   4.935   3.886  0.0865 -0.3132  0.2971
  100MOL   C13428052   2.342   4.968   4.027  0.7570  0.1896 -0.0098
  100MOL   C13528053   2.467   4.964   4.084  0.1054  0.1532  0.0300
  100MOL   H13628054   2.551   4.644   4.052  0.9325  0.4144 -1.9893
  100MOL   H13728055   2.325   4.643   3.955  2.3729 -1.7223 -0.0388
  100MOL   H13828056   2.133   4.731   3.892  3.7671 -1.5674  3.4883
  100MOL   H13928057   2.097   5.032   3.927 -0.6237 -0.0667  0.1362
  100MOL   H14028058   2.283   5.059   4.023 -1.0670 -1.0556 -2.6904
  100MOL   H14128059   2.513   5.054   4.123 -0.8857  1.1314 -1.0364
  100MOL   C14228060   1.954   4.931   3.796  0.0741  0.3241 -0.1811
  100MOL   C14328061   1.860   5.041   3.790  0.0208  0.8685 -0.4273
  100MOL   C14428062   1.743   5.035   3.714 -0.3728 -0.6788 -0.4476
  100MOL   C14528063   1.717   4.912   3.642 -0.0316 -0.5881 -0.1091
  100MOL   C14628064   1.604   4.905   3.558 -0.3901  0.3717 -0.1668
  100MOL   C14728065   1.507   4.994   3.536 -0.3570 -0.4456  1.1155
  100MOL   C14828066   1.806   4.807   3.649 -0.2033 -0.0203 -0.8100
  100MOL   C14928067   1.925   4.817   3.721 -0.5009  0.0312  0.4775
  100MOL   H15028068   1.864   5.127   3.854  1.8889  0.8994 -0.5470
  100MOL   H15128069   1.670   5.114   3.720 -0.3001 -0.5609 -1.0718
  100MOL   H15228070   1.590   4.812   3.504  0.4163  0.4466 -0.5076
  100MOL   H15328071   1.516   5.087   3.590 -3.5749  0.5969 -0.0434
  100MOL   H15428072   1.779   4.716   3.597 -2.0772 -0.0661  0.1812
  100MOL   H15528073   1.992   4.733   3.721  1.3381  1.4478  0.4127
  100MOL   C15628074   1.404   4.982   3.429  0.4415  0.7804 -0.4081
  100MOL   C15728075   1.327   5.095   3.416  0.3220  0.2396 -0.3962
  100MOL   C15828076   1.223   5.096   3.323 -0.0963 -0.0259 -0.0561
  100MOL   C15928077   1.202   4.983   3.243 -0.0584 -0.0121 -0.6484
  100MOL   C16028078   1.093   5.003   3.155 -0.5138 -0.2550 -0.3889
  100MOL   C16128079   1.017   4.910   3.094  0.5372  0.2995 -1.0919
  100MOL   C16228080   1.276   4.866   3.253 -0.2788  0.3312 -0.5406
  100MOL   C16328081   1.378   4.865   3.352  0.4683  0.4477 -0.1278
  100MOL   H16428082   1.343   5.182   3.478  0.7668  0.3579 -0.6784
  100MOL   H16528083   1.176   5.193   3.317  1.7456  0.8821 -0.0967
  100MOL   H16628084   1.072   5.108   3.140  1.4220 -0.1745 -2.6796
  100MOL   H16728085   1.037   4.808   3.126  1.1611  1.5564  2.7800
  100MOL   H16828086   1.252   4.778   3.196 -2.5306 -0.3863  1.4371
  100MOL   H16928087   1.436   4.774   3.366  0.7762  0.5416 -0.7763
  100MOL   C17028088   0.910   4.933   2.999 -0.6822 -0.1251  0.0816
  100MOL   C17128089   0.862   4.824   2.928 -0.0083 -0.8074 -0.2693
  100MOL   C17228090   0.748   4.840   2.849 -0.2532  0.5936 -0.3149
  100MOL   C17328091   0.697   4.966   2.819  0.5801  0.0830 -0.0997
  100MOL   C17428092   0.594   4.984   2.717 -0.7330 -0.6208 -0.1115
  100MOL   C17528093   0.579   4.908   2.606  0.4153 -0.3201  0.1952
  100MOL   C17628094   0.754   5.078   2.876 -0.5753 -0.3533 -0.0916
  100MOL   C17728095   0.863   5.060   2.968  0.2584  0.4623  0.1223
  100MOL   H17828096   0.898   4.724   2.947  0.0689 -1.2122 -2.3681
  100MOL   H17928097   0.701   4.756   2.800 -0.8575  0.5663  0.3243
  100MOL   H18028098   0.510   5.050   2.735 -2.3236 -2.0927 -1.9452
  100MOL   H18128099   0.639   4.820   2.596  0.0610 -0.6651  1.0514
  100MOL   H18228100   0.708   5.175   2.861  0.3117  0.2664  1.0414
  100MOL   H18328101   0.904   5.143   3.024 -1.1360  1.5283 -0.4109
  100MOL   C18428102   0.472   4.921   2.504  0.1865  0.2662 -1.1510
  100MOL   C18528103   0.495   4.849   2.387 -0.0530  0.0363 -0.2460
  100MOL   C18628104   0.394   4.843   2.284  0.2571 -0.0826  0.6247
  100MOL   C18728105   0.280   4.924   2.288  0.5171  0.2994 -0.0397
  100MOL   C18828106   0.168   4.926   2.187 -0.0243 -0.0579 -0.0542
  100MOL   C18928107   0.166   4.848   2.081  0.1730  0.4439  0.4964
  100MOL   C19028108   0.269   5.013   2.403 -0.1845  0.2523  0.0064
  100MOL   C19128109   0.367   5.009   2.508 -0.3708  0.2170  0.3770
  100MOL   H19228110   0.569   4.771   2.380 -2.3782 -2.4158  1.2465
  100MOL   H19328111   0.402   4.760   2.216  0.5531 -1.1469  1.9298
  100MOL   H19428112   0.091   5.001   2.195 -0.0656  0.1200 -1.9436
  100MOL   H19528113   0.243   4.773   2.067 -0.2790 -0.0663  0.7377
  100MOL   H19628114   0.183   5.078   2.415 -0.5605 -0.2624  0.1104
  100MOL   H19728115   0.353   5.064   2.600 -1.1051  0.4082  0.1554
  100MOL   C19828116   0.055   4.849   1.981 -0.6130  0.1860  0.3115
  100MOL   C19928117   0.088   4.831   1.845 -0.1328 -0.0035 -0.2740
  100MOL   C20028118   8.128   4.843   1.745 -0.1112  0.0097  0.0213
  100MOL   C20128119   7.996   4.860   1.784 -0.1191  0.1838 -0.5877
  100MOL   C20228120   7.892   4.878   1.682 -0.0304 -0.1173 -0.5541
  100MOL   C20328121   7.757   4.886   1.697 -0.3529  0.1943  0.4020
  100MOL   C20428122   7.967   4.866   1.924 -0.3116 -0.5151 -0.0374
  100MOL   C20528123   8.067   4.871   2.019  0.6216 -0.0803  0.5284
  100MOL   H20628124   0.190   4.824   1.810  0.0158 -0.4272  0.2490
  100MOL   H20728125   0.012   4.851   1.641 -1.2390  2.3485 -0.1317
  100MOL   H20828126   7.932   4.886   1.582 -0.3407  1.6701 -0.5451
  100MOL   H20928127   7.714   4.875   1.795 -1.6435 -1.4142 -0.3279
  100MOL   H21028128   7.867   4.863   1.965  1.2295  1.3222  4.1198
  100MOL   H21128129   8.036   4.884   2.122  0.7054 -2.3651  0.8761
  100MOL   C21228130   7.671   4.913   1.581 -0.1074 -0.0436  0.0371
  100MOL   C21328131   7.707   4.881   1.448 -0.1137  0.0478  0.6439
  100MOL   C21428132   7.625   4.933   1.342  0.7071 -0.5574  0.3664
  100MOL   C21528133   7.510   5.009   1.370 -0.2410  0.2079 -0.2528
  100MOL   C21628134   7.439   5.071   1.255 -0.4480 -0.2757  0.7555
  100MOL   C21728135   7.324   5.137   1.252  0.2254 -0.6083  0.3415
  100MOL   C21828136   7.482   5.051   1.498 -0.4824 -0.2666 -0.1985
  100MOL   C21928137   7.565   5.007   1.599  0.1228  0.4109  0.5582
  100MOL   H22028138   7.792   4.821   1.418  0.7584  2.4742 -1.8968
  100MOL   H22128139   7.650   4.901   1.242  2.7123 -3.5166  1.7493
  100MOL   H22228140   7.486   5.049   1.161 -1.0722 -0.3423  0.4544
  100MOL   H22328141   7.278   5.161   1.347  0.4742  1.4821 -0.0486
  100MOL   H22428142   7.404   5.124   1.513  0.2492  0.3391  0.7407
  100MOL   H22528143   7.535   5.029   1.701 -1.8986 -1.1218  0.3260
  100MOL   C22628144   7.247   5.172   1.138  0.7294  0.1598  0.3722
  100MOL   C22728145   7.292   5.149   1.005  0.2530  0.1878 -0.2429
  100MOL   C22828146   7.224   5.191   0.888 -0.5673  0.0398  0.1553
  100MOL   C22928147   7.105   5.266   0.903  0.5446 -0.2883  0.4766
  100MOL   C23028148   7.043   5.325   0.781 -0.7614  0.0633 -0.3219
  100MOL   C23128149   7.105   5.345   0.663 -0.3989 -0.4235  0.2022
  100MOL   C23228150   7.045   5.282   1.032 -0.7976  0.2695 -0.4569
  100MOL   C23328151   7.116   5.226   1.148 -0.3338  0.0848  0.3733
  100MOL   H23428152   7.385   5.098   0.983  0.2379  0.1473 -0.2136
  100MOL   H23528153   7.264   5.157   0.794 -1.1339  1.0748 -0.4710
  100MOL   H23628154   6.940   5.354   0.799  0.1021  2.3637  1.2497
  100MOL   H23728155   7.208   5.313   0.662 -0.0808  0.4819  2.0957
  100MOL   H23828156   6.958   5.343   1.051 -0.1730  1.5676 -1.6610
  100MOL   H23928157   7.071   5.244   1.245 -0.8129 -1.4816  0.4591
  100MOL   C24028158   7.044   5.412   0.547  0.8915 -0.3822  0.1360
  100MOL   C24128159   7.130   5.455   0.443  0.3769 -0.6849 -0.1368
  100MOL   C24228160   7.087   5.523   0.322 -0.0777 -0.1372  0.7132
  100MOL   C24328161   6.951   5.551   0.310 -0.2189 -0.4486  0.2323
  100MOL   C24428162   6.893   5.617   0.192 -0.0234  0.1248  0.2633
  100MOL   C24528163   6.963   5.646   0.081  0.3798 -0.3647 -0.6085
  100MOL   C24628164   6.862   5.502   0.405 -0.0120  0.5226 -0.4299
  100MOL   C24728165   6.907   5.438   0.526 -0.1345 -0.2322  0.0005
  100MOL   H24828166   7.233   5.432   0.464  0.6350  1.3327  0.8681
  100MOL   H24928167   7.166   5.558   0.257  1.0747 -1.0243  1.5958
  100MOL   H25028168   6.787   5.639   0.200 -0.3884 -0.9723 -1.3436
  100MOL   H25128169   7.068   5.622   0.081  0.8758  1.6734 -0.8772
  100MOL   H25228170   6.755   5.513   0.397  0.2143  2.2990 -1.1869
  100MOL   H25328171   6.838   5.402   0.601 -0.8692 -0.3324 -0.7242
  100MOL   C25428172   6.904   5.721   8.113 -0.3047  0.4181 -0.2003
  100MOL   C25528173   6.779   5.783   8.117 -0.0583  0.0859  0.3249
  100MOL   C25628174   6.739   5.863   8.014 -0.1431 -0.3544 -0.1144
  100MOL   C25728175   6.818   5.863   7.896  0.3105  0.2646  0.5481
  100MOL   C25828176   6.750   5.920   7.777  0.3224  0.0123  0.3252
  100MOL   C25928177   6.736   5.859   7.659 -0.5584 -0.5559  0.1866
  100MOL   C26028178   6.943   5.801   7.878  0.2255 -0.0248  0.1186
  100MOL   C26128179   6.985   5.729   7.993 -0.2304 -0.3552  0.0083
  100MOL   H26228180   6.725   5.793   0.066 -0.7382  2.8668 -0.3419
  100MOL   H26328181   6.645   5.917   8.022  0.5508  0.8648 -0.0088
  100MOL   H26428182   6.723   6.025   7.785  0.3621  0.0474  0.0051
  100MOL   H26528183   6.695   5.917   7.577 -4.0057  0.1794  2.3299
  100MOL   H26628184   6.996   5.821   7.786 -1.1923  2.6214 -0.1940
  100MOL   H26728185   7.085   5.690   7.985  0.2965  1.2665 -1.6997
  100MOL   C26828186   6.775   5.720   7.630  1.0947 -0.2023  0.6828
  100MOL   C26928187   6.714   5.608   7.697 -0.3251  0.3654 -0.4102
  100MOL   C27028188   6.736   5.475   7.657 -0.8182  0.2935 -0.4148
  100MOL   C27128189   6.835   5.454   7.561  0.2526 -0.1199  0.0932
  100MOL   C27228190   6.858   5.315   7.513  0.6261 -0.5836 -0.2896
  100MOL   C27328191   6.910   5.281   7.391 -0.3003  0.0141  0.0711
  100MOL   C27428192   6.903   5.565   7.497 -0.5089  0.1385 -0.2624
  100MOL   C27528193   6.866   5.696   7.530 -0.2692  0.4711  0.0546
  100MOL   H27628194   6.630   5.614   7.765 -0.5183 -0.9394 -0.5089
  100MOL   H27728195   6.687   5.396   7.711  0.4697  1.0131  1.8989
  100MOL   H27828196   6.837   5.235   7.581  0.6615 -0.1950  0.1803
  100MOL   H27928197   6.930   5.347   7.307 -1.3322 -2.2849 -2.0463
  100MOL   H28028198   6.975   5.555   7.417 -1.4797  1.6049 -1.3296
  100MOL   H28128199   6.903   5.783   7.478 -3.4212  1.6857 -0.2448
  100MOL   H28228200   6.924   5.176   7.370 -0.5418  0.0476 -0.2783
  101MOL     C128201   4.706   6.318   2.872  0.0224 -0.3407  0.1885
  101MOL     C228202   4.773   6.239   2.968  0.3346  0.7672  0.3409
  101MOL     C328203   4.901   6.182   2.940  0.4244  0.6871 -0.3953
  101MOL     C428204   4.961   6.205   2.816  0.3127  0.3340  0.2892
  101MOL     C528205   5.095   6.153   2.794  0.0137  0.0882 -0.3955
  101MOL     C628206   5.171   6.082   2.880 -0.0481  0.2961 -0.2013
  101MOL     C728207   4.897   6.291   2.721  0.5566  0.3092  0.1187
  101MOL     C828208   4.774   6.348   2.751 -0.1475  0.0135  0.7544
  101MOL     H928209   4.727   6.220   3.064 -0.6127  0.0894 -0.2394
  101MOL    H1028210   4.947   6.123   3.018 -1.9372 -2.5575 -1.3539
  101MOL    H1128211   5.138   6.177   2.698  1.0727  1.3457  0.3795
  101MOL    H1228212   5.134   6.071   2.980  1.4361  0.9546  0.4326
  101MOL    H1328213   4.950   6.307   2.628  0.4288  0.0563  0.0022
  101MOL    H1428214   4.727   6.403   2.671 -1.5755  1.0816  2.2936
  101MOL    H1528215   4.609   6.357   2.896  1.9675  2.8965  3.2638
  101MOL    C1628216   5.302   6.020   2.843 -0.0639  0.3856 -0.3341
  101MOL    C1728217   5.376   6.032   2.723 -0.4595  0.1885  0.2368
  101MOL    C1828218   5.497   5.976   2.699 -0.5648  0.5302 -0.0616
  101MOL    C1928219   5.569   5.918   2.809 -0.3837 -0.1827  0.7550
  101MOL    C2028220   5.707   5.866   2.790  0.0603  0.3919  0.3729
  101MOL    C2128221   5.761   5.775   2.876  0.2500  0.0682  0.1055
  101MOL    C2228222   5.500   5.903   2.927 -0.0228  0.5602  0.0346
  101MOL    C2328223   5.370   5.947   2.944  0.3690  0.8067 -0.6596
  101MOL    H2428224   5.328   6.082   2.641  0.9416  0.7083 -0.2772
  101MOL    H2528225   5.522   5.980   2.594  0.2948  0.5524  0.1413
  101MOL    H2628226   5.756   5.911   2.705 -1.4902  2.5562  0.6024
  101MOL    H2728227   5.703   5.729   2.955  0.6393  1.1962  1.0591
  101MOL    H2828228   5.545   5.863   3.017 -0.7854 -2.0356 -0.6941
  101MOL    H2928229   5.321   5.928   3.038  1.7724  1.2772  0.1839
  101MOL    C3028230   5.897   5.728   2.873 -0.2030  0.2611  0.3791
  101MOL    C3128231   5.992   5.782   2.782  0.1332  0.2075  0.0629
  101MOL    C3228232   6.128   5.741   2.790 -0.2364 -0.2571  0.4783
  101MOL    C3328233   6.170   5.646   2.886 -0.5872 -0.5590 -1.1518
  101MOL    C3428234   6.314   5.614   2.901 -0.7761  0.1746 -0.5779
  101MOL    C3528235   6.353   5.519   2.985 -0.3806 -0.5286  0.4895
  101MOL    C3628236   6.070   5.592   2.972  0.0730  0.3290  0.3478
  101MOL    C3728237   5.938   5.633   2.967 -0.7164 -0.0556 -0.0861
  101MOL    H3828238   5.960   5.860   2.716  2.0018  1.3852  0.5008
  101MOL    H3928239   6.210   5.789   2.738  1.0459 -3.1711 -0.2471
  101MOL    H4028240   6.389   5.670   2.848 -0.0285  0.3381  0.6420
  101MOL    H4128241   6.276   5.462   3.036 -0.5025  0.0931  1.0080
  101MOL    H4228242   6.092   5.521   3.051  1.1477  2.5908  2.1103
  101MOL    H4328243   5.876   5.588   3.043 -0.1993 -1.5220 -0.5087
  101MOL    C4428244   6.490   5.464   3.006  1.0261  0.1400 -0.0035
  101MOL    C4528245   6.601   5.507   2.929  0.8547  0.4643  0.4616
  101MOL    C4628246   6.728   5.454   2.957  0.5274 -0.0529 -0.8650
  101MOL    C4728247   6.743   5.348   3.050 -0.0747  0.6949  0.3213
  101MOL    C4828248   6.880   5.307   3.078  0.0059  0.2366 -0.1983
  101MOL    C4928249   6.921   5.227   3.180  0.0480 -1.0186  0.1948
  101MOL    C5028250   6.628   5.297   3.117  0.2657 -0.1416 -0.1025
  101MOL    C5128251   6.504   5.358   3.094 -0.0959  0.3586 -0.4636
  101MOL    H5228252   6.583   5.574   2.846  0.2481  1.5575  1.4419
  101MOL    H5328253   6.814   5.501   2.911  1.0190  1.5794  1.6065
  101MOL    H5428254   6.954   5.342   3.007  1.8704 -1.8000  0.6847
  101MOL    H5528255   6.851   5.216   3.262 -0.4570 -0.3194 -0.1432
  101MOL    H5628256   6.636   5.214   3.186  1.7906 -0.7021 -0.9253
  101MOL    H5728257   6.422   5.314   3.150  0.5479 -0.8125 -0.4212
  101MOL    C5828258   7.036   5.144   3.190  0.0661  0.4032  0.4476
  101MOL    C5928259   7.064   5.074   3.316 -0.5494  0.7441  0.0582
  101MOL    C6028260   7.178   4.996   3.332 -0.2235 -0.2119 -0.1093
  101MOL    C6128261   7.270   4.998   3.221  0.2866 -0.3038 -0.3478
  101MOL    C6228262   7.401   4.936   3.240 -0.5612  0.0143  0.3470
  101MOL    C6328263   7.464   4.910   3.356  0.3155 -0.1389  0.3972
  101MOL    C6428264   7.246   5.066   3.101  0.2873 -0.5573  0.6633
  101MOL    C6528265   7.124   5.141   3.082 -0.1344 -0.1433  0.1014
  101MOL    H6628266   6.999   5.079   3.402  1.6969 -2.4641  2.0537
  101MOL    H6728267   7.201   4.942   3.422  3.7489  0.9874 -0.3298
  101MOL    H6828268   7.454   4.922   3.146  0.5293  0.6585  0.8623
  101MOL    H6928269   7.423   4.937   3.453  2.5225 -1.3320  1.7143
  101MOL    H7028270   7.323   5.059   3.026 -1.6659 -2.2707 -1.2213
  101MOL    H7128271   7.112   5.197   2.991  0.0489  1.0927  0.8257
  101MOL    C7228272   7.596   4.855   3.362  0.0841 -0.5253  0.4155
  101MOL    C7328273   7.661   4.786   3.253 -0.0767 -0.2806 -0.0997
  101MOL    C7428274   7.796   4.753   3.260  0.0827 -0.2112  0.4341
  101MOL    C7528275   7.870   4.771   3.378  0.0301  0.7052 -0.4903
  101MOL    C7628276   8.004   4.723   3.399 -0.0921  0.1795 -0.0884
  101MOL    C7728277   8.090   4.666   3.315 -0.4746 -0.0361 -0.6547
  101MOL    C7828278   7.813   4.847   3.484  0.1688  0.0542  0.1447
  101MOL    C7928279   7.681   4.885   3.475 -0.1901 -0.3946  0.7325
  101MOL    H8028280   7.611   4.780   3.157  0.4554  2.1155 -0.5737
  101MOL    H8128281   7.833   4.709   3.168  1.1959 -1.0842  1.2994
  101MOL    H8228282   8.047   4.719   3.497 -0.9754 -3.5450  0.2068
  101MOL    H8328283   8.068   4.665   3.209 -1.0115 -1.3690 -0.5466
  101MOL    H8428284   7.869   4.878   3.571 -1.6080  1.5807  0.7742
  101MOL    H8528285   7.628   4.936   3.554  0.9866  1.8150  0.1248
  101MOL    C8628286   0.083   4.624   3.355 -0.3660 -0.0228 -0.2779
  101MOL    C8728287   0.141   4.508   3.303 -1.3066  0.3619 -0.1517
  101MOL    C8828288   0.270   4.463   3.346  0.1902 -0.4919 -0.1718
  101MOL    C8928289   0.344   4.543   3.434 -0.6562  0.2577 -0.5706
  101MOL    C9028290   0.481   4.505   3.468 -1.0459  0.0053  0.0292
  101MOL    C9128291   0.561   4.566   3.558  0.6468 -0.5404 -0.2940
  101MOL    C9228292   0.278   4.654   3.490  0.1228 -0.2251  0.1386
  101MOL    C9328293   0.150   4.689   3.457 -0.0575 -0.1929 -0.0060
  101MOL    H9428294   0.095   4.439   3.234 -0.6988 -0.4191  0.2206
  101MOL    H9528295   0.308   4.374   3.298  2.0062  0.5269 -0.6571
  101MOL    H9628296   0.520   4.417   3.418 -1.4576  0.2023 -0.6417
  101MOL    H9728297   0.528   4.658   3.603  0.6103 -1.2443  1.1504
  101MOL    H9828298   0.339   4.701   3.566  2.0126 -2.5326  0.1026
  101MOL    H9928299   0.092   4.765   3.507 -0.9495 -0.9513  0.1160
  101MOL   C10028300   0.687   4.524   3.617  0.0890 -0.7225  0.6328
  101MOL   C10128301   0.749   4.600   3.723 -0.7871  0.2617 -0.4750
  101MOL   C10228302   0.857   4.542   3.787 -0.4333  0.8522  0.0344
  101MOL   C10328303   0.912   4.415   3.754 -0.5540 -0.5573 -0.0203
  101MOL   C10428304   1.003   4.348   3.848 -0.1690  0.2137 -0.4107
  101MOL   C10528305   1.077   4.243   3.820  0.0973  0.1707  0.2641
  101MOL   C10628306   0.852   4.347   3.644  0.2569  0.5658  0.1951
  101MOL   C10728307   0.747   4.400   3.575  0.8143 -0.0840  0.4926
  101MOL   H10828308   0.702   4.693   3.750  0.2668  0.5723  0.3386
  101MOL   H10928309   0.903   4.607   3.860  1.2217  2.3563 -2.3009
  101MOL   H11028310   1.010   4.392   3.946  3.7652 -2.2507  0.5502
  101MOL   H11128311   1.081   4.211   3.716  0.6026 -0.6784  0.5407
  101MOL   H11228312   0.891   4.249   3.618 -0.2393  1.0966 -2.6528
  101MOL   H11328313   0.687   4.337   3.511  1.6322  0.4234 -0.7797
  101MOL   C11428314   1.147   4.160   3.923 -0.3778  0.0924  0.2144
  101MOL   C11528315   1.208   4.038   3.891 -0.1515  0.2917 -0.6168
  101MOL   C11628316   1.235   3.942   3.989  0.0924 -0.0617 -0.0107
  101MOL   C11728317   1.186   3.969   4.125  0.1802  0.4553 -0.2191
  101MOL   C11828318   1.144   3.857   4.216 -0.1163 -0.1715  0.0140
  101MOL   C11928319   1.130   3.733   4.173  0.4461 -0.0607 -0.1172
  101MOL   C12028320   1.153   4.099   4.163 -0.1180  0.6174  0.2815
  101MOL   C12128321   1.128   4.195   4.059 -0.2033 -0.6477  0.8286
  101MOL   H12228322   1.222   4.015   3.786  0.8758  1.2085 -0.6874
  101MOL   H12328323   1.265   3.842   3.964  0.8640  0.3045 -0.5637
  101MOL   H12428324   1.121   3.883   4.319 -2.8185 -2.0558 -0.0806
  101MOL   H12528325   1.158   3.699   4.075  0.6699  1.4293 -0.5900
  101MOL   H12628326   1.129   4.114   4.267 -0.0743 -1.6686  0.6662
  101MOL   H12728327   1.082   4.288   4.093  0.7703  0.5211 -1.0090
  101MOL   C12828328   1.061   3.630   4.249 -0.0116  0.4247 -0.1982
  101MOL   C12928329   1.061   3.501   4.185  0.0023 -0.9229 -0.0529
  101MOL   C13028330   0.980   3.397   4.236 -0.7365 -1.0751 -0.3792
  101MOL   C13128331   0.879   3.435   4.328 -0.3353 -1.0178 -0.1052
  101MOL   C13228332   0.767   3.340   4.346  0.4773 -1.0546  0.0824
  101MOL   C13328333   0.661   3.368   4.421  0.0362  0.2749  0.4108
  101MOL   C13428334   0.885   3.559   4.399 -0.3006 -0.0503 -0.2689
  101MOL   C13528335   0.980   3.657   4.361  0.5144  0.2964 -0.5436
  101MOL   H13628336   1.123   3.487   4.098 -0.2382 -1.1093 -0.1942
  101MOL   H13728337   0.969   3.302   4.186  1.5339 -0.3685 -2.3206
  101MOL   H13828338   0.770   3.246   4.291 -0.7558  0.1252 -2.0864
  101MOL   H13928339   0.655   3.460   4.478 -1.5330  0.9598 -0.8240
  101MOL   H14028340   0.815   3.576   4.479 -0.5525  2.0715 -0.9174
  101MOL   H14128341   0.967   3.754   4.407  1.5555 -0.4596  1.3613
  101MOL   C14228342   0.539   3.284   4.417 -0.1595  0.8521  0.3026
  101MOL   C14328343   0.449   3.278   4.527 -0.2585 -0.2509  0.3479
  101MOL   C14428344   0.334   3.196   4.529  0.5126 -1.1140  0.8273
  101MOL   C14528345   0.315   3.112   4.417 -0.7876  0.1488 -0.2529
  101MOL   C14628346   0.193   3.038   4.400 -0.1825  0.0175 -0.0366
  101MOL   C14728347   0.157   2.923   4.466  0.4222 -1.0182 -0.2736
  101MOL   C14828348   0.401   3.115   4.305 -0.1692  0.3165  0.3825
  101MOL   C14928349   0.519   3.195   4.309 -0.1681  0.1966  0.7878
  101MOL   H15028350   0.478   3.341   4.610  2.8502 -1.2250  0.0587
  101MOL   H15128351   0.266   3.200   4.613  0.4037 -1.0646  0.7355
  101MOL   H15228352   0.132   3.092   4.329 -2.5184  0.3935  2.2011
  101MOL   H15328353   0.222   2.878   4.540  0.9051 -0.9441 -0.6557
  101MOL   H15428354   0.380   3.052   4.219  1.3228 -0.4519  0.5724
  101MOL   H15528355   0.586   3.199   4.225 -1.0722  0.1292  0.0558
  101MOL   C15628356   0.034   2.855   4.442 -0.1847  0.1414 -0.3584
  101MOL   C15728357   8.075   2.892   4.355  0.5156  0.3644 -0.6826
  101MOL   C15828358   7.956   2.816   4.343 -0.4126 -1.0263  0.0842
  101MOL   C15928359   7.936   2.703   4.420  0.0954 -0.3950 -0.2188
  101MOL   C16028360   7.806   2.633   4.412  0.6121 -0.2995 -0.7186
  101MOL   C16128361   7.696   2.657   4.337  0.0484 -0.3775 -0.5184
  101MOL   C16228362   8.036   2.668   4.516  0.8132  0.2535 -0.6623
  101MOL   C16328363   0.012   2.737   4.528 -0.2654 -0.9112 -0.0342
  101MOL   H16428364   8.085   2.975   4.287 -1.9694  0.7687 -0.5855
  101MOL   H16528365   7.896   2.838   4.256 -1.3121  1.2119  1.2393
  101MOL   H16628366   7.818   2.554   4.485  0.0845 -0.6485 -1.0150
  101MOL   H16728367   7.708   2.741   4.271 -0.7474  0.8177  0.8231
  101MOL   H16828368   8.013   2.585   4.581  0.3650 -0.3616 -1.5944
  101MOL   H16928369   0.093   2.719   4.597  1.6218  1.8368 -1.4576
  101MOL   C17028370   7.582   2.579   4.326 -0.0672  0.2860 -0.5238
  101MOL   C17128371   7.543   2.472   4.411  0.2358  0.3589 -0.5621
  101MOL   C17228372   7.414   2.423   4.401  0.1781  0.7037 -0.4795
  101MOL   C17328373   7.316   2.473   4.315  0.1592  0.1877  0.8437
  101MOL   C17428374   7.173   2.424   4.312  0.6276 -0.1570  0.6570
  101MOL   C17528375   7.098   2.401   4.422 -0.1844  0.0808 -0.2347
  101MOL   C17628376   7.354   2.577   4.224  0.0939 -0.4437 -0.6520
  101MOL   C17728377   7.486   2.626   4.235  0.1247 -0.2576  0.4708
  101MOL   H17828378   7.609   2.434   4.488 -1.6961  0.3092  1.0995
  101MOL   H17928379   7.378   2.341   4.462 -0.5504  0.0299 -1.7997
  101MOL   H18028380   7.132   2.405   4.214  0.3542  1.2317  0.4897
  101MOL   H18128381   7.141   2.427   4.518  0.1373  1.4622 -0.7459
  101MOL   H18228382   7.277   2.619   4.161  1.4232  0.3897 -1.7544
  101MOL   H18328383   7.505   2.717   4.179 -0.4119 -0.7694 -0.5607
  101MOL   C18428384   6.961   2.353   4.414 -0.2671 -0.1358  0.1387
  101MOL   C18528385   6.879   2.374   4.533 -1.0283  1.0342 -0.1176
  101MOL   C18628386   6.744   2.353   4.529 -0.2918  0.0074  0.1785
  101MOL   C18728387   6.681   2.312   4.407  0.2078 -0.4806 -0.1422
  101MOL   C18828388   6.533   2.298   4.410 -0.5027  0.4746 -0.3815
  101MOL   C18928389   6.456   2.244   4.309 -0.2000 -0.0453 -0.2492
  101MOL   C19028390   6.757   2.290   4.290 -0.3009  0.1981  0.4299
  101MOL   C19128391   6.897   2.305   4.293 -1.0458 -0.0146  0.3388
  101MOL   H19228392   6.921   2.428   4.617  1.9728 -0.6393 -0.4974
  101MOL   H19328393   6.682   2.379   4.614  2.8127  0.7979  2.2489
  101MOL   H19428394   6.485   2.337   4.498 -1.8603  1.4698 -1.5204
  101MOL   H19528395   6.505   2.206   4.221 -1.2076 -0.0467 -0.8136
  101MOL   H19628396   6.706   2.277   4.196  1.1253  2.3361 -0.6771
  101MOL   H19728397   6.941   2.291   4.196  0.6959  1.8173  0.8145
  101MOL   C19828398   6.307   2.230   4.303  0.0752  0.3938  0.1263
  101MOL   C19928399   6.228   2.275   4.410  0.6047  0.4641 -0.1043
  101MOL   C20028400   6.085   2.257   4.408 -0.2891 -0.3256 -0.3558
  101MOL   C20128401   6.022   2.182   4.312 -0.0448 -0.0177 -0.3016
  101MOL   C20228402   5.876   2.145   4.324  0.1810 -0.3023  0.2597
  101MOL   C20328403   5.794   2.103   4.228 -0.2713  1.3241  0.2963
  101MOL   C20428404   6.099   2.142   4.200  0.6591  0.5949 -0.3636
  101MOL   C20528405   6.238   2.167   4.195  0.0142 -0.2840  0.8850
  101MOL   H20628406   6.269   2.318   4.500 -0.5899 -0.6172  0.9864
  101MOL   H20728407   6.025   2.293   4.491 -1.4086 -0.4087 -1.1171
  101MOL   H20828408   5.836   2.163   4.422  2.5645  0.4128  1.1417
  101MOL   H20928409   5.835   2.082   4.130  0.4858 -0.4147  0.9792
  101MOL   H21028410   6.056   2.094   4.113 -0.8173  4.6482 -2.0092
  101MOL   H21128411   6.294   2.129   4.111  1.2987  0.1199  1.5432
  101MOL   C21228412   5.645   2.079   4.243  0.1837 -1.2032  0.0384
  101MOL   C21328413   5.569   2.068   4.127  0.7293  0.3453  0.2496
  101MOL   C21428414   5.437   2.031   4.135 -0.1983 -0.5327 -0.1736
  101MOL   C21528415   5.371   2.029   4.260  0.4571  0.2846 -1.2219
  101MOL   C21628416   5.231   1.984   4.278  0.8646 -0.0636  1.1160
  101MOL   C21728417   5.145   1.950   4.178  0.4905  0.2750  0.1473
  101MOL   C21828418   5.443   2.053   4.380  0.3770 -0.1021  0.4941
  101MOL   C21928419   5.584   2.078   4.373  0.7238 -0.2663 -0.0207
  101MOL   H22028420   5.615   2.079   4.030 -1.2145  0.4884 -0.6803
  101MOL   H22128421   5.392   2.005   4.041 -2.4135 -2.1642  1.2921
  101MOL   H22228422   5.200   1.980   4.382 -0.3291  3.7281  0.9971
  101MOL   H22328423   5.180   1.938   4.077  2.2252 -0.7257  0.8412
  101MOL   H22428424   5.391   2.065   4.473 -0.2112  0.6707  0.0776
  101MOL   H22528425   5.632   2.107   4.465  0.3184 -0.7119  0.3334
  101MOL   C22628426   5.003   1.902   4.192 -0.0299 -0.2716  0.2826
  101MOL   C22728427   4.937   1.887   4.314 -0.0655  0.0829 -0.3489
  101MOL   C22828428   4.802   1.849   4.331 -0.4874  0.1906 -0.6463
  101MOL   C22928429   4.727   1.830   4.215 -0.1547  0.6326 -0.6967
  101MOL   C23028430   4.585   1.796   4.211 -0.0098  0.3752 -0.6079
  101MOL   C23128431   4.510   1.767   4.324 -0.0888 -0.8068  0.2067
  101MOL   C23228432   4.788   1.846   4.089  0.7336 -0.2736  0.7060
  101MOL   C23328433   4.924   1.884   4.078  0.1625 -1.0485  0.3961
  101MOL   H23428434   4.992   1.899   4.407  0.6572 -0.4209 -0.7017
  101MOL   H23528435   4.760   1.817   4.425 -1.8443  0.0814 -1.2816
  101MOL   H23628436   4.533   1.791   4.117 -2.2160  1.2137  0.5242
  101MOL   H23728437   4.558   1.779   4.419 -0.2091  0.5956  0.0928
  101MOL   H23828438   4.735   1.838   3.996 -0.1411 -1.7823  1.3098
  101MOL   H23928439   4.974   1.901   3.983  0.6988 -0.5305  0.7654
  101MOL   C24028440   4.370   1.712   4.331 -0.7548 -0.7905  1.1507
  101MOL   C24128441   4.325   1.657   4.455 -0.6773 -0.2950  0.5189
  101MOL   C24228442   4.203   1.596   4.461  1.0930  0.0452 -0.2415
  101MOL   C24328443   4.117   1.593   4.352 -0.0128  0.1082 -0.4192
  101MOL   C24428444   3.991   1.530   4.360 -0.1525 -0.5608 -0.1936
  101MOL   C24528445   3.943   1.474   4.250 -0.2002 -0.6284 -0.2904
  101MOL   C24628446   4.157   1.662   4.237  0.2896 -0.0649  0.2544
  101MOL   C24728447   4.281   1.715   4.220 -0.2562 -0.2095 -0.4412
  101MOL   H24828448   4.385   1.659   4.546 -0.5495 -1.1847  0.4590
  101MOL   H24928449   4.167   1.543   4.548 -0.9075  2.9719  0.8038
  101MOL   H25028450   3.940   1.532   4.455  0.7808 -1.2511  0.3221
  101MOL   H25128451   3.998   1.461   4.158 -2.8006 -2.2618 -1.6918
  101MOL   H25228452   4.086   1.669   4.157 -1.4641  0.4706  1.8302
  101MOL   H25328453   4.317   1.757   4.127 -0.6588  0.3605 -0.3385
  101MOL   C25428454   3.814   1.409   4.232 -0.0984 -0.1350  0.8908
  101MOL   C25528455   3.794   1.321   4.124  0.4364 -0.0520 -0.2321
  101MOL   C25628456   3.665   1.269   4.098 -0.1002  0.8951  0.0133
  101MOL   C25728457   3.557   1.306   4.183  0.4019  0.4070  0.1166
  101MOL   C25828458   3.417   1.263   4.154 -0.6344 -0.1406 -0.2765
  101MOL   C25928459   3.313   1.231   4.237 -0.3998  0.1104 -0.1320
  101MOL   C26028460   3.582   1.395   4.288  0.2401  0.3354  0.1136
  101MOL   C26128461   3.707   1.445   4.316  0.0992  0.1451  0.4824
  101MOL   H26228462   3.877   1.295   4.060  0.4949  2.0910 -1.0723
  101MOL   H26328463   3.645   1.203   4.014  0.7294 -0.6848  1.0235
  101MOL   H26428464   3.392   1.270   4.049  1.7980  0.2794 -0.8687
  101MOL   H26528465   3.217   1.204   4.196 -0.1294 -0.2750 -0.5203
  101MOL   H26628466   3.495   1.426   4.344 -1.0057 -1.1449 -0.9408
  101MOL   H26728467   3.725   1.524   4.388 -0.8796  0.8763 -0.0560
  101MOL   C26828468   3.313   1.212   4.383  0.4912 -0.2333  0.7456
  101MOL   C26928469   3.424   1.173   4.457 -0.7570  0.1063  0.2247
  101MOL   C27028470   3.413   1.160   4.598 -0.4000  0.2191 -0.1804
  101MOL   C27128471   3.297   1.184   4.668 -0.3273 -0.3003  0.5245
  101MOL   C27228472   3.281   1.177   4.808 -0.0601  0.0035 -0.0855
  101MOL   C27328473   3.384   1.186   4.894  0.0120  0.4227  0.3090
  101MOL   C27428474   3.186   1.229   4.591  0.1293  0.4734 -0.5095
  101MOL   C27528475   3.193   1.247   4.451  0.3186 -0.2887 -0.0230
  101MOL   H27628476   3.519   1.161   4.407 -1.9336  0.4731 -2.1626
  101MOL   H27728477   3.507   1.121   4.635 -1.1722 -1.9341 -0.4037
  101MOL   H27828478   3.185   1.181   4.857  2.0133  0.1695  4.1800
  101MOL   H27928479   3.485   1.202   4.858 -0.1043  0.8851  0.1744
  101MOL   H28028480   3.092   1.251   4.641  0.6527  2.3874 -0.3184
  101MOL   H28128481   3.110   1.295   4.402  0.8560 -0.2173 -0.8779
  101MOL   H28228482   3.378   1.182   5.001 -3.1401 -0.5987  0.1693
  102MOL     C128483   0.391   0.837   1.854  0.4502 -0.1665  0.7262
  102MOL     C228484   0.360   0.817   1.721 -0.0813  0.9595 -0.4117
  102MOL     C328485   0.467   0.809   1.627 -0.4642  0.3634 -0.1957
  102MOL     C428486   0.606   0.820   1.671 -0.6331 -0.0809  0.6331
  102MOL     C528487   0.720   0.799   1.574  0.4206  0.2360 -0.4880
  102MOL     C628488   0.848   0.793   1.611 -0.1414  0.2057  0.3962
  102MOL     C728489   0.634   0.833   1.810 -0.3391 -0.2457  0.3621
  102MOL     C828490   0.528   0.841   1.898 -0.5889  0.0776 -0.2111
  102MOL     H928491   0.258   0.790   1.695 -0.1126  2.6277 -2.0923
  102MOL    H1028492   0.458   0.801   1.520  2.2826 -0.9819 -0.3770
  102MOL    H1128493   0.697   0.793   1.469  0.3347 -1.0357 -0.4129
  102MOL    H1228494   0.864   0.800   1.718 -2.6770  0.3437  0.8127
  102MOL    H1328495   0.729   0.835   1.862  0.4732  1.2873 -1.1564
  102MOL    H1428496   0.544   0.837   2.005 -0.4914 -1.2302 -0.2624
  102MOL    H1528497   0.312   0.851   1.926 -2.2494 -1.0967 -1.9406
  102MOL    C1628498   0.965   0.783   1.527 -0.0019  0.8670  0.4852
  102MOL    C1728499   1.090   0.783   1.590 -0.2887 -0.0202 -0.3056
  102MOL    C1828500   1.206   0.766   1.519  0.5956 -0.7421  0.0144
  102MOL    C1928501   1.207   0.741   1.383 -0.0714  0.4936  0.3316
  102MOL    C2028502   1.335   0.712   1.313 -0.1923 -0.8426  0.4798
  102MOL    C2128503   1.355   0.699   1.180  0.8111  0.6269  0.6297
  102MOL    C2228504   1.078   0.754   1.320 -0.5586 -0.4019 -0.3214
  102MOL    C2328505   0.959   0.764   1.391  0.5977  0.0936  0.4929
  102MOL    H2428506   1.104   0.774   1.697 -1.2546 -2.8393 -0.3693
  102MOL    H2528507   1.298   0.762   1.576  0.2889  2.2067  0.7615
  102MOL    H2628508   1.419   0.702   1.380  0.6587 -0.3740 -0.4979
  102MOL    H2728509   1.278   0.717   1.107 -0.1863  1.0845  1.7790
  102MOL    H2828510   1.077   0.746   1.212  2.4751  0.0447 -0.4329
  102MOL    H2928511   0.865   0.762   1.337  0.1295  0.3829  1.2886
  102MOL    C3028512   1.479   0.653   1.115  0.1364 -0.5832 -0.1263
  102MOL    C3128513   1.472   0.603   0.987  0.0594  0.7060 -0.4668
  102MOL    C3228514   1.584   0.558   0.916  0.2910  0.2233 -0.4072
  102MOL    C3328515   1.712   0.573   0.975  0.5036 -0.8693 -0.1206
  102MOL    C3428516   1.830   0.540   0.900  0.3458  0.0204  0.0565
  102MOL    C3528517   1.957   0.545   0.939  0.0536 -0.1316 -0.1209
  102MOL    C3628518   1.719   0.611   1.113 -0.3462 -0.5882  0.3293
  102MOL    C3728519   1.603   0.645   1.191  0.1167 -0.3291 -0.0658
  102MOL    H3828520   1.377   0.602   0.935 -0.1263  0.7175 -0.1249
  102MOL    H3928521   1.573   0.516   0.818 -0.5622  2.1867 -1.1713
  102MOL    H4028522   1.805   0.509   0.799  1.7365  0.6029 -0.4769
  102MOL    H4128523   1.983   0.583   1.037  0.1333  0.4450 -0.3672
  102MOL    H4228524   1.815   0.617   1.163  0.1124 -1.2227 -0.4789
  102MOL    H4328525   1.598   0.687   1.290 -0.8522  0.0760 -0.2836
  102MOL    C4428526   2.070   0.511   0.856  0.3935 -0.0696 -0.4706
  102MOL    C4528527   2.196   0.564   0.885 -0.2256  0.2354  0.4433
  102MOL    C4628528   2.309   0.514   0.820  0.1082  0.1433  0.4109
  102MOL    C4728529   2.294   0.407   0.728  0.4087  0.1530  0.2924
  102MOL    C4828530   2.412   0.352   0.661 -0.3733 -0.5382 -0.4932
  102MOL    C4928531   2.417   0.286   0.540  0.0592  0.0681  0.3687
  102MOL    C5028532   2.172   0.363   0.684  0.3908 -1.0438 -0.2782
  102MOL    C5128533   2.057   0.411   0.757 -0.6164  0.3314  0.5644
  102MOL    H5228534   2.205   0.641   0.961  0.8887  1.2892 -0.7295
  102MOL    H5328535   2.407   0.550   0.849  0.0295  0.7733 -0.0879
  102MOL    H5428536   2.508   0.361   0.711 -0.4304 -0.4791 -0.3953
  102MOL    H5528537   2.320   0.295   0.494 -0.6264 -0.6000  1.6464
  102MOL    H5628538   2.164   0.280   0.614 -1.5164  1.3688 -3.0297
  102MOL    H5728539   1.967   0.356   0.737 -0.2818 -0.1353  0.3294
  102MOL    C5828540   2.525   0.228   0.459  0.3524  0.8015 -0.3558
  102MOL    C5928541   2.493   0.171   0.332  0.5319  0.2220  0.0946
  102MOL    C6028542   2.588   0.113   0.245 -0.2947 -1.7089 -0.8441
  102MOL    C6128543   2.725   0.110   0.289  0.1414  0.7600 -0.2309
  102MOL    C6228544   2.828   0.047   0.208 -0.5507  0.8164  0.4521
  102MOL    C6328545   2.804   8.108   0.107  0.7901  0.9472 -0.4617
  102MOL    C6428546   2.757   0.154   0.423 -0.2910 -0.1375  0.9742
  102MOL    C6528547   2.660   0.214   0.508  0.8881 -0.1572 -0.1341
  102MOL    H6628548   2.389   0.187   0.309  0.2580 -1.9011 -0.2182
  102MOL    H6728549   2.566   0.080   0.145 -1.2850  2.7352 -2.1829
  102MOL    H6828550   2.926   0.068   0.247 -0.2220 -1.2308  0.7790
  102MOL    H6928551   2.701   8.090   0.079  0.7683 -0.3143  0.4084
  102MOL    H7028552   2.861   0.142   0.449 -0.5069 -1.5225  1.2510
  102MOL    H7128553   2.689   0.246   0.608  2.4361 -1.0938 -0.2706
  102MOL    C7228554   2.902   8.036   0.027 -0.4989 -0.1366  0.0645
  102MOL    C7328555   2.880   8.003   8.033  1.3415 -0.0617 -0.3315
  102MOL    C7428556   2.970   7.914   7.971  0.1612  0.3703  0.3148
  102MOL    C7528557   3.090   7.881   8.033 -0.0347  0.3016  0.8041
  102MOL    C7628558   3.195   7.810   7.961  0.5975  0.8389  0.8857
  102MOL    C7728559   3.315   7.778   8.013 -1.0002  0.5418  0.0351
  102MOL    C7828560   3.117   7.921   0.020 -0.9274  0.0377  0.1821
  102MOL    C7928561   3.026   8.005   0.088 -1.1414  0.1685 -0.1037
  102MOL    H8028562   2.786   8.035   7.990  2.0719  1.7305 -0.6682
  102MOL    H8128563   2.936   7.874   7.876 -0.1436 -0.8989  0.9493
  102MOL    H8228564   3.169   7.776   7.862 -0.4727 -0.7888  1.6901
  102MOL    H8328565   3.335   7.802   8.116  0.2402  0.7047 -0.2382
  102MOL    H8428566   3.199   7.887   0.081 -1.6126  1.1643  1.7663
  102MOL    H8528567   3.049   8.030   0.190 -0.7302 -1.0556  0.1215
  102MOL    C8628568   3.415   7.707   7.936 -0.3499 -0.1490  0.6109
  102MOL    C8728569   3.550   7.739   7.953  0.3545 -0.4594  0.3865
  102MOL    C8828570   3.654   7.677   7.872 -0.3914 -0.5797 -0.1700
  102MOL    C8928571   3.619   7.565   7.789  0.1766 -0.2182  0.4567
  102MOL    C9028572   3.720   7.481   7.717  0.6943 -0.1945 -0.3121
  102MOL    C9128573   3.830   7.537   7.672 -0.4013 -0.6478  0.2977
  102MOL    C9228574   3.484   7.534   7.771  0.4565  0.0399  0.4804
  102MOL    C9328575   3.383   7.607   7.838  0.4212 -0.9433  0.0599
  102MOL    H9428576   3.578   7.826   8.010 -0.7230  1.4600 -1.9264
  102MOL    H9528577   3.756   7.713   7.881  0.3705 -2.1921 -1.8555
  102MOL    H9628578   3.703   7.374   7.716 -0.4365 -0.0346  0.2960
  102MOL    H9728579   3.845   7.644   7.684  0.0289 -0.8434  1.5567
  102MOL    H9828580   3.460   7.448   7.710  3.0807  0.1285 -0.7704
  102MOL    H9928581   3.285   7.577   7.802 -0.3921  0.6734  0.8433
  102MOL   C10028582   3.948   7.476   7.614  0.0577  0.3237  0.3611
  102MOL   C10128583   3.962   7.334   7.593  0.4269 -0.0956 -0.3324
  102MOL   C10228584   4.082   7.281   7.546 -0.4657  0.0860 -0.5017
  102MOL   C10328585   4.194   7.361   7.528 -0.1707 -0.0438 -0.3477
  102MOL   C10428586   4.331   7.312   7.497 -0.3607  0.4353 -0.4962
  102MOL   C10528587   4.418   7.365   7.409 -0.2892  0.6140 -0.6636
  102MOL   C10628588   4.173   7.502   7.544  0.5690  0.1257 -0.0502
  102MOL   C10728589   4.053   7.563   7.584 -0.3524 -0.1279 -0.0131
  102MOL   H10828590   3.883   7.262   7.610  0.2366  0.6179  2.0217
  102MOL   H10928591   4.079   7.175   7.528 -3.5353  0.1592 -0.5868
  102MOL   H11028592   4.360   7.223   7.551  0.8199  0.2360 -1.4233
  102MOL   H11128593   4.388   7.455   7.356 -0.3506  0.3109 -1.1460
  102MOL   H11228594   4.257   7.571   7.542  0.3861  0.4070  1.4576
  102MOL   H11328595   4.052   7.671   7.592  0.9276 -0.1467  0.5527
  102MOL   C11428596   4.552   7.330   7.377 -0.6945 -0.3114  0.2221
  102MOL   C11528597   4.609   7.218   7.442  0.9240 -0.5673  0.3108
  102MOL   C11628598   4.743   7.189   7.421  0.0655  0.5718  0.1229
  102MOL   C11728599   4.825   7.276   7.344 -0.2199  0.1605 -0.5904
  102MOL   C11828600   4.962   7.260   7.314  0.3363 -0.4707 -0.1542
  102MOL   C11928601   5.039   7.159   7.353 -0.1571 -1.0248  0.3537
  102MOL   C12028602   4.767   7.384   7.278 -0.4595 -0.4093 -0.6243
  102MOL   C12128603   4.629   7.409   7.291  0.2997  0.2717  0.9306
  102MOL   H12228604   4.549   7.145   7.495  0.2265  0.2583  0.6731
  102MOL   H12328605   4.795   7.105   7.466 -0.2184  0.7108  0.7188
  102MOL   H12428606   5.008   7.342   7.261 -1.2766  1.0359  0.7476
  102MOL   H12528607   4.996   7.094   7.427  0.1678  0.3291  1.7448
  102MOL   H12628608   4.820   7.457   7.218 -0.4851  0.4451  0.3765
  102MOL   H12728609   4.592   7.497   7.241 -0.2669 -0.0432  0.7990
  102MOL   C12828610   5.184   7.143   7.308 -0.1135  0.0871  0.1280
  102MOL   C12928611   5.249   7.228   7.209 -0.0593 -0.1334 -0.4475
  102MOL   C13028612   5.392   7.219   7.184  0.8398 -0.1846  1.0264
  102MOL   C13128613   5.466   7.126   7.261  0.3834  0.4071  0.3462
  102MOL   C13228614   5.614   7.126   7.265 -0.3145  0.3330 -0.3108
  102MOL   C13328615   5.699   7.192   7.185  0.3784 -0.0976 -0.0100
  102MOL   C13428616   5.400   7.031   7.343 -0.7164 -0.1796 -0.3390
  102MOL   C13528617   5.265   7.043   7.369 -0.3480 -0.4191  0.7930
  102MOL   H13628618   5.194   7.307   7.159 -0.4642  0.1531  0.4244
  102MOL   H13728619   5.446   7.286   7.118 -1.2252 -3.0091 -3.7441
  102MOL   H13828620   5.661   7.062   7.339 -0.4483  0.3810 -0.1841
  102MOL   H13928621   5.658   7.239   7.096 -1.6720  1.5422  1.7359
  102MOL   H14028622   5.450   6.948   7.391  0.3740 -0.5361 -2.0394
  102MOL   H14128623   5.217   6.971   7.433  0.2557 -3.2573 -1.8000
  102MOL   C14228624   5.847   7.211   7.215 -0.2641 -0.1314  0.1771
  102MOL   C14328625   5.926   7.309   7.150  0.0124 -0.2330 -0.0489
  102MOL   C14428626   6.058   7.331   7.177 -0.8453  0.0691  0.4440
  102MOL   C14528627   6.126   7.238   7.258 -0.4113  0.4157  1.2831
  102MOL   C14628628   6.274   7.258   7.286  0.5979  0.3335  0.4166
  102MOL   C14728629   6.352   7.173   7.354 -0.2200 -0.1797  0.5236
  102MOL   C14828630   6.053   7.134   7.324  0.3113 -0.2652 -0.4030
  102MOL   C14928631   5.915   7.118   7.303  0.2779 -0.6679  0.6240
  102MOL   H15028632   5.889   7.380   7.077  2.6963 -0.2187 -1.4789
  102MOL   H15128633   6.121   7.404   7.129  0.7778 -3.0358 -2.3576
  102MOL   H15228634   6.326   7.344   7.244 -0.2337 -0.1288 -1.6406
  102MOL   H15328635   6.309   7.087   7.403  1.1361  0.1759  2.4009
  102MOL   H15428636   6.109   7.076   7.397  1.0865  1.1151  0.1289
  102MOL   H15528637   5.864   7.037   7.353 -0.9065  0.0346  0.5670
  102MOL   C15628638   6.499   7.186   7.384 -0.5685  0.4937  0.5053
  102MOL   C15728639   6.586   7.285   7.327  0.1441  0.0624  0.2001
  102MOL   C15828640   6.721   7.289   7.369 -0.4424  0.4057 -0.1324
  102MOL   C15928641   6.774   7.195   7.456 -0.9150  0.3588  0.0125
  102MOL   C16028642   6.914   7.186   7.502  0.0464  0.2082  0.2701
  102MOL   C16128643   7.014   7.271   7.474 -0.0499 -0.7983  0.0742
  102MOL   C16228644   6.692   7.088   7.499 -0.3792 -0.2794  0.3449
  102MOL   C16328645   6.558   7.080   7.461  0.1518 -0.2217 -0.9597
  102MOL   H16428646   6.558   7.367   7.262  1.3311  0.0902 -0.2879
  102MOL   H16528647   6.782   7.371   7.335  0.8318 -0.5110 -0.0995
  102MOL   H16628648   6.928   7.096   7.560  0.8849 -1.3078 -2.2120
  102MOL   H16728649   6.992   7.354   7.408  0.9473 -0.4692  0.1541
  102MOL   H16828650   6.738   7.009   7.557  1.1325 -0.9386 -1.6750
  102MOL   H16928651   6.497   7.007   7.512 -1.3765 -0.7384 -3.4006
  102MOL   C17028652   7.149   7.257   7.521 -0.2112  0.5647  0.7125
  102MOL   C17128653   7.180   7.205   7.644 -0.3040  0.2457 -0.2271
  102MOL   C17228654   7.313   7.189   7.682  0.6575  0.0393 -0.0037
  102MOL   C17328655   7.418   7.245   7.606 -0.1543  1.0676 -0.1593
  102MOL   C17428656   7.554   7.215   7.651  0.0616 -0.1072 -0.0102
  102MOL   C17528657   7.669   7.238   7.589 -0.2157 -0.3796  0.0154
  102MOL   C17628658   7.387   7.310   7.485  0.1049 -0.3861  0.3443
  102MOL   C17728659   7.253   7.314   7.441 -0.3633 -1.0074 -0.0132
  102MOL   H17828660   7.097   7.169   7.704  1.1299 -0.6455  1.2438
  102MOL   H17928661   7.342   7.141   7.775  0.5079 -0.2681 -0.1166
  102MOL   H18028662   7.566   7.168   7.747 -1.5587 -0.7080 -0.1035
  102MOL   H18128663   7.676   7.281   7.491  0.1890  1.0108  0.6365
  102MOL   H18228664   7.466   7.348   7.421  0.8133 -0.0499  1.4023
  102MOL   H18328665   7.232   7.369   7.350 -0.8451 -1.6292 -0.2802
  102MOL   C18428666   7.806   7.212   7.642 -0.0558  0.1045  0.5689
  102MOL   C18528667   7.914   7.265   7.575 -0.2365  1.2651 -0.2420
  102MOL   C18628668   8.047   7.231   7.611  0.4202  0.0470  0.1561
  102MOL   C18728669   8.069   7.130   7.706 -0.2096 -1.2989 -0.1488
  102MOL   C18828670   0.061   7.096   7.742  0.1433 -0.4108  0.5655
  102MOL   C18928671   0.096   7.022   7.848  0.0966  0.0436  0.1860
  102MOL   C19028672   7.960   7.072   7.781  0.2412 -0.7419  0.4154
  102MOL   C19128673   7.830   7.124   7.752 -0.1951  0.0370 -0.4681
  102MOL   H19228674   7.904   7.336   7.494  1.8254  1.7250 -0.1257
  102MOL   H19328675   8.124   7.290   7.564 -0.7170  1.1552 -0.3759
  102MOL   H19428676   0.139   7.135   7.677 -0.3653 -0.2192  0.0704
  102MOL   H19528677   0.016   6.975   7.904 -0.8796 -1.0328 -2.0230
  102MOL   H19628678   7.971   6.999   7.859 -0.8050  0.0487  1.3101
  102MOL   H19728679   7.742   7.089   7.804  0.9763 -0.5896  1.1351
  102MOL   C19828680   0.235   6.991   7.895  0.3640 -0.0435  0.0619
  102MOL   C19928681   0.339   7.009   7.804 -0.3464  0.0781  0.5346
  102MOL   C20028682   0.462   6.954   7.839 -0.4333  0.1672 -0.1445
  102MOL   C20128683   0.488   6.895   7.964  0.0895  0.2986 -0.4907
  102MOL   C20228684   0.615   6.812   7.981  1.4680  0.6335  0.0654
  102MOL   C20328685   0.667   6.762   8.093  0.7603 -0.7743  0.6313
  102MOL   C20428686   0.386   6.890   8.058 -0.5625 -0.4819  0.2342
  102MOL   C20528687   0.257   6.938   8.026 -0.2048 -0.4306 -0.9895
  102MOL   H20628688   0.333   7.056   7.707  0.9969  1.0944  0.9272
  102MOL   H20728689   0.542   6.962   7.767  2.4184 -0.4272  2.8327
  102MOL   H20828690   0.657   6.792   7.884 -0.5503  2.0349 -1.1473
  102MOL   H20928691   0.625   6.794   0.043 -0.4438  0.8273 -0.4009
  102MOL   H21028692   0.394   6.845   0.012 -0.1378  0.4458  0.6250
  102MOL   H21128693   0.169   6.938   8.089 -1.6969 -1.7899 -2.9999
  102MOL   C21228694   0.791   6.682   8.094 -0.6440 -0.1381  0.0380
  102MOL   C21328695   0.856   6.648   0.072 -0.1029 -0.6892 -0.4880
  102MOL   C21428696   0.969   6.569   0.083  0.6648  0.2280  0.4499
  102MOL   C21528697   1.026   6.521   8.109 -0.3361  0.7407  0.1186
  102MOL   C21628698   1.147   6.432   8.106 -1.0797 -0.5396 -0.1292
  102MOL   C21728699   1.215   6.367   0.061  0.3626  0.1883  0.1113
  102MOL   C21828700   0.972   6.554   7.986  0.1444 -0.8802  1.0007
  102MOL   C21928701   0.861   6.641   7.977  0.8144 -0.0728 -0.0887
  102MOL   H22028702   0.805   6.671   0.165 -1.4176  2.2595 -1.8862
  102MOL   H22128703   0.997   6.548   0.185 -2.2744 -2.5181  0.7621
  102MOL   H22228704   1.185   6.418   8.005  2.7440 -0.8451  1.2712
  102MOL   H22328705   1.186   6.389   0.163  2.2863 -1.3504  1.0131
  102MOL   H22428706   1.032   6.521   7.902  0.1063  1.7897 -0.1187
  102MOL   H22528707   0.831   6.664   7.876  2.4079  0.7287 -0.4045
  102MOL   C22628708   1.329   6.275   0.034  0.0037 -0.4307  0.0171
  102MOL   C22728709   1.367   6.230   8.049  0.4409  0.2254 -0.1885
  102MOL   C22828710   1.482   6.155   8.035  0.4502  0.0810 -0.5481
  102MOL   C22928711   1.555   6.105   0.005 -0.0419  0.3002 -1.0093
  102MOL   C23028712   1.671   6.016   8.143  0.5393 -0.4030  0.9505
  102MOL   C23128713   1.771   6.034   8.055 -0.1239  0.6733 -0.1614
  102MOL   C23228714   1.513   6.142   0.133 -0.0010  0.2311 -0.5593
  102MOL   C23328715   1.403   6.228   0.147 -0.1892  0.2769  0.4463
  102MOL   H23428716   1.309   6.251   7.961  1.0926  1.3407 -0.3555
  102MOL   H23528717   1.513   6.117   7.939  1.9654  3.9894 -1.6806
  102MOL   H23628718   1.676   5.932   0.066 -2.6559 -2.1069 -0.8266
  102MOL   H23728719   1.772   6.123   7.993  1.2561 -1.1920 -2.9182
  102MOL   H23828720   1.577   6.118   0.217 -1.8660  0.8856  1.0838
  102MOL   H23928721   1.378   6.270   0.243 -0.5328 -0.3248  0.6261
  102MOL   C24028722   1.883   5.944   8.031 -0.4299  0.5858  0.4244
  102MOL   C24128723   1.947   5.856   8.122  0.3403  0.4722  0.3936
  102MOL   C24228724   2.050   5.762   8.084  0.1516  0.8751 -0.1432
  102MOL   C24328725   2.085   5.745   7.949  0.3897 -0.8408 -0.3472
  102MOL   C24428726   2.187   5.651   7.906  0.4095  1.1899 -0.0808
  102MOL   C24528727   2.246   5.552   7.972  0.0484 -1.0051  0.1685
  102MOL   C24628728   2.033   5.842   7.859  0.4119  0.1447  0.4528
  102MOL   C24728729   1.930   5.929   7.894  0.3295 -0.2190 -0.2149
  102MOL   H24828730   1.918   5.863   0.081 -1.4104 -2.5929  0.1604
  102MOL   H24928731   2.095   5.706   0.020 -1.0837  0.9950  0.6614
  102MOL   H25028732   2.226   5.679   7.809 -0.5014  2.1500 -0.1781
  102MOL   H25128733   2.203   5.519   8.066 -1.3791  0.3892  0.0166
  102MOL   H25228734   2.059   5.834   7.754 -0.2873 -0.4579  0.3160
  102MOL   H25328735   1.885   5.991   7.817  2.2111 -0.1595 -1.2983
  102MOL   C25428736   2.359   5.467   7.931 -0.5621  0.1720 -0.1319
  102MOL   C25528737   2.395   5.350   8.005 -0.3166  0.0452 -0.0020
  102MOL   C25628738   2.497   5.256   7.963  0.1970 -0.2624  1.3390
  102MOL   C25728739   2.568   5.295   7.849 -0.1101  0.9412  0.6697
  102MOL   C25828740   2.679   5.194   7.814 -0.4866  0.2158  0.1536
  102MOL   C25928741   2.752   5.182   7.693  0.7340  0.3709 -0.8821
  102MOL   C26028742   2.542   5.418   7.780 -0.0341 -0.0634 -0.2806
  102MOL   C26128743   2.438   5.503   7.818 -0.0909 -0.3380  0.2842
  102MOL   H26228744   2.339   5.306   8.085  1.0774  0.5262  1.2521
  102MOL   H26328745   2.507   5.159   8.010  1.2701 -0.4441  0.7601
  102MOL   H26428746   2.719   5.131   7.892  0.2267 -1.7410 -1.7409
  102MOL   H26528747   2.830   5.109   7.682 -1.2726 -1.7264 -1.5726
  102MOL   H26628748   2.604   5.442   7.695 -0.6216 -3.7785 -1.8567
  102MOL   H26728749   2.429   5.599   7.771  1.0644 -0.1390  0.4557
  102MOL   C26828750   2.711   5.247   7.567  0.4009 -0.0556  0.6700
  102MOL   C26928751   2.809   5.301   7.483  0.2465 -0.5409  0.4151
  102MOL   C27028752   2.760   5.377   7.378 -0.2103 -0.2501  0.4588
  102MOL   C27128753   2.623   5.399   7.350  0.1692  0.5251  0.2341
  102MOL   C27228754   2.575   5.492   7.244 -0.1056  0.0856  0.4997
  102MOL   C27328755   2.447   5.504   7.207 -0.5473 -0.9471 -0.3434
  102MOL   C27428756   2.532   5.331   7.435  0.8734  0.0491  0.3772
  102MOL   C27528757   2.576   5.253   7.533  0.0516 -0.0296 -0.1410
  102MOL   H27628758   2.911   5.285   7.512  0.9101  2.4446 -0.1215
  102MOL   H27728759   2.833   5.417   7.308 -2.1165  0.7995 -0.9782
  102MOL   H27828760   2.647   5.551   7.189 -0.3711 -0.1909 -0.1368
  102MOL   H27928761   2.365   5.455   7.256 -2.5955  2.3251 -0.3509
  102MOL   H28028762   2.427   5.355   7.431  0.8976 -0.0685 -1.3875
  102MOL   H28128763   2.500   5.201   7.588 -2.1484  1.9104 -1.2601
  102MOL   H28228764   2.425   5.575   7.128 -1.5723  0.2260  0.9816
  103MOL     C128765   2.267   6.622   5.372 -0.2982  0.6910  0.5728
  103MOL     C228766   2.141   6.693   5.385 -0.0029 -0.3554 -0.3807
  103MOL     C328767   2.140   6.836   5.393 -0.3391 -0.1561 -0.1041
  103MOL     C428768   2.260   6.905   5.380  0.6495  0.2844 -0.1566
  103MOL     C528769   2.261   7.054   5.362 -0.1658  0.6961 -0.1467
  103MOL     C628770   2.164   7.136   5.328 -0.1442  0.3826  0.0340
  103MOL     C728771   2.384   6.834   5.376 -0.1405  0.0567 -0.7153
  103MOL     C828772   2.387   6.695   5.367 -0.5501 -0.1748 -1.1517
  103MOL     H928773   2.050   6.635   5.389  0.3025 -0.6729  2.6854
  103MOL    H1028774   2.051   6.898   5.398 -0.6503 -0.4431 -1.6783
  103MOL    H1128775   2.359   7.096   5.382  0.5277 -0.1251 -1.7354
  103MOL    H1228776   2.063   7.103   5.309  0.5848 -2.7032  1.3713
  103MOL    H1328777   2.479   6.885   5.365  0.2267 -0.6390 -0.8528
  103MOL    H1428778   2.481   6.643   5.360  0.1272  0.7941  0.4712
  103MOL    H1528779   2.285   6.516   5.377  1.4649  0.9842  0.6031
  103MOL    C1628780   2.170   7.281   5.323 -0.1424 -0.1739 -0.4566
  103MOL    C1728781   2.058   7.359   5.300 -0.0192 -0.4231  0.0150
  103MOL    C1828782   2.061   7.502   5.309  0.1465  0.4843 -0.0287
  103MOL    C1928783   2.172   7.566   5.347 -0.0837 -0.9400 -0.6759
  103MOL    C2028784   2.177   7.705   5.359  0.5385 -0.1516  0.4886
  103MOL    C2128785   2.291   7.777   5.362 -0.2425  0.3130 -0.4067
  103MOL    C2228786   2.288   7.488   5.376 -1.0631  0.1180 -0.0241
  103MOL    C2328787   2.283   7.346   5.369  0.1217  0.3279  0.0438
  103MOL    H2428788   1.968   7.314   5.263 -0.4161  0.4471 -0.0901
  103MOL    H2528789   1.971   7.550   5.272 -0.9703 -1.6321 -0.0906
  103MOL    H2628790   2.077   7.745   5.368 -0.3933 -0.9628 -4.6137
  103MOL    H2728791   2.385   7.725   5.351 -0.9540 -0.8009 -1.2476
  103MOL    H2828792   2.378   7.535   5.411  0.8823  0.0430 -4.5489
  103MOL    H2928793   2.375   7.288   5.371 -0.6011 -0.8633 -0.5032
  103MOL    C3028794   2.312   7.920   5.393  0.0774  0.0045  0.3010
  103MOL    C3128795   2.204   8.010   5.396  0.7820  0.4681  0.0212
  103MOL    C3228796   2.223   8.141   5.435  0.4069  0.2096 -0.2272
  103MOL    C3328797   2.344   0.044   5.478 -0.0884 -0.9922 -0.2624
  103MOL    C3428798   2.358   0.181   5.521  0.1540  0.6274 -0.0768
  103MOL    C3528799   2.429   0.220   5.628  0.5386  0.9127 -0.6822
  103MOL    C3628800   2.454   8.096   5.480 -0.8277  0.0090 -0.0984
  103MOL    C3728801   2.438   7.964   5.431 -0.0897  0.1842 -0.5600
  103MOL    H3828802   2.103   7.977   5.376  1.4921 -2.3214  0.8862
  103MOL    H3928803   2.131   0.052   5.426 -1.0163 -2.1220 -0.3748
  103MOL    H4028804   2.302   0.255   5.467 -1.2711  0.2375  0.8517
  103MOL    H4128805   2.474   0.141   5.686 -3.0970 -0.8541 -0.0909
  103MOL    H4228806   2.553   8.134   5.500 -0.9557  0.2019  0.1812
  103MOL    H4328807   2.527   7.902   5.433 -1.0328 -1.1894  3.5578
  103MOL    C4428808   2.434   0.362   5.682 -0.7748  0.2704  0.2795
  103MOL    C4528809   2.552   0.392   5.757 -0.2341  0.0128 -0.0546
  103MOL    C4628810   2.582   0.522   5.797  0.6423  0.1793 -0.5560
  103MOL    C4728811   2.484   0.624   5.769  0.1039  0.4309  0.1436
  103MOL    C4828812   2.494   0.765   5.819  0.0556 -0.1037  0.2194
  103MOL    C4928813   2.603   0.827   5.865 -0.5974 -0.1281 -0.7956
  103MOL    C5028814   2.369   0.583   5.695 -0.7734  0.4663  0.3863
  103MOL    C5128815   2.343   0.452   5.643 -0.7856 -0.0003  0.0464
  103MOL    H5228816   2.623   0.314   5.778 -0.0713  0.1764 -0.0001
  103MOL    H5328817   2.659   0.546   5.868 -0.3998  2.8743 -0.2710
  103MOL    H5428818   2.402   0.820   5.804  1.1246  1.5225 -0.5143
  103MOL    H5528819   2.692   0.767   5.872 -0.8010 -0.1747  1.9647
  103MOL    H5628820   2.296   0.661   5.680 -0.6883  0.2840 -1.0308
  103MOL    H5728821   2.257   0.422   5.585 -1.5886 -2.0637  2.2321
  103MOL    C5828822   2.629   0.966   5.909 -0.3069  0.4942  0.0705
  103MOL    C5928823   2.522   1.040   5.945  1.1150  0.4109  0.3608
  103MOL    C6028824   2.543   1.168   6.006 -0.2573 -0.0346  0.6618
  103MOL    C6128825   2.677   1.217   6.022 -0.8818 -0.0460 -0.4447
  103MOL    C6228826   2.700   1.350   6.088  0.3081  0.1514  0.3748
  103MOL    C6328827   2.821   1.413   6.105  0.3102  0.0269 -0.3683
  103MOL    C6428828   2.787   1.144   5.975 -0.2636  0.2162 -0.2810
  103MOL    C6528829   2.763   1.022   5.913 -1.0327 -0.5483 -0.1829
  103MOL    H6628830   2.420   1.010   5.929  0.6019  3.0164 -1.5213
  103MOL    H6728831   2.458   1.229   6.034 -1.2629 -1.6160  1.1029
  103MOL    H6828832   2.611   1.400   6.123 -1.0891 -2.4232  0.6347
  103MOL    H6928833   2.908   1.356   6.077  0.3953  0.7854 -1.6679
  103MOL    H7028834   2.889   1.180   5.973  0.5875 -1.7295  3.9055
  103MOL    H7128835   2.854   0.973   5.881  0.3553  0.4507  2.0947
  103MOL    C7228836   2.834   1.545   6.167 -0.2059  0.7400 -0.2599
  103MOL    C7328837   2.952   1.618   6.152 -0.0315  0.1178  0.4762
  103MOL    C7428838   2.966   1.752   6.204  0.4132  0.6077  0.4685
  103MOL    C7528839   2.864   1.808   6.282 -0.6884  0.0615 -1.1790
  103MOL    C7628840   2.887   1.934   6.353 -0.5072  0.1040  0.8849
  103MOL    C7728841   2.810   1.975   6.453  0.4409 -0.4646 -0.0566
  103MOL    C7828842   2.743   1.732   6.295 -0.5424 -0.2092 -0.9432
  103MOL    C7928843   2.730   1.609   6.239 -0.2655  1.1548 -0.5622
  103MOL    H8028844   3.028   1.565   6.097 -1.4526 -0.9994 -0.4833
  103MOL    H8128845   3.055   1.807   6.177 -0.3313  0.9213 -1.3695
  103MOL    H8228846   2.964   2.002   6.318 -0.3647 -0.6425 -0.2916
  103MOL    H8328847   2.727   1.910   6.477 -1.1135  1.9024  1.1790
  103MOL    H8428848   2.660   1.774   6.351  0.4689 -0.6238  0.9395
  103MOL    H8528849   2.635   1.560   6.249  0.6860 -0.2755  1.8243
  103MOL    C8628850   2.829   2.109   6.528  1.1657  1.0232  0.2828
  103MOL    C8728851   2.954   2.170   6.523  0.3746 -0.8041 -0.3548
  103MOL    C8828852   2.977   2.278   6.612  0.1155 -0.1687  0.1742
  103MOL    C8928853   2.882   2.320   6.703 -0.1287  0.0920 -0.4315
  103MOL    C9028854   2.907   2.415   6.812 -0.0253  0.3325  0.1343
  103MOL    C9128855   3.034   2.450   6.848  0.6202  0.5563 -0.2418
  103MOL    C9228856   2.752   2.257   6.699  0.4662 -0.4319 -0.2752
  103MOL    C9328857   2.720   2.159   6.605  0.1371 -0.4307  0.0163
  103MOL    H9428858   3.041   2.135   6.470  0.3476  0.6762 -1.4103
  103MOL    H9528859   3.079   2.314   6.608 -0.3568  1.0304 -1.2064
  103MOL    H9628860   2.818   2.453   6.861 -0.9175  0.0940 -1.2672
  103MOL    H9728861   3.120   2.412   6.795  0.7841  1.5907 -0.7499
  103MOL    H9828862   2.678   2.284   6.774 -1.2331 -1.0589 -1.6879
  103MOL    H9928863   2.618   2.126   6.598 -0.5713  2.1074 -2.4716
  103MOL   C10028864   3.070   2.531   6.967  0.0034  0.0571  0.7663
  103MOL   C10128865   3.200   2.586   6.965  0.3361  0.7275 -0.2832
  103MOL   C10228866   3.240   2.669   7.072  0.0336 -0.3019  0.5310
  103MOL   C10328867   3.149   2.696   7.177 -0.5018  0.1952 -0.8185
  103MOL   C10428868   3.178   2.798   7.285 -1.2444  0.0607 -0.0590
  103MOL   C10528869   3.285   2.885   7.289  0.3841 -0.3329  0.1295
  103MOL   C10628870   3.022   2.639   7.186  1.2661  0.0222  0.2377
  103MOL   C10728871   2.984   2.556   7.076  0.1065 -0.2268  0.3967
  103MOL   H10828872   3.272   2.571   6.886  1.2654  1.5969  0.3878
  103MOL   H10928873   3.338   2.712   7.079 -0.9869  2.2910 -0.5407
  103MOL   H11028874   3.107   2.792   7.367  0.2429 -0.8148  1.1785
  103MOL   H11128875   3.354   2.888   7.206  2.0316  2.1170  1.5219
  103MOL   H11228876   2.956   2.663   7.268 -0.1807  2.6837 -1.6228
  103MOL   H11328877   2.885   2.514   7.063  1.2295 -2.6528 -0.6446
  103MOL   C11428878   3.315   2.972   7.404  0.2545  0.0115 -0.9129
  103MOL   C11528879   3.243   2.975   7.521 -0.4297 -0.0816 -0.1207
  103MOL   C11628880   3.257   3.073   7.618 -0.2207 -0.2195 -0.4246
  103MOL   C11728881   3.364   3.162   7.612  0.3357 -0.5050 -0.2154
  103MOL   C11828882   3.359   3.266   7.720 -0.2511  0.4522 -0.0242
  103MOL   C11928883   3.435   3.376   7.727  0.0903  0.4468 -0.7310
  103MOL   C12028884   3.448   3.162   7.498  0.3441  0.9204  0.3201
  103MOL   C12128885   3.422   3.065   7.395 -0.2361 -0.5723 -0.1231
  103MOL   H12228886   3.157   2.911   7.535 -0.8897  0.5423 -0.0742
  103MOL   H12328887   3.195   3.077   7.706  0.5332  0.8505  0.0761
  103MOL   H12428888   3.280   3.260   7.794 -0.4238 -1.1449 -0.3180
  103MOL   H12528889   3.510   3.380   7.649  0.6195 -0.8975 -0.3187
  103MOL   H12628890   3.526   3.235   7.482 -0.6916  2.4235  1.9414
  103MOL   H12728891   3.480   3.076   7.305  0.9090 -1.5160  0.4925
  103MOL   C12828892   3.421   3.481   7.831  0.8142 -0.4356  0.7234
  103MOL   C12928893   3.460   3.621   7.812 -0.0797 -0.5487  0.3164
  103MOL   C13028894   3.434   3.720   7.905 -0.1439 -0.1744  0.0641
  103MOL   C13128895   3.368   3.696   8.023 -0.8353 -0.6279 -0.3668
  103MOL   C13228896   3.307   3.809   8.091 -0.0642  0.7938  0.6398
  103MOL   C13328897   3.190   3.815   0.010 -0.1928  0.0330  0.1719
  103MOL   C13428898   3.335   3.566   8.057 -0.7708  0.0839 -0.2010
  103MOL   C13528899   3.360   3.461   7.962 -0.2066  0.2967 -0.3756
  103MOL   H13628900   3.509   3.637   7.717 -1.4485  0.8426 -0.1851
  103MOL   H13728901   3.464   3.821   7.880 -0.0737 -0.6846 -2.0443
  103MOL   H13828902   3.355   3.905   8.080  0.9159  0.4059  1.4788
  103MOL   H13928903   3.129   3.727   0.020  0.1215 -0.3968 -1.6655
  103MOL   H14028904   3.277   3.545   0.001 -1.2047  0.6583 -0.3469
  103MOL   H14128905   3.316   3.366   7.990  1.5265 -0.4820 -0.2098
  103MOL   C14228906   3.124   3.931   0.059  0.4806 -0.1983 -0.0952
  103MOL   C14328907   3.190   4.057   0.081 -0.0267  0.0190 -0.2855
  103MOL   C14428908   3.112   4.171   0.122 -0.2108 -0.4261 -0.2809
  103MOL   C14528909   2.972   4.161   0.126  0.1261  0.4432 -0.4518
  103MOL   C14628910   2.899   4.286   0.147 -0.4637  0.1127 -0.0236
  103MOL   C14728911   2.762   4.296   0.124 -0.2749  0.6292 -0.1869
  103MOL   C14828912   2.911   4.034   0.104 -0.0621 -0.5484  0.7410
  103MOL   C14928913   2.982   3.925   0.062  0.2827 -0.4758  0.2216
  103MOL   H15028914   3.297   4.064   0.078  0.2017 -2.2192  1.1405
  103MOL   H15128915   3.165   4.263   0.140 -1.2229  0.0318  0.3869
  103MOL   H15228916   2.953   4.371   0.186 -1.6605 -0.2277  2.4933
  103MOL   H15328917   2.708   4.210   0.086  2.3265 -0.5505 -1.3631
  103MOL   H15428918   2.805   4.023   0.122 -0.0639 -0.1109  1.0250
  103MOL   H15528919   2.931   3.830   0.061 -2.0413  0.6823  1.3244
  103MOL   C15628920   2.684   4.415   0.125 -0.2885  0.4587 -0.1714
  103MOL   C15728921   2.738   4.547   0.138  0.2333 -0.2754  0.8690
  103MOL   C15828922   2.651   4.660   0.110  0.1226 -0.5103  0.0106
  103MOL   C15928923   2.515   4.641   0.072  0.1966  0.1441  1.0279
  103MOL   C16028924   2.428   4.755   0.034 -0.7718 -0.2964 -0.5059
  103MOL   C16128925   2.299   4.778   0.076  0.0283  0.7607  0.3077
  103MOL   C16228926   2.464   4.515   0.070 -0.8508  0.0528 -0.3362
  103MOL   C16328927   2.544   4.402   0.100 -0.3948  0.1857  0.6809
  103MOL   H16428928   2.842   4.569   0.152  0.2210 -0.0834  0.6496
  103MOL   H16528929   2.694   4.759   0.112  0.3334 -0.5192 -2.1676
  103MOL   H16628930   2.474   4.825   8.110  0.3205 -3.0670 -2.7330
  103MOL   H16728931   2.259   4.705   0.144  1.1404 -0.4851 -0.3674
  103MOL   H16828932   2.359   4.496   0.053 -1.6410  0.6621  3.4166
  103MOL   H16928933   2.508   4.301   0.097 -0.5262  0.2350  0.5729
  103MOL   C17028934   2.211   4.885   0.028  0.8106 -0.5550  0.3342
  103MOL   C17128935   2.250   4.967   8.060 -0.2869  0.1559 -0.2954
  103MOL   C17228936   2.175   5.073   8.019 -0.2878  0.2085  0.7954
  103MOL   C17328937   2.053   5.093   8.086 -0.2609 -0.5307  0.1252
  103MOL   C17428938   1.972   5.212   8.043  0.2182 -0.3321 -0.7878
  103MOL   C17528939   1.858   5.257   8.098 -0.6707  0.0588 -0.5648
  103MOL   C17628940   2.008   5.009   0.050 -1.0187 -0.6272  0.1766
  103MOL   C17728941   2.088   4.904   0.083  0.0634  0.3026  0.5038
  103MOL   H17828942   2.335   4.942   7.999 -1.0005 -0.9840 -0.8512
  103MOL   H17928943   2.209   5.134   7.937 -3.2287  0.3670 -0.3613
  103MOL   H18028944   2.017   5.265   7.960  2.5564 -0.1811  0.5419
  103MOL   H18128945   1.811   5.209   0.039 -0.5327 -2.5031 -1.8831
  103MOL   H18228946   1.907   5.011   0.088 -0.0037 -1.6695  3.0861
  103MOL   H18328947   2.060   4.835   0.160  0.5450  0.7492  1.0812
  103MOL   C18428948   1.787   5.373   8.047  0.6278 -0.4050 -0.2967
  103MOL   C18528949   1.843   5.474   7.966 -0.6875 -0.7252  0.5815
  103MOL   C18628950   1.768   5.584   7.927 -0.5475 -0.5404 -0.1512
  103MOL   C18728951   1.631   5.594   7.955 -0.4730 -0.2086 -0.3014
  103MOL   C18828952   1.558   5.708   7.899 -0.0567 -0.8457 -0.0445
  103MOL   C18928953   1.429   5.743   7.926 -0.1631 -0.1574  0.7750
  103MOL   C19028954   1.574   5.504   8.046 -0.4882  0.2757  0.2264
  103MOL   C19128955   1.650   5.392   8.082 -0.3831  0.8872  0.5149
  103MOL   H19228956   1.946   5.480   7.935 -0.8334 -0.4475  0.1494
  103MOL   H19328957   1.826   5.658   7.874 -0.5748 -1.2407 -1.1692
  103MOL   H19428958   1.618   5.769   7.834 -0.0259 -2.6026 -1.7049
  103MOL   H19528959   1.373   5.673   7.987 -2.3711  1.8333  1.1158
  103MOL   H19628960   1.474   5.523   8.079 -0.1517 -0.6107  1.7872
  103MOL   H19728961   1.603   5.330   0.012  2.0393 -2.0833 -0.3392
  103MOL   C19828962   1.345   5.847   7.868 -0.3459 -0.0488 -0.2509
  103MOL   C19928963   1.387   5.934   7.760  0.4409  0.3809 -0.0350
  103MOL   C20028964   1.297   6.033   7.709  0.8887  0.3241  0.2289
  103MOL   C20128965   1.181   6.056   7.783  0.8475 -0.7594  0.3624
  103MOL   C20228966   1.083   6.171   7.742  0.5635  0.2526 -0.3259
  103MOL   C20328967   1.100   6.270   7.652 -0.7618 -0.2438  0.2855
  103MOL   C20428968   1.152   5.982   7.898 -0.0491 -0.3059  0.8749
  103MOL   C20528969   1.222   5.868   7.929 -0.1797  0.7232 -0.1828
  103MOL   H20628970   1.484   5.916   7.716 -0.4479  0.0064 -1.9390
  103MOL   H20728971   1.319   6.100   7.628  3.8039  0.9603  1.4573
  103MOL   H20828972   0.989   6.165   7.793  0.5367  1.7359 -0.1927
  103MOL   H20928973   1.199   6.284   7.610 -0.8932 -2.6324 -0.8947
  103MOL   H21028974   1.064   6.008   7.954 -1.8949 -2.2526 -1.0406
  103MOL   H21128975   1.180   5.803   8.004  1.7517 -1.0677 -0.5857
  103MOL   C21228976   0.999   6.373   7.620  0.4173  0.4310  0.1968
  103MOL   C21328977   1.026   6.479   7.529  0.3905  0.4736 -0.5237
  103MOL   C21428978   0.931   6.579   7.515 -0.4386  0.0853  0.2583
  103MOL   C21528979   0.801   6.573   7.580  0.0653 -0.5371  0.3200
  103MOL   C21628980   0.693   6.663   7.537 -0.1876  0.5892 -0.2520
  103MOL   C21728981   0.700   6.777   7.468  0.2482  0.0901 -0.1639
  103MOL   C21828982   0.777   6.479   7.680 -0.7275 -0.1716  0.8002
  103MOL   C21928983   0.880   6.385   7.702  0.1876  0.4424  0.2605
  103MOL   H22028984   1.122   6.481   7.480  1.0494 -1.1926  0.6648
  103MOL   H22128985   0.943   6.665   7.451 -3.5999  0.8738  0.6015
  103MOL   H22228986   0.593   6.631   7.562 -0.0578  0.1041 -0.3635
  103MOL   H22328987   0.795   6.806   7.425  0.4669  1.1168  1.0076
  103MOL   H22428988   0.681   6.479   7.730 -0.8875  0.1074  0.4942
  103MOL   H22528989   0.866   6.315   7.783  2.8914  1.7842  1.9791
  103MOL   C22628990   0.593   6.866   7.439 -0.2618  0.2771 -0.4020
  103MOL   C22728991   0.617   6.995   7.403 -1.1635 -0.0884  0.5602
  103MOL   C22828992   0.517   7.088   7.370 -0.4104  0.1840  0.0141
  103MOL   C22928993   0.381   7.050   7.388  0.0992 -0.1000 -0.2279
  103MOL   C23028994   0.272   7.133   7.359  0.5949  0.3587 -0.1901
  103MOL   C23128995   0.269   7.260   7.406 -0.0213 -0.1555 -0.4183
  103MOL   C23228996   0.352   6.919   7.425  0.1291 -0.2784  0.0539
  103MOL   C23328997   0.454   6.831   7.458  0.0239  0.5556 -0.1046
  103MOL   H23428998   0.723   7.013   7.401 -0.9358 -1.5329 -1.0638
  103MOL   H23528999   0.541   7.186   7.333 -1.7998 -0.9741 -4.1777
  103MOL   H23629000   0.196   7.087   7.298 -0.2768 -0.7082  1.6290
  103MOL   H23729001   0.346   7.291   7.476 -0.2650  0.9882 -0.6484
  103MOL   H23829002   0.250   6.884   7.422  0.1310 -0.3668  0.9259
  103MOL   H23929003   0.435   6.725   7.469 -0.6832  0.5980 -0.8753
  103MOL   C24029004   0.155   7.355   7.367  0.4064 -0.9747 -0.3048
  103MOL   C24129005   0.129   7.480   7.437  0.3221  0.1884 -0.3407
  103MOL   C24229006   0.022   7.562   7.396 -0.1379  0.5935  0.1578
  103MOL   C24329007   8.075   7.530   7.289 -0.4755  0.5514  1.3541
  103MOL   C24429008   7.966   7.615   7.244  0.1487 -0.3751  0.3576
  103MOL   C24529009   7.938   7.742   7.278 -0.5177  0.4072  0.2019
  103MOL   C24629010   8.108   7.409   7.221  0.8669 -0.1876 -0.7000
  103MOL   C24729011   0.069   7.326   7.262 -0.8423 -0.5633  0.4418
  103MOL   H24829012   0.189   7.501   7.524  0.0095  0.2462 -0.1375
  103MOL   H24929013   8.136   7.646   7.458  0.3829  2.1589 -1.6440
  103MOL   H25029014   7.892   7.571   7.179 -0.4865  0.9291  0.1872
  103MOL   H25129015   7.995   7.808   7.341 -0.8560  0.5112  0.4014
  103MOL   H25229016   8.049   7.381   7.136  1.4633 -1.8796 -0.5735
  103MOL   H25329017   0.092   7.233   7.213  1.9519  0.5902 -0.5534
  103MOL   C25429018   7.819   7.825   7.245  0.2764 -0.0483  0.3109
  103MOL   C25529019   7.749   7.801   7.120 -0.0390 -0.1719  0.3203
  103MOL   C25629020   7.637   7.877   7.078 -0.2797 -0.3739  0.2466
  103MOL   C25729021   7.601   7.982   7.169 -0.0172  0.1369  0.5961
  103MOL   C25829022   7.483   8.070   7.148 -0.4738 -0.1455 -0.5848
  103MOL   C25929023   7.450   8.124   7.028 -0.1834 -1.0396  0.1392
  103MOL   C26029024   7.663   8.004   7.295 -0.7232 -0.0629 -0.3021
  103MOL   C26129025   7.766   7.918   7.332 -0.0411 -0.0845  0.6737
  103MOL   H26229026   7.781   7.721   7.055 -0.2188  0.0519 -0.0457
  103MOL   H26329027   7.588   7.857   6.984  3.0429  0.8698 -1.8352
  103MOL   H26429028   7.416   8.085   7.232 -1.5854  1.3349 -1.7233
  103MOL   H26529029   7.354   0.029   7.029 -0.3786 -1.3730 -0.9492
  103MOL   H26629030   7.617   8.070   7.367 -2.0396 -0.9888 -0.2766
  103MOL   H26729031   7.813   7.947   7.424  0.3176  2.6389 -0.3150
  103MOL   C26829032   7.528   8.129   6.905  0.1141  0.2528 -0.4282
  103MOL   C26929033   7.450   8.123   6.787  0.4106 -0.6877 -0.1299
  103MOL   C27029034   7.523   8.137   6.662 -0.5122 -0.1898 -0.3462
  103MOL   C27129035   7.662   0.015   6.660  0.1757  0.9483 -0.3184
  103MOL   C27229036   7.732   0.045   6.534  0.2260  0.0558  0.0538
  103MOL   C27329037   7.848   0.098   6.511 -0.1996  0.1944  0.1822
  103MOL   C27429038   7.734   0.015   6.781  0.0028  0.3223 -0.2799
  103MOL   C27529039   7.665   0.006   6.902  0.1424  0.8773  0.0299
  103MOL   H27629040   7.342   8.124   6.796  0.5604 -1.1925  2.1336
  103MOL   H27729041   7.467   8.133   6.570  0.8573  1.5607 -1.2696
  103MOL   H27829042   7.668   0.025   6.450 -0.6182  1.0090  0.4495
  103MOL   H27929043   7.909   0.104   6.600  2.1972  0.3758 -1.4460
  103MOL   H28029044   7.829   0.064   6.785  1.1383 -1.8298 -0.0212
  103MOL   H28129045   7.724   0.013   6.992 -0.6095 -0.1946  0.6198
  103MOL   H28229046   7.881   0.123   6.411  0.9778  0.5949  0.6734
  104MOL     C129047   4.575   1.416   8.055 -0.0542 -0.5690 -0.0279
  104MOL     C229048   4.620   1.295   8.116  0.9816  0.0713  0.0100
  104MOL     C329049   4.737   1.295   0.045  0.7184 -0.1415 -0.2141
  104MOL     C429050   4.817   1.413   0.068  0.2260 -0.7035 -1.1099
  104MOL     C529051   4.926   1.409   0.162 -0.9232 -0.2004  0.1545
  104MOL     C629052   5.007   1.513   0.202  0.2780  0.5739  0.7558
  104MOL     C729053   4.770   1.529   0.002  0.0034  0.3724  0.3694
  104MOL     C829054   4.654   1.530   8.072 -0.0037 -0.1519  0.2692
  104MOL     H929055   4.559   1.206   8.116  1.6999 -0.4567 -2.0154
  104MOL    H1029056   4.768   1.201   0.088 -0.6605 -0.7680 -0.5724
  104MOL    H1129057   4.947   1.308   0.191 -0.7158 -0.6444 -1.4958
  104MOL    H1229058   4.980   1.612   0.169  1.5634  1.0053  0.9330
  104MOL    H1329059   4.821   1.624   0.016 -1.9570  1.0483  3.1933
  104MOL    H1429060   4.610   1.623   8.040 -0.1323 -1.2808 -3.0910
  104MOL    H1529061   4.479   1.413   8.005  0.1804 -1.1813 -0.4446
  104MOL    C1629062   5.131   1.513   0.280  0.2702  0.0572 -0.2391
  104MOL    C1729063   5.212   1.395   0.280  0.3560  0.4454  0.1753
  104MOL    C1829064   5.327   1.393   0.355 -0.1214 -0.2612  0.2118
  104MOL    C1929065   5.372   1.505   0.428 -0.3327  0.0597  0.4425
  104MOL    C2029066   5.502   1.490   0.510 -0.0146  0.6155 -0.0446
  104MOL    C2129067   5.558   1.586   0.589  0.4757  0.3714 -0.4485
  104MOL    C2229068   5.292   1.619   0.434  0.4490 -0.0816  0.5602
  104MOL    C2329069   5.177   1.620   0.356  0.0345 -0.4499 -0.6357
  104MOL    H2429070   5.181   1.307   0.225 -1.0133  2.7653 -2.9275
  104MOL    H2529071   5.384   1.302   0.356  0.1407 -0.1297 -1.2453
  104MOL    H2629072   5.550   1.395   0.495 -0.0959  0.7548 -1.2085
  104MOL    H2729073   5.510   1.683   0.598  0.5554  0.4927 -1.2932
  104MOL    H2829074   5.330   1.705   0.488 -0.6987 -0.4597  2.0286
  104MOL    H2929075   5.111   1.705   0.346  0.8184  0.1839 -0.4068
  104MOL    C3029076   5.681   1.567   0.678 -0.8833 -0.3029 -0.3475
  104MOL    C3129077   5.741   1.675   0.742 -0.2644 -0.1983  0.2554
  104MOL    C3229078   5.865   1.662   0.807 -0.5564 -0.0250  0.0357
  104MOL    C3329079   5.941   1.547   0.802 -0.4638  0.1734  0.4086
  104MOL    C3429080   6.078   1.547   0.852 -1.3286 -0.3271  0.1839
  104MOL    C3529081   6.147   1.662   0.874 -0.4131  0.2668 -1.0267
  104MOL    C3629082   5.883   1.438   0.732 -0.1885 -0.1516 -0.8756
  104MOL    C3729083   5.758   1.444   0.670 -0.3839  0.2773 -0.6201
  104MOL    H3829084   5.691   1.771   0.734  0.6454  0.0246 -3.5932
  104MOL    H3929085   5.896   1.753   0.857 -2.8385  1.1900 -0.6711
  104MOL    H4029086   6.118   1.449   0.876 -2.5687 -0.9970 -0.4212
  104MOL    H4129087   6.099   1.754   0.842 -1.5157  0.4271  1.0194
  104MOL    H4229088   5.942   1.349   0.717 -1.3801 -1.4444  1.7584
  104MOL    H4329089   5.729   1.350   0.625  0.4390 -0.3432  0.1208
  104MOL    C4429090   6.287   1.671   0.919  0.3724 -0.4548  0.5308
  104MOL    C4529091   6.337   1.794   0.963  0.2360 -0.4580  0.2601
  104MOL    C4629092   6.462   1.798   1.015 -0.1206  0.0272 -0.6269
  104MOL    C4729093   6.542   1.676   1.027 -0.3699  0.0414  0.5083
  104MOL    C4829094   6.671   1.670   1.094 -0.2533  0.0599  0.6356
  104MOL    C4929095   6.767   1.764   1.088  0.2553  0.3117 -0.5809
  104MOL    C5029096   6.490   1.557   0.973 -0.4546 -0.5231 -0.1773
  104MOL    C5129097   6.368   1.553   0.914 -0.3750 -0.8129  0.1267
  104MOL    H5229098   6.262   1.870   0.980 -2.5338 -3.1868  0.8151
  104MOL    H5329099   6.496   1.889   1.062 -1.1889 -0.6149  1.4523
  104MOL    H5429100   6.675   1.580   1.154 -0.7067 -0.1603  0.3406
  104MOL    H5529101   6.751   1.859   1.038 -1.0533 -0.0996 -0.9563
  104MOL    H5629102   6.540   1.462   0.988  0.5283 -0.2706 -1.6959
  104MOL    H5729103   6.330   1.459   0.876 -1.1571  0.0656 -1.3440
  104MOL    C5829104   6.892   1.751   1.157  1.0092  0.4599 -0.1251
  104MOL    C5929105   6.922   1.632   1.237  0.0625 -0.1743 -0.5421
  104MOL    C6029106   7.058   1.622   1.284  0.0871 -0.1619 -0.1222
  104MOL    C6129107   7.147   1.732   1.275 -0.1090 -0.2140  0.0532
  104MOL    C6229108   7.280   1.719   1.346  0.1513 -0.2585  0.0410
  104MOL    C6329109   7.354   1.826   1.382  1.0983 -0.3873 -0.9345
  104MOL    C6429110   7.108   1.850   1.210 -0.1418  0.3870  0.1465
  104MOL    C6529111   6.978   1.862   1.154  0.2356  0.7079  0.1078
  104MOL    H6629112   6.858   1.547   1.257 -0.1633  0.0476 -0.3307
  104MOL    H6729113   7.077   1.539   1.351  0.9248 -0.0557 -0.2263
  104MOL    H6829114   7.321   1.622   1.371 -1.4993 -1.2088 -0.8086
  104MOL    H6929115   7.317   1.922   1.351  2.3569  1.1533  2.0862
  104MOL    H7029116   7.162   1.943   1.203 -1.1423  1.0902  1.5261
  104MOL    H7129117   6.949   1.952   1.104 -0.0619  0.9908  0.7855
  104MOL    C7229118   7.476   1.817   1.455  0.1842 -0.5633 -0.4167
  104MOL    C7329119   7.507   1.711   1.550 -0.1927  0.2857  0.3446
  104MOL    C7429120   7.633   1.699   1.617  0.9923  1.5779  0.4201
  104MOL    C7529121   7.729   1.797   1.592  0.5844 -0.2679 -0.0888
  104MOL    C7629122   7.860   1.799   1.663 -0.2822 -0.4500 -0.6779
  104MOL    C7729123   7.916   1.694   1.739  0.0806  0.8684 -0.3875
  104MOL    C7829124   7.698   1.901   1.506 -0.2534 -0.2688  0.8897
  104MOL    C7929125   7.575   1.917   1.438  0.4352 -0.3227 -0.3910
  104MOL    H8029126   7.442   1.626   1.565 -0.8011  1.1328  2.6538
  104MOL    H8129127   7.649   1.618   1.685 -0.9389 -0.4751 -1.4611
  104MOL    H8229128   7.914   1.892   1.657 -3.2935  1.5720  2.0454
  104MOL    H8329129   7.859   1.603   1.745  1.5044  0.0215  0.4038
  104MOL    H8429130   7.776   1.969   1.475  0.5726 -0.8744  1.6212
  104MOL    H8529131   7.557   1.993   1.363  1.8592  0.5860  0.1496
  104MOL    C8629132   8.037   1.702   1.819 -0.6715  1.1806  0.2840
  104MOL    C8729133   8.088   1.581   1.865 -0.3003  0.1997 -0.1369
  104MOL    C8829134   0.071   1.582   1.937  0.1844  0.2707 -0.3586
  104MOL    C8929135   0.138   1.703   1.972 -0.2300  0.1981  0.1158
  104MOL    C9029136   0.271   1.690   2.036  1.0905  0.3569  0.3149
  104MOL    C9129137   0.362   1.782   2.068  0.0338 -0.9651  0.0651
  104MOL    C9229138   0.082   1.825   1.928 -0.4528  0.2911  0.3404
  104MOL    C9329139   8.110   1.820   1.848  0.4327 -0.6711  0.4489
  104MOL    H9429140   8.042   1.486   1.845  2.4182 -0.4914 -3.6222
  104MOL    H9529141   0.122   1.490   1.964  1.0961  0.5803 -1.0345
  104MOL    H9629142   0.301   1.590   2.064  0.9413  1.0495  3.0583
  104MOL    H9729143   0.337   1.886   2.053  1.0282 -0.6731  0.3949
  104MOL    H9829144   0.122   1.924   1.943 -2.9488  1.5242 -0.7719
  104MOL    H9929145   8.063   1.910   1.813  2.9519  0.4105 -0.3098
  104MOL   C10029146   0.492   1.752   2.130 -0.5421 -0.8770 -0.4486
  104MOL   C10129147   0.558   1.851   2.210 -0.5356  0.4454  0.0393
  104MOL   C10229148   0.681   1.823   2.277  0.1104  0.1257 -0.6777
  104MOL   C10329149   0.747   1.703   2.250  0.3009  0.7691  0.1112
  104MOL   C10429150   0.876   1.665   2.315 -0.3981 -0.0553 -0.3555
  104MOL   C10529151   0.934   1.716   2.426  0.3653 -0.0289 -0.7144
  104MOL   C10629152   0.683   1.601   2.174  0.2279  0.0429  0.3879
  104MOL   C10729153   0.557   1.627   2.110 -0.2525  0.1637 -0.0475
  104MOL   H10829154   0.523   1.953   2.213 -2.4040 -0.1977  0.6108
  104MOL   H10929155   0.732   1.904   2.327  0.5484 -0.6518  0.1294
  104MOL   H11029156   0.939   1.587   2.273 -1.4181 -1.1860  0.1912
  104MOL   H11129157   0.881   1.793   2.479 -1.9038 -0.5882 -2.0759
  104MOL   H11229158   0.736   1.510   2.151 -0.4703 -0.1036 -0.6598
  104MOL   H11329159   0.514   1.543   2.057 -1.5113  1.7217 -1.5807
  104MOL   C11429160   1.067   1.683   2.480 -0.2188  0.0737  0.0026
  104MOL   C11529161   1.161   1.618   2.400  0.5613  0.5069 -0.2066
  104MOL   C11629162   1.296   1.579   2.440 -0.0169 -0.1792  0.0318
  104MOL   C11729163   1.327   1.608   2.578  0.2723  0.6920  0.1868
  104MOL   C11829164   1.451   1.575   2.643 -0.5068 -0.0564  0.4418
  104MOL   C11929165   1.566   1.571   2.580  0.0673  0.5672  0.4259
  104MOL   C12029166   1.229   1.669   2.657 -0.7167  0.3790  0.4940
  104MOL   C12129167   1.103   1.711   2.612 -0.5302  0.7810 -0.1221
  104MOL   H12229168   1.138   1.599   2.296 -0.4670 -0.2223  0.1503
  104MOL   H12329169   1.364   1.524   2.376  1.4925 -1.6098  2.7996
  104MOL   H12429170   1.443   1.551   2.748  0.0823 -0.5815  0.3700
  104MOL   H12529171   1.575   1.600   2.476 -1.1559 -0.9033 -0.1085
  104MOL   H12629172   1.250   1.693   2.760 -0.5343  0.8115  0.3589
  104MOL   H12729173   1.049   1.774   2.681  0.7716  3.1870 -1.2337
  104MOL   C12829174   1.698   1.545   2.632  0.1566 -0.0163  0.0040
  104MOL   C12929175   1.724   1.558   2.764 -0.2313 -0.5208 -0.2757
  104MOL   C13029176   1.846   1.527   2.819 -0.1617  0.0529  0.6873
  104MOL   C13129177   1.951   1.483   2.732 -0.6049  0.4404  0.2052
  104MOL   C13229178   2.088   1.445   2.770  1.0925  0.3924 -0.8840
  104MOL   C13329179   2.195   1.471   2.688 -0.1249 -0.5545 -0.2954
  104MOL   C13429180   1.928   1.462   2.591  0.5382 -0.6880 -0.3696
  104MOL   C13529181   1.804   1.505   2.540  0.2812  0.2000 -0.2083
  104MOL   H13629182   1.651   1.605   2.828  2.4934  0.7196  2.0330
  104MOL   H13729183   1.869   1.538   2.924  0.2489 -0.7041  0.6810
  104MOL   H13829184   2.114   1.403   2.866 -0.0685 -1.9467 -1.5479
  104MOL   H13929185   2.188   1.513   2.588  0.5839  0.9706  0.2758
  104MOL   H14029186   1.998   1.419   2.521  2.2713 -2.3147  2.2810
  104MOL   H14129187   1.787   1.491   2.435  1.7886 -0.5947 -0.3426
  104MOL   C14229188   2.339   1.459   2.727 -0.2439 -0.2126 -0.0886
  104MOL   C14329189   2.434   1.522   2.647  0.3874 -0.4861 -0.0767
  104MOL   C14429190   2.570   1.524   2.680 -0.4274 -0.0376  0.3049
  104MOL   C14529191   2.616   1.466   2.796  0.0642  0.1925 -0.2081
  104MOL   C14629192   2.753   1.477   2.852 -0.2034  0.4688 -0.4585
  104MOL   C14729193   2.844   1.575   2.831 -0.2210 -0.7083 -0.1184
  104MOL   C14829194   2.522   1.396   2.876 -0.5846 -0.1227  0.1481
  104MOL   C14929195   2.385   1.401   2.846 -0.3086  0.1379 -0.7146
  104MOL   H15029196   2.398   1.565   2.555 -1.8244  1.3720  1.5846
  104MOL   H15129197   2.639   1.571   2.611 -0.3520 -0.7069 -0.0721
  104MOL   H15229198   2.780   1.394   2.916  0.8042  0.5741 -0.7348
  104MOL   H15329199   2.814   1.662   2.774  0.0534 -0.0947  0.6514
  104MOL   H15429200   2.557   1.346   2.965 -0.9720 -2.3444 -0.9159
  104MOL   H15529201   2.312   1.343   2.900 -0.3403 -0.2578 -1.1758
  104MOL   C15629202   2.979   1.579   2.896  0.2818 -0.7171  0.4675
  104MOL   C15729203   3.013   1.493   2.999  0.2304  0.0796 -0.7300
  104MOL   C15829204   3.144   1.509   3.060  0.2873 -0.0233 -0.1612
  104MOL   C15929205   3.238   1.600   3.012 -0.7878 -0.1066 -0.3656
  104MOL   C16029206   3.367   1.609   3.072 -0.9267 -0.0525  0.6254
  104MOL   C16129207   3.461   1.711   3.066  0.4132  0.2610  0.1757
  104MOL   C16229208   3.201   1.679   2.900 -0.4548  0.3330  0.7490
  104MOL   C16329209   3.077   1.675   2.842  0.2183  0.2758 -0.2360
  104MOL   H16429210   2.946   1.420   3.041  1.4092 -0.9146 -0.5504
  104MOL   H16529211   3.172   1.432   3.130  0.2628 -0.8479 -1.0438
  104MOL   H16629212   3.406   1.520   3.121 -1.4505  0.1921  1.4971
  104MOL   H16729213   3.418   1.798   3.019 -2.0934  0.1350  2.1353
  104MOL   H16829214   3.272   1.756   2.874 -0.8556  0.1663 -0.8836
  104MOL   H16929215   3.040   1.745   2.769  0.2266 -0.4231 -0.9235
  104MOL   C17029216   3.600   1.707   3.119 -1.4964 -0.3069  0.2196
  104MOL   C17129217   3.663   1.587   3.168  1.3968 -0.1628  0.3892
  104MOL   C17229218   3.798   1.591   3.211  0.0817  0.1538  0.2305
  104MOL   C17329219   3.865   1.714   3.222  0.2190  0.0322  0.4958
  104MOL   C17429220   3.997   1.700   3.284 -0.6689 -0.7425 -0.4225
  104MOL   C17529221   4.082   1.798   3.319  0.1616 -0.2559  0.2818
  104MOL   C17629222   3.805   1.833   3.183  0.0913  0.3540  0.1700
  104MOL   C17729223   3.671   1.834   3.132 -1.4076  1.1178  0.3507
  104MOL   H17829224   3.602   1.498   3.159  0.6743  0.5649 -2.5732
  104MOL   H17929225   3.847   1.496   3.227 -3.0957 -1.1607  2.5798
  104MOL   H18029226   4.017   1.597   3.312 -1.1769 -0.3212  1.5212
  104MOL   H18129227   4.046   1.896   3.290  3.8545  1.5721  1.5297
  104MOL   H18229228   3.854   1.926   3.206  2.1547 -0.6023 -0.2246
  104MOL   H18329229   3.614   1.917   3.092 -0.2138  1.8811  0.2129
  104MOL   C18429230   4.214   1.800   3.385 -0.1423 -0.2990  0.0526
  104MOL   C18529231   4.263   1.679   3.441  0.4351 -0.4384 -0.2325
  104MOL   C18629232   4.387   1.672   3.510 -0.0230 -0.5823 -0.5702
  104MOL   C18729233   4.473   1.783   3.522 -0.1134  0.3910 -0.1631
  104MOL   C18829234   4.605   1.786   3.597  0.4878 -0.1603  0.1953
  104MOL   C18929235   4.666   1.676   3.649  1.1433  0.0641  0.7686
  104MOL   C19029236   4.422   1.905   3.466  0.8190 -1.0445 -0.3566
  104MOL   C19129237   4.298   1.908   3.398 -0.1789 -0.7857 -0.1683
  104MOL   H19229238   4.198   1.593   3.445 -3.0517  1.8661 -3.7330
  104MOL   H19329239   4.429   1.578   3.543  0.0475 -0.1487  0.6017
  104MOL   H19429240   4.654   1.881   3.617  3.0053 -1.4750  0.4135
  104MOL   H19529241   4.609   1.585   3.642  2.1371 -0.4468 -0.9100
  104MOL   H19629242   4.485   1.993   3.461  2.8033 -2.4498 -0.7982
  104MOL   H19729243   4.266   1.998   3.347 -4.1164 -1.8176  0.3435
  104MOL   C19829244   4.803   1.681   3.699 -0.1539  0.0056 -0.4234
  104MOL   C19929245   4.897   1.785   3.668 -0.0292  0.1961  0.3060
  104MOL   C20029246   5.030   1.780   3.712 -0.3477  0.9951 -0.0659
  104MOL   C20129247   5.071   1.665   3.784 -0.2238 -0.1679  0.4725
  104MOL   C20229248   5.200   1.688   3.856 -0.5315  0.2964 -0.2731
  104MOL   C20329249   5.230   1.635   3.977  0.0265 -0.1270 -0.9099
  104MOL   C20429250   4.977   1.564   3.817 -0.4442  0.4417 -0.4463
  104MOL   C20529251   4.845   1.571   3.776 -0.7232  0.1470  0.0368
  104MOL   H20629252   4.866   1.872   3.612 -3.0699  0.4402  2.2626
  104MOL   H20729253   5.100   1.861   3.697  1.2303  0.4757  3.8065
  104MOL   H20829254   5.279   1.744   3.809 -1.1441 -0.5980 -2.4402
  104MOL   H20929255   5.156   1.587   4.040  0.0052  2.0935  0.8263
  104MOL   H21029256   5.008   1.481   3.878 -0.5018  0.9619  0.2952
  104MOL   H21129257   4.784   1.487   3.806 -0.1149 -0.1729  0.3914
  104MOL   C21229258   5.360   1.646   4.045 -0.5546 -0.0551 -0.6623
  104MOL   C21329259   5.466   1.731   3.999  0.0497  0.0290  0.7908
  104MOL   C21429260   5.589   1.743   4.066  0.1428 -0.0010  0.4273
  104MOL   C21529261   5.605   1.670   4.184  0.4612  0.1161 -0.3119
  104MOL   C21629262   5.730   1.701   4.254 -0.0432  0.8049 -0.1360
  104MOL   C21729263   5.763   1.663   4.376 -0.3213  0.0298  0.8454
  104MOL   C21829264   5.514   1.568   4.217 -0.2461 -0.3028  0.1619
  104MOL   C21929265   5.392   1.556   4.151 -0.1946 -0.3570 -0.1658
  104MOL   H22029266   5.465   1.794   3.911  1.3656 -1.1784 -0.1047
  104MOL   H22129267   5.656   1.815   4.022  1.9471 -1.7845  0.1808
  104MOL   H22229268   5.794   1.754   4.185  0.1111 -0.3488 -0.9094
  104MOL   H22329269   5.689   1.614   4.437 -0.6148 -0.5976 -0.0164
  104MOL   H22429270   5.535   1.508   4.304  2.5070  0.2033 -0.1038
  104MOL   H22529271   5.328   1.476   4.183  0.1627 -1.1208 -1.3123
  104MOL   C22629272   5.894   1.686   4.435 -0.0623  0.6333  0.5650
  104MOL   C22729273   5.995   1.748   4.363 -0.3658  0.8799 -0.0518
  104MOL   C22829274   6.116   1.786   4.431 -0.4298 -0.5858 -0.7975
  104MOL   C22929275   6.143   1.742   4.562  0.0288 -0.2881  0.4030
  104MOL   C23029276   6.269   1.779   4.624 -0.7973 -0.3186 -0.6050
  104MOL   C23129277   6.346   1.876   4.580  1.1018  0.2034 -0.1335
  104MOL   C23229278   6.034   1.681   4.634 -0.4165 -0.2992 -0.0267
  104MOL   C23329279   5.912   1.645   4.566 -0.1390 -0.5244  0.2365
  104MOL   H23429280   5.982   1.791   4.265  0.3928  1.2699  0.0073
  104MOL   H23529281   6.186   1.844   4.373  2.3475 -2.2744  0.7356
  104MOL   H23629282   6.293   1.710   4.705 -2.9950  0.8163  1.0652
  104MOL   H23729283   6.318   1.939   4.497 -1.3878  0.3907  0.7696
  104MOL   H23829284   6.036   1.657   4.740 -0.8998  0.8651  0.2508
  104MOL   H23929285   5.826   1.605   4.617 -1.8746  2.1344 -0.4892
  104MOL   C24029286   6.468   1.924   4.642  0.1974 -0.4383  0.0511
  104MOL   C24129287   6.565   1.988   4.561  0.3791 -0.4248  0.1534
  104MOL   C24229288   6.681   2.038   4.611 -0.1300  0.0592  0.8252
  104MOL   C24329289   6.715   2.013   4.753  0.4868 -0.0954  1.2001
  104MOL   C24429290   6.847   2.048   4.818 -0.1693 -0.4098  0.4963
  104MOL   C24529291   6.955   2.091   4.747 -0.0813  0.7144 -1.0237
  104MOL   C24629292   6.614   1.960   4.833  0.1075 -0.7990  0.0319
  104MOL   C24729293   6.494   1.917   4.780 -0.1486 -0.6652 -0.3784
  104MOL   H24829294   6.547   2.001   4.455  1.4383  4.7216  0.4898
  104MOL   H24929295   6.758   2.081   4.548 -0.6080 -1.3490 -0.7465
  104MOL   H25029296   6.852   2.045   4.925 -0.3367 -0.9124  0.4932
  104MOL   H25129297   6.944   2.089   4.639  1.4604 -1.5909 -1.1563
  104MOL   H25229298   6.629   1.959   4.940 -0.5382 -0.2679  0.1283
  104MOL   H25329299   6.419   1.866   4.838 -0.4411  0.8493  0.6078
  104MOL   C25429300   7.088   2.126   4.794  0.1582  0.3091  0.7236
  104MOL   C25529301   7.179   2.176   4.698 -0.7298  0.1618 -0.4196
  104MOL   C25629302   7.308   2.205   4.733  0.1625  0.4872  0.1905
  104MOL   C25729303   7.346   2.201   4.872 -1.0266  0.6435 -0.2352
  104MOL   C25829304   7.478   2.236   4.914  0.1124  0.3710 -1.3846
  104MOL   C25929305   7.549   2.351   4.907  0.0673  0.1055 -0.8122
  104MOL   C26029306   7.252   2.157   4.968  0.2443 -0.0910 -0.1306
  104MOL   C26129307   7.125   2.112   4.925 -0.4682 -0.1906 -0.5066
  104MOL   H26229308   7.151   2.184   4.593 -0.7819  4.4776 -0.1314
  104MOL   H26329309   7.368   2.245   4.653 -0.9103  2.7311  0.4732
  104MOL   H26429310   7.534   2.163   4.969 -0.9122  2.1207  2.0979
  104MOL   H26529311   7.648   2.349   4.948 -0.9782 -2.2260  1.8227
  104MOL   H26629312   7.270   2.162   5.074  0.5654  3.5972 -0.3077
  104MOL   H26729313   7.044   2.083   4.991 -1.3795  0.3087 -1.3792
  104MOL   C26829314   7.522   2.482   4.852 -0.2559  0.3464 -0.6232
  104MOL   C26929315   7.637   2.550   4.809 -0.4754  0.4020 -0.3672
  104MOL   C27029316   7.627   2.665   4.727  0.1694 -0.2537 -0.0617
  104MOL   C27129317   7.502   2.718   4.694  0.7652 -0.2669 -0.1447
  104MOL   C27229318   7.484   2.839   4.610 -0.3503  0.6224  0.0409
  104MOL   C27329319   7.585   2.912   4.544  0.8928  0.5686  0.5098
  104MOL   C27429320   7.382   2.647   4.730  0.3753  0.3788 -0.3310
  104MOL   C27529321   7.393   2.529   4.808  0.3104  0.4063  0.1697
  104MOL   H27629322   7.736   2.511   4.829  0.4466  2.3534 -1.0216
  104MOL   H27729323   7.719   2.712   4.694  0.5048 -1.9327 -1.5318
  104MOL   H27829324   7.380   2.867   4.604 -0.5939  0.0228  1.2967
  104MOL   H27929325   7.690   2.887   4.548  0.3840 -1.6014  1.4211
  104MOL   H28029326   7.282   2.681   4.706 -0.2623 -0.6028  0.8455
  104MOL   H28129327   7.305   2.475   4.838 -1.8207  4.3325  1.2964
  104MOL   H28229328   7.557   2.999   4.488  0.3148  1.1592  1.7061
  105MOL     C129329   7.799   1.594   4.372 -0.7907  0.2587  0.2963
  105MOL     C229330   7.754   1.473   4.315  0.5283 -0.3570  0.2132
  105MOL     C329331   7.667   1.481   4.203 -0.0774  0.0041 -0.5339
  105MOL     C429332   7.607   1.606   4.173 -0.0978 -0.0293  0.8126
  105MOL     C529333   7.512   1.603   4.063  0.1016 -0.5737  0.4161
  105MOL     C629334   7.417   1.696   4.034 -0.0138 -0.2050  0.0080
  105MOL     C729335   7.646   1.721   4.243  0.2991  0.4011 -0.9753
  105MOL     C829336   7.738   1.713   4.338  0.4035  0.4764 -0.7143
  105MOL     H929337   7.794   1.380   4.352  1.2101  0.5257  1.7498
  105MOL    H1029338   7.641   1.389   4.152  0.0025  0.7401 -1.9051
  105MOL    H1129339   7.517   1.525   3.989 -2.2725 -0.1482 -0.2471
  105MOL    H1229340   7.411   1.774   4.109 -0.5055  1.2456 -1.4966
  105MOL    H1329341   7.594   1.816   4.236  1.2658  0.9186 -1.1930
  105MOL    H1429342   7.763   1.801   4.397  1.9286  0.1756 -0.8916
  105MOL    H1529343   7.869   1.585   4.454  0.3248 -1.1015 -0.7557
  105MOL    C1629344   7.346   1.703   3.914 -0.2785 -0.1197  0.1110
  105MOL    C1729345   7.219   1.763   3.910  0.0467 -0.0399 -0.0749
  105MOL    C1829346   7.143   1.763   3.792 -0.4067 -0.4448 -0.3900
  105MOL    C1929347   7.192   1.694   3.678 -0.1510  0.7820  0.3707
  105MOL    C2029348   7.119   1.687   3.554 -0.7445  0.4021  0.0948
  105MOL    C2129349   6.987   1.702   3.552  0.2501  0.5526  0.2525
  105MOL    C2229350   7.318   1.631   3.681  0.3260  1.1950 -0.0624
  105MOL    C2329351   7.394   1.645   3.795 -0.0832  0.0951 -0.1431
  105MOL    H2429352   7.191   1.810   4.003  2.9303 -0.7736  1.2109
  105MOL    H2529353   7.047   1.812   3.786 -0.4753 -0.5126  0.1293
  105MOL    H2629354   7.171   1.675   3.460 -1.3256  1.3227 -0.3444
  105MOL    H2729355   6.941   1.707   3.650 -0.0343 -0.4598  0.1708
  105MOL    H2829356   7.347   1.579   3.591 -1.5847  1.5756 -0.9242
  105MOL    H2929357   7.496   1.610   3.786 -0.8380 -2.0333 -0.7191
  105MOL    C3029358   6.889   1.692   3.437 -0.0608  0.3164  0.3121
  105MOL    C3129359   6.777   1.773   3.435  0.2399  0.2484 -0.3183
  105MOL    C3229360   6.685   1.768   3.324 -0.6550 -0.1679  0.8393
  105MOL    C3329361   6.713   1.686   3.208 -0.0714  0.1670 -0.7039
  105MOL    C3429362   6.622   1.660   3.094  0.4516  0.2504 -0.5071
  105MOL    C3529363   6.495   1.691   3.100  0.6749  0.8303 -0.1751
  105MOL    C3629364   6.840   1.619   3.206 -0.5806  0.0737  0.4631
  105MOL    C3729365   6.928   1.625   3.316  0.2763 -1.3440 -0.5031
  105MOL    H3829366   6.744   1.825   3.523  0.5348 -1.9329  1.1210
  105MOL    H3929367   6.603   1.838   3.323 -0.6903 -0.2062  1.0919
  105MOL    H4029368   6.671   1.624   3.005  1.0565  0.7884 -0.4004
  105MOL    H4129369   6.456   1.724   3.195  0.5880  0.4558 -0.0794
  105MOL    H4229370   6.865   1.553   3.125 -0.5335  0.6777 -0.0182
  105MOL    H4329371   7.027   1.584   3.306  1.1340  0.6996 -0.8068
  105MOL    C4429372   6.393   1.678   2.990  0.1292  0.4493  0.0425
  105MOL    C4529373   6.262   1.702   3.028 -0.8815 -0.2364  0.4609
  105MOL    C4629374   6.158   1.711   2.934  0.3170 -0.6302 -0.8612
  105MOL    C4729375   6.178   1.682   2.801  0.2227 -0.1888  0.4481
  105MOL    C4829376   6.085   1.671   2.691  0.1890  0.2983  0.5354
  105MOL    C4929377   5.953   1.659   2.712 -0.3470  0.3394 -0.4939
  105MOL    C5029378   6.310   1.645   2.764  0.4668  0.1350  0.3348
  105MOL    C5129379   6.415   1.634   2.859  0.7158 -0.1272 -0.0240
  105MOL    H5229380   6.237   1.733   3.128  1.9470  0.2505  1.0594
  105MOL    H5329381   6.059   1.719   2.976  1.2587  0.1024  1.3168
  105MOL    H5429382   6.123   1.670   2.590  1.9903 -1.5956  1.1965
  105MOL    H5529383   5.938   1.661   2.819 -0.5950  2.4086 -0.5443
  105MOL    H5629384   6.334   1.613   2.664  0.6801 -0.2222  0.5006
  105MOL    H5729385   6.517   1.607   2.839  1.0992  0.5646  0.9899
  105MOL    C5829386   5.847   1.651   2.610 -0.5023 -0.5779  0.2817
  105MOL    C5929387   5.714   1.625   2.651  0.9532  0.3085 -0.5712
  105MOL    C6029388   5.613   1.619   2.549 -0.0850  0.0113  0.0274
  105MOL    C6129389   5.640   1.631   2.412  0.3597  0.4423 -0.7046
  105MOL    C6229390   5.523   1.631   2.319 -0.2758 -0.3148  0.0174
  105MOL    C6329391   5.537   1.648   2.185 -0.0241  0.6103 -0.0789
  105MOL    C6429392   5.770   1.665   2.379 -0.5037  0.0432  0.3886
  105MOL    C6529393   5.879   1.661   2.469  0.1835 -0.0469 -1.0955
  105MOL    H6629394   5.682   1.595   2.750 -0.8345 -0.0677 -1.2303
  105MOL    H6729395   5.512   1.591   2.575  0.3452 -0.7695  0.8961
  105MOL    H6829396   5.426   1.618   2.365 -0.4546  0.8749 -0.0005
  105MOL    H6929397   5.636   1.669   2.147 -0.0347  1.8726  0.5744
  105MOL    H7029398   5.799   1.682   2.276 -1.4734 -0.2922  0.0453
  105MOL    H7129399   5.980   1.673   2.434  0.8225 -2.8176 -0.3041
  105MOL    C7229400   5.423   1.651   2.093 -0.2709  1.5002  0.3130
  105MOL    C7329401   5.288   1.640   2.128 -0.4465 -0.2772  0.0544
  105MOL    C7429402   5.188   1.620   2.037 -0.1734  0.3582 -0.2950
  105MOL    C7529403   5.213   1.613   1.901 -0.6077 -0.1950  0.1243
  105MOL    C7629404   5.108   1.579   1.806  0.0764  0.5902 -0.4907
  105MOL    C7729405   5.114   1.590   1.674  0.5010 -1.2329  1.2415
  105MOL    C7829406   5.347   1.630   1.855 -0.4213  0.2446 -0.0033
  105MOL    C7929407   5.447   1.645   1.952 -0.3514 -0.3664 -0.1920
  105MOL    H8029408   5.266   1.646   2.234  1.6811  0.2420  0.4994
  105MOL    H8129409   5.090   1.621   2.081 -0.6119 -1.6458 -1.1825
  105MOL    H8229410   5.014   1.549   1.851  0.5099 -0.0215  0.0166
  105MOL    H8329411   5.203   1.623   1.621  0.0277 -0.3098  1.0166
  105MOL    H8429412   5.378   1.618   1.752 -1.2421 -0.8529 -0.1374
  105MOL    H8529413   5.552   1.644   1.925 -0.4062  0.2999 -0.4317
  105MOL    C8629414   5.016   1.544   1.578  0.0644  1.0828  0.2761
  105MOL    C8729415   4.898   1.479   1.618 -0.0176  0.4168 -0.0571
  105MOL    C8829416   4.812   1.424   1.522 -0.3704  0.0352 -1.1933
  105MOL    C8929417   4.832   1.442   1.388  0.1797  0.1877  0.3419
  105MOL    C9029418   4.753   1.365   1.284 -0.4532 -0.5869  0.0922
  105MOL    C9129419   4.752   1.394   1.152  0.4060  0.6822  0.2283
  105MOL    C9229420   4.943   1.516   1.346 -0.4530 -0.8169  0.4996
  105MOL    C9329421   5.035   1.564   1.438 -0.3047 -0.1510  0.4369
  105MOL    H9429422   4.882   1.453   1.722 -4.7605  0.5414 -0.6272
  105MOL    H9529423   4.729   1.366   1.560  2.0353 -2.2077  0.8491
  105MOL    H9629424   4.709   1.278   1.332 -1.3055 -0.5807 -0.6587
  105MOL    H9729425   4.806   1.479   1.113  1.9741 -0.5743 -0.3714
  105MOL    H9829426   4.961   1.526   1.240 -4.1560  1.3443 -0.0219
  105MOL    H9929427   5.125   1.600   1.391  0.3568 -1.0200  1.0095
  105MOL   C10029428   4.678   1.313   1.050  0.7531 -0.6961 -0.1767
  105MOL   C10129429   4.652   1.361   0.924 -0.2948  0.0278 -0.4199
  105MOL   C10229430   4.580   1.288   0.825 -0.2399  0.0003  0.3949
  105MOL   C10329431   4.557   1.150   0.845  0.5181  0.7445 -0.6829
  105MOL   C10429432   4.509   1.058   0.733  0.2041 -0.9527 -0.0737
  105MOL   C10529433   4.526   0.927   0.731  0.1986  0.2030  1.4737
  105MOL   C10629434   4.574   1.098   0.979  0.6954  0.0078  0.7149
  105MOL   C10729435   4.632   1.182   1.080  0.0400 -0.1516 -0.3897
  105MOL   H10829436   4.686   1.462   0.907 -1.7527  0.3309 -1.6552
  105MOL   H10929437   4.571   1.336   0.728 -1.0867 -0.6799  0.1267
  105MOL   H11029438   4.441   1.106   0.663 -1.0999 -0.4020  1.5277
  105MOL   H11129439   4.590   0.885   0.808 -0.8421 -3.9918  0.1953
  105MOL   H11229440   4.547   0.996   1.004 -0.6662  0.0113 -0.6846
  105MOL   H11329441   4.632   1.142   1.181  0.0758  1.5673  0.3093
  105MOL   C11429442   4.468   0.833   0.635 -0.1515  0.2483  0.0999
  105MOL   C11529443   4.391   0.878   0.522  0.1960 -0.3994 -0.6112
  105MOL   C11629444   4.321   0.782   0.454 -0.3260  0.5053  0.3848
  105MOL   C11729445   4.330   0.639   0.473  0.3876 -0.4655  0.2379
  105MOL   C11829446   4.254   0.535   0.398  0.6815 -0.4175 -0.0906
  105MOL   C11929447   4.193   0.546   0.279  0.4236  0.2128 -0.0246
  105MOL   C12029448   4.405   0.600   0.584  0.1965  0.1327 -0.1472
  105MOL   C12129449   4.471   0.693   0.664 -0.3402  0.3112  0.1310
  105MOL   H12229450   4.383   0.983   0.500 -1.8357 -0.0449  1.6296
  105MOL   H12329451   4.259   0.820   0.375 -1.9546  0.7636  1.7735
  105MOL   H12429452   4.257   0.437   0.445 -2.0039  1.0721  3.4507
  105MOL   H12529453   4.176   0.643   0.235  1.7066  0.6481  0.4068
  105MOL   H12629454   4.424   0.496   0.604  2.3014  0.2055 -1.6074
  105MOL   H12729455   4.520   0.650   0.751 -1.3460  0.2043  0.6464
  105MOL   C12829456   4.140   0.421   0.220  0.9472  0.0567 -0.1508
  105MOL   C12929457   4.074   0.323   0.289  0.1071  0.1536  0.3122
  105MOL   C13029458   4.030   0.204   0.225 -0.6659  0.3037 -0.7480
  105MOL   C13129459   4.070   0.171   0.091  0.1448 -0.1926  0.1322
  105MOL   C13229460   4.067   0.030   0.033 -0.4229  0.5392  0.3316
  105MOL   C13329461   3.989   8.073   0.068 -0.3316 -0.2666 -0.1023
  105MOL   C13429462   4.137   0.271   0.020 -0.0189 -0.1308 -0.2165
  105MOL   C13529463   4.167   0.397   0.080 -0.1353 -0.5717  0.2469
  105MOL   H13629464   4.054   0.345   0.393  0.0187  3.3708 -0.3473
  105MOL   H13729465   3.970   0.130   0.276  2.2794 -0.0512  2.2863
  105MOL   H13829466   4.146   0.015   8.105  0.2991 -0.6640  1.3418
  105MOL   H13929467   3.912   8.094   0.139  0.4797  1.9871  0.1448
  105MOL   H14029468   4.167   0.258   8.062 -1.2816  0.1073 -0.6313
  105MOL   H14129469   4.218   0.473   0.022 -0.6715 -0.3025  0.1220
  105MOL   C14229470   4.015   7.935   0.029  0.3843  0.8024 -0.5333
  105MOL   C14329471   3.996   7.845   0.136 -0.1001  0.1739 -0.1508
  105MOL   C14429472   4.056   7.723   0.134  0.4011  0.2912 -0.1383
  105MOL   C14529473   4.122   7.677   0.015  0.0618 -0.5402 -0.5614
  105MOL   C14629474   4.187   7.544   0.001 -0.3975 -0.2627  1.7065
  105MOL   C14729475   4.220   7.465   0.102  1.1360  0.2851 -0.6409
  105MOL   C14829476   4.132   7.763   8.053  0.0662 -1.0137  0.6655
  105MOL   C14929477   4.082   7.889   8.053 -0.3824 -0.1545  0.9680
  105MOL   H15029478   3.954   7.874   0.231  0.6136  1.1098 -0.1067
  105MOL   H15129479   4.053   7.651   0.215  0.4837  0.4609  0.0172
  105MOL   H15229480   4.213   7.515   8.045  2.0777 -0.1453  2.2821
  105MOL   H15329481   4.192   7.498   0.201  2.0576  4.1839 -1.5956
  105MOL   H15429482   4.191   7.738   7.967 -1.0409  0.0658 -0.4193
  105MOL   H15529483   4.108   7.957   7.974 -1.5844  1.3926  1.8783
  105MOL   C15629484   4.295   7.337   0.101 -0.4921 -0.5871 -1.5054
  105MOL   C15729485   4.346   7.289   0.228  0.3231 -0.0078  0.2653
  105MOL   C15829486   4.442   7.184   0.225  0.3175  0.3910 -0.5340
  105MOL   C15929487   4.488   7.127   0.101 -0.0622  0.0312 -0.1510
  105MOL   C16029488   4.596   7.028   0.097 -0.2186 -0.3719  0.2757
  105MOL   C16129489   4.632   6.950   0.204  0.0459  0.0924  0.2644
  105MOL   C16229490   4.425   7.170   8.125 -0.7867  0.1689 -0.1113
  105MOL   C16329491   4.337   7.279   8.127  0.5751  0.2847 -0.2805
  105MOL   H16429492   4.317   7.317   0.328  0.5641 -0.6429  0.5101
  105MOL   H16529493   4.484   7.147   0.317 -3.0002 -0.5212  0.6823
  105MOL   H16629494   4.656   7.022   0.007  0.1044  1.6726  0.3331
  105MOL   H16729495   4.571   6.956   0.292  2.0469  0.0089  1.6886
  105MOL   H16829496   4.457   7.139   8.026 -0.6112 -0.2724  0.0842
  105MOL   H16929497   4.305   7.322   8.033  3.3032  2.6935 -0.1578
  105MOL   C17029498   4.740   6.849   0.209  0.8955  0.4111  0.0508
  105MOL   C17129499   4.803   6.799   0.093  0.0452 -0.3358 -0.0868
  105MOL   C17229500   4.923   6.726   0.106 -0.4445 -0.1998  0.1738
  105MOL   C17329501   4.968   6.692   0.238  0.3316 -0.9956  0.8899
  105MOL   C17429502   5.094   6.624   0.244 -0.7552  1.1143  0.0442
  105MOL   C17529503   5.134   6.547   0.348 -0.2496  0.5914  0.8138
  105MOL   C17629504   4.898   6.737   0.352  0.0228  0.6133 -0.2941
  105MOL   C17729505   4.786   6.817   0.337  0.0393 -0.6071  0.0549
  105MOL   H17829506   4.775   6.822   8.135 -1.2380  0.5301  0.4477
  105MOL   H17929507   4.969   6.703   0.010  1.4641  1.1248  0.7291
  105MOL   H18029508   5.165   6.647   0.167 -0.4236 -0.7543 -0.2228
  105MOL   H18129509   5.072   6.524   0.433 -2.4047  0.8083 -0.6822
  105MOL   H18229510   4.937   6.722   0.452  0.8473 -2.0582 -0.9519
  105MOL   H18329511   4.739   6.854   0.428 -0.1826  2.0759 -1.0947
  105MOL   C18429512   5.267   6.482   0.365 -0.4358 -0.3328  0.3114
  105MOL   C18529513   5.375   6.529   0.280 -0.1975 -0.3840 -0.3026
  105MOL   C18629514   5.505   6.474   0.298 -0.3346 -0.2024  0.1378
  105MOL   C18729515   5.525   6.382   0.407  0.2364 -0.7934  0.2751
  105MOL   C18829516   5.659   6.338   0.449  0.2533 -0.4959  0.5715
  105MOL   C18929517   5.778   6.354   0.393  0.1294 -0.6843 -0.4371
  105MOL   C19029518   5.418   6.334   0.484 -0.2668  0.1320  0.1400
  105MOL   C19129519   5.291   6.389   0.468 -0.5112 -0.4253 -0.5804
  105MOL   H19229520   5.372   6.603   0.202  3.4674 -0.9854 -1.1210
  105MOL   H19329521   5.588   6.507   0.237  0.7132 -0.2997  1.4806
  105MOL   H19429522   5.660   6.283   0.542  0.1976  0.0697  0.9124
  105MOL   H19529523   5.779   6.406   0.298 -0.1196  0.3261  0.1096
  105MOL   H19629524   5.426   6.251   0.552 -1.4432  0.2391  0.4212
  105MOL   H19729525   5.219   6.368   0.545  0.6612 -0.4782  0.5245
  105MOL   C19829526   5.905   6.314   0.449  0.0506 -0.4229 -0.9327
  105MOL   C19929527   5.926   6.275   0.583  1.2932 -0.1045  0.1347
  105MOL   C20029528   6.053   6.231   0.628  0.3864  0.3699  0.0220
  105MOL   C20129529   6.157   6.222   0.537 -0.2951 -0.4792 -0.1168
  105MOL   C20229530   6.293   6.191   0.585  0.5095  0.2801 -0.4287
  105MOL   C20329531   6.345   6.163   0.707 -0.4862  0.0234 -0.4216
  105MOL   C20429532   6.138   6.249   0.402  0.2798 -0.4643 -0.1916
  105MOL   C20529533   6.011   6.292   0.356  0.1939  0.6085  0.0562
  105MOL   H20629534   5.848   6.302   0.651 -0.8010  2.0218 -2.9855
  105MOL   H20729535   6.075   6.200   0.730  0.8729 -1.6611 -0.6865
  105MOL   H20829536   6.364   6.186   0.504  2.4864  0.5329  1.2226
  105MOL   H20929537   6.284   6.160   0.797 -0.3435 -1.9039 -0.3782
  105MOL   H21029538   6.222   6.244   0.335  1.2026 -2.3182  1.0438
  105MOL   H21129539   6.001   6.320   0.253  0.5577  0.1484 -0.1051
  105MOL   C21229540   6.488   6.136   0.734  0.6860 -0.7452 -0.0654
  105MOL   C21329541   6.589   6.189   0.649  0.2247  0.1174  0.2188
  105MOL   C21429542   6.727   6.174   0.680 -0.0557  0.7828 -0.0916
  105MOL   C21529543   6.761   6.102   0.792 -0.1647  0.4734  0.0124
  105MOL   C21629544   6.897   6.072   0.814 -0.1670  0.6501 -0.6169
  105MOL   C21729545   6.957   6.049   0.932 -0.9910 -0.2195 -0.5980
  105MOL   C21829546   6.660   6.051   0.879 -0.0395 -0.4091  0.4863
  105MOL   C21929547   6.525   6.064   0.854  0.1403 -0.1726  0.1494
  105MOL   H22029548   6.567   6.236   0.554  0.1525  0.4415  0.3931
  105MOL   H22129549   6.806   6.210   0.616  1.7466 -1.0449  1.0305
  105MOL   H22229550   6.951   6.080   0.721 -0.2596 -1.1516 -0.8480
  105MOL   H22329551   6.898   6.037   1.021 -1.0307  0.9022 -0.4651
  105MOL   H22429552   6.698   5.990   0.959  1.7451  1.0972  0.8359
  105MOL   H22529553   6.450   6.032   0.925  0.3142 -2.9619 -0.8736
  105MOL   C22629554   7.104   6.017   0.944 -0.1363  0.2213  0.4443
  105MOL   C22729555   7.148   5.974   1.069  0.0651  0.8438 -0.0609
  105MOL   C22829556   7.279   5.934   1.093 -0.0373 -0.0944 -0.4766
  105MOL   C22929557   7.373   5.948   0.988  0.3967 -0.2474  0.0280
  105MOL   C23029558   7.516   5.913   0.999 -0.5575  0.3332  0.3581
  105MOL   C23129559   7.580   5.893   1.115  0.8046  0.1005  0.0356
  105MOL   C23229560   7.333   5.994   0.860 -0.2472  0.4857 -0.3412
  105MOL   C23329561   7.198   6.025   0.838 -0.0595  0.0093 -0.3411
  105MOL   H23429562   7.069   5.963   1.141 -0.3360  2.3339 -0.2551
  105MOL   H23529563   7.313   5.895   1.188  0.6965  0.4334 -0.5211
  105MOL   H23629564   7.567   5.901   0.904 -2.0297  2.2864 -0.7135
  105MOL   H23729565   7.525   5.913   1.206  1.9003  1.7049  0.3717
  105MOL   H23829566   7.409   6.019   0.787  1.2109 -0.0773  0.9826
  105MOL   H23929567   7.173   6.067   0.742  0.8455  0.1894 -0.4980
  105MOL   C24029568   7.710   5.840   1.135 -0.9310 -0.4402  0.1776
  105MOL   C24129569   7.754   5.797   1.263 -0.1769 -0.0351  0.2971
  105MOL   C24229570   7.887   5.753   1.284  0.5356  0.0700 -0.5759
  105MOL   C24329571   7.974   5.755   1.176 -0.0948  0.3708  0.8621
  105MOL   C24429572   8.106   5.689   1.189  0.9516 -1.0976 -0.1619
  105MOL   C24529573   8.143   5.625   1.301  0.6575  0.0157  0.4846
  105MOL   C24629574   7.939   5.807   1.048 -0.0888  0.1247  0.1259
  105MOL   C24729575   7.806   5.844   1.033  0.8491 -0.0912 -0.1150
  105MOL   H24829576   7.686   5.807   1.346  0.0048  0.9576  0.3327
  105MOL   H24929577   7.926   5.713   1.377  0.8420 -0.7908 -1.0747
  105MOL   H25029578   0.028   5.694   1.105  1.4033 -0.4185  0.2305
  105MOL   H25129579   8.077   5.614   1.385  0.2853  0.0126  0.1940
  105MOL   H25229580   8.005   5.808   0.962  1.2809 -0.3390  1.1549
  105MOL   H25329581   7.777   5.882   0.936  0.5545  1.3352  0.5280
  105MOL   C25429582   0.135   5.576   1.312 -0.4063 -0.3151 -0.8842
  105MOL   C25529583   0.224   5.563   1.201  0.2145 -0.5716  0.3441
  105MOL   C25629584   0.353   5.525   1.222 -0.0448  0.0675 -0.0200
  105MOL   C25729585   0.402   5.499   1.348 -0.5196  0.0965 -0.3750
  105MOL   C25829586   0.542   5.456   1.361 -0.5764 -0.2506  0.1457
  105MOL   C25929587   0.603   5.360   1.438 -0.2101  0.3394  0.6886
  105MOL   C26029588   0.311   5.495   1.455  0.4644 -0.4875 -0.8083
  105MOL   C26129589   0.176   5.537   1.440 -0.0956 -0.9622 -0.2187
  105MOL   H26229590   0.198   5.582   1.098 -1.7066 -1.6356  0.6284
  105MOL   H26329591   0.422   5.518   1.138 -0.9916  0.3646 -0.8396
  105MOL   H26429592   0.607   5.510   1.293 -0.8768 -2.0106 -1.5791
  105MOL   H26529593   0.711   5.356   1.428 -0.2238 -2.3018  1.3547
  105MOL   H26629594   0.349   5.476   1.554  1.3248  0.1017 -1.0179
  105MOL   H26729595   0.109   5.538   1.525 -0.0358 -1.1465 -0.1681
  105MOL   C26829596   0.556   5.261   1.535 -0.5392 -0.9503  0.6452
  105MOL   C26929597   0.423   5.228   1.550 -0.4554  0.2182  0.8274
  105MOL   C27029598   0.374   5.165   1.671 -0.2438 -0.2877  1.0303
  105MOL   C27129599   0.466   5.120   1.768 -0.7259 -0.2468 -0.2961
  105MOL   C27229600   0.416   5.038   1.881  0.7707  0.5456 -0.5094
  105MOL   C27329601   0.489   4.980   1.980 -0.3515  0.8092  0.2901
  105MOL   C27429602   0.601   5.140   1.749  0.4383 -0.1270 -0.1664
  105MOL   C27529603   0.645   5.215   1.640 -0.4156 -0.7552  0.6269
  105MOL   H27629604   0.351   5.254   1.475  2.5054 -0.2693 -2.3194
  105MOL   H27729605   0.267   5.148   1.679 -0.3812 -1.6230 -2.6681
  105MOL   H27829606   0.310   5.022   1.870  0.6346  0.8891  0.2781
  105MOL   H27929607   0.596   4.990   1.992 -0.3165 -0.3511  0.9795
  105MOL   H28029608   0.671   5.098   1.820  0.6962 -1.6466 -1.3037
  105MOL   H28129609   0.749   5.245   1.640 -0.7527  0.4050  1.1657
  105MOL   H28229610   0.440   4.919   2.054  0.6609  1.1774  1.2807
  106MOL     C129611   3.679   5.547   7.595 -0.7745 -0.1424  0.9765
  106MOL     C229612   3.790   5.452   7.588  0.6296  0.3126 -0.0914
  106MOL     C329613   3.916   5.497   7.551  0.1566 -0.2345 -0.8622
  106MOL     C429614   3.936   5.629   7.528  0.1424 -0.1691 -0.4124
  106MOL     C529615   4.070   5.665   7.483  0.1674  0.9325  0.7377
  106MOL     C629616   4.116   5.784   7.452 -0.2070  0.0302 -0.1828
  106MOL     C729617   3.835   5.722   7.543 -0.6223 -0.2200 -0.4339
  106MOL     C829618   3.702   5.682   7.568 -0.5737  0.3417  0.9499
  106MOL     H929619   3.774   5.348   7.610 -1.1841  1.1979  3.0066
  106MOL    H1029620   3.995   5.430   7.524  1.5763  1.4519 -0.9747
  106MOL    H1129621   4.135   5.578   7.480 -2.8148 -1.4052  1.2093
  106MOL    H1229622   4.052   5.870   7.462 -0.9595 -0.5998  0.5383
  106MOL    H1329623   3.870   5.820   7.514  1.5402 -0.9309 -0.2915
  106MOL    H1429624   3.629   5.761   7.561 -0.9502 -0.0880 -0.0399
  106MOL    H1529625   3.581   5.506   7.614 -0.3272 -2.1688 -0.8411
  106MOL    C1629626   4.252   5.812   7.406 -0.1178 -0.2949  0.9910
  106MOL    C1729627   4.301   5.939   7.399 -0.4602  0.3438 -0.1498
  106MOL    C1829628   4.421   5.967   7.338  0.5119 -1.3994 -0.4512
  106MOL    C1929629   4.512   5.865   7.300  0.0013 -0.1419 -0.2719
  106MOL    C2029630   4.650   5.892   7.258  0.5716  0.6441 -0.1353
  106MOL    C2129631   4.706   6.005   7.217  0.2779 -0.2175 -0.7920
  106MOL    C2229632   4.474   5.733   7.304 -0.7766 -1.0194 -0.6631
  106MOL    C2329633   4.345   5.712   7.358  0.4156 -0.3098 -0.4458
  106MOL    H2429634   4.238   6.018   7.437 -0.3800  0.6451 -0.6393
  106MOL    H2529635   4.447   6.071   7.329 -0.5252 -1.2195 -1.5600
  106MOL    H2629636   4.712   5.803   7.261  1.2681  1.1672  1.4489
  106MOL    H2729637   4.650   6.097   7.213  0.4990 -0.0541 -0.2225
  106MOL    H2829638   4.535   5.651   7.270  0.5998 -0.6352  0.8345
  106MOL    H2929639   4.320   5.607   7.364  0.9333 -0.3909  0.4367
  106MOL    C3029640   4.844   6.023   7.176 -0.6367 -0.6782 -0.4412
  106MOL    C3129641   4.940   5.924   7.207 -0.0623 -0.2439 -0.2105
  106MOL    C3229642   5.073   5.927   7.159  0.7188  0.0197  0.4837
  106MOL    C3329643   5.107   6.049   7.088  0.3656  0.9114 -0.1462
  106MOL    C3429644   5.234   6.049   7.006 -0.0786  0.7871 -0.1049
  106MOL    C3529645   5.329   5.952   7.000  0.2261 -0.0867 -0.2472
  106MOL    C3629646   5.018   6.155   7.069  0.0703 -0.0362  0.3174
  106MOL    C3729647   4.887   6.144   7.114  0.1866  0.3316 -0.3400
  106MOL    H3829648   4.913   5.836   7.262  4.5143 -0.9449  1.0951
  106MOL    H3929649   5.137   5.841   7.171 -0.3573 -0.7797  0.6313
  106MOL    H4029650   5.249   6.137   6.945  0.2319  1.5897  1.1122
  106MOL    H4129651   5.330   5.857   7.051 -1.4816  0.0335  0.0573
  106MOL    H4229652   5.039   6.253   7.030 -1.1591  1.0102  2.1447
  106MOL    H4329653   4.815   6.223   7.101 -0.6522  0.0789  2.4504
  106MOL    C4429654   5.445   5.974   6.911 -0.5943 -1.1597  0.0748
  106MOL    C4529655   5.496   6.101   6.881 -0.1771 -0.2532  0.0527
  106MOL    C4629656   5.606   6.106   6.791 -0.7221 -0.2612 -0.1662
  106MOL    C4729657   5.654   5.984   6.725  0.1687 -0.0650 -0.6533
  106MOL    C4829658   5.762   6.003   6.628  0.7345  0.3567 -0.2254
  106MOL    C4929659   5.830   5.906   6.575 -0.8860 -0.3331 -0.3694
  106MOL    C5029660   5.595   5.861   6.751  0.0211 -0.3840  0.6011
  106MOL    C5129661   5.495   5.851   6.849 -0.2721 -1.2021 -0.2021
  106MOL    H5229662   5.452   6.191   6.922 -0.8303 -1.1374  1.3308
  106MOL    H5329663   5.646   6.206   6.779 -2.4774  0.5684  0.6313
  106MOL    H5429664   5.789   6.102   6.595 -1.3321  1.2103  0.5678
  106MOL    H5529665   5.806   5.803   6.599  0.0632  0.0752  2.4864
  106MOL    H5629666   5.603   5.770   6.693 -1.4617 -0.1028 -0.0460
  106MOL    H5729667   5.433   5.765   6.870  1.2678 -1.9674  1.3264
  106MOL    C5829668   5.933   5.923   6.467  0.0402  0.0810  0.3541
  106MOL    C5929669   5.960   6.045   6.402  0.0869 -0.1564 -0.8235
  106MOL    C6029670   6.047   6.052   6.291  0.4237  0.7870 -0.1986
  106MOL    C6129671   6.116   5.942   6.247 -0.2594 -0.2342 -0.7587
  106MOL    C6229672   6.188   5.942   6.116 -0.1896  0.2332  0.6754
  106MOL    C6329673   6.200   6.052   6.035  0.7514  0.2796  0.0684
  106MOL    C6429674   6.097   5.817   6.309  0.4689  0.1311  0.2635
  106MOL    C6529675   6.010   5.809   6.421 -0.6318 -0.3713  0.4207
  106MOL    H6629676   5.914   6.136   6.436  0.4964 -0.3300  0.2428
  106MOL    H6729677   6.050   6.144   6.234 -1.9681  2.1290  1.7421
  106MOL    H6829678   6.229   5.848   6.081  0.7232  1.1993 -0.9280
  106MOL    H6929679   6.159   6.150   6.057 -2.3076 -0.6453 -1.3850
  106MOL    H7029680   6.157   5.738   6.268 -1.5516 -0.9038 -0.7334
  106MOL    H7129681   6.002   5.712   6.470  0.6964 -0.5669  0.2676
  106MOL    C7229682   6.269   6.049   5.904 -0.1750  0.5095 -0.0081
  106MOL    C7329683   6.359   5.939   5.867  0.3884 -0.6279 -0.5535
  106MOL    C7429684   6.441   5.950   5.756  0.5665  0.2838 -0.2061
  106MOL    C7529685   6.428   6.068   5.677 -0.3576 -0.1917 -0.9199
  106MOL    C7629686   6.508   6.079   5.554 -0.4940  0.5994 -0.3880
  106MOL    C7729687   6.517   6.183   5.469 -0.4221  0.5269  0.9529
  106MOL    C7829688   6.335   6.166   5.708  0.1380 -0.0236 -0.2746
  106MOL    C7929689   6.262   6.163   5.824  0.1918  0.5279 -0.0641
  106MOL    H8029690   6.374   5.858   5.938 -0.1016  1.1077  1.5756
  106MOL    H8129691   6.515   5.877   5.727  2.5811  2.0094  0.5482
  106MOL    H8229692   6.560   5.991   5.520 -1.8619  0.1977 -1.4965
  106MOL    H8329693   6.458   6.270   5.493  1.3680  2.0619 -0.1042
  106MOL    H8429694   6.321   6.250   5.642  0.6907 -0.5753 -1.0965
  106MOL    H8529695   6.193   6.246   5.835  0.7530  0.7409  2.0525
  106MOL    C8629696   6.603   6.185   5.349 -0.0799 -1.1589  0.2684
  106MOL    C8729697   6.579   6.287   5.255 -0.3675 -0.5428  0.8547
  106MOL    C8829698   6.638   6.289   5.126  0.4104  0.0191  0.0572
  106MOL    C8929699   6.721   6.185   5.090 -0.2324 -0.2727 -0.6094
  106MOL    C9029700   6.775   6.179   4.958 -0.0784  0.0796  0.6404
  106MOL    C9129701   6.736   6.248   4.848  0.0377 -0.3651 -0.0663
  106MOL    C9229702   6.749   6.081   5.181 -0.1749 -0.4482  0.1611
  106MOL    C9329703   6.697   6.081   5.312 -0.0889  0.2026  0.5929
  106MOL    H9429704   6.514   6.368   5.286  0.8757  1.3387 -1.2685
  106MOL    H9529705   6.605   6.369   5.061  0.2147 -0.1491 -0.0530
  106MOL    H9629706   6.844   6.098   4.942 -0.8985 -0.5133  0.0815
  106MOL    H9729707   6.659   6.322   4.863  2.0078  1.6697  0.2286
  106MOL    H9829708   6.808   5.999   5.143  1.7042  0.1314  1.7638
  106MOL    H9929709   6.700   5.993   5.373 -0.2879  1.1723  2.0221
  106MOL   C10029710   6.777   6.235   4.710  0.5491  0.5128 -0.5853
  106MOL   C10129711   6.696   6.302   4.618 -0.0360 -0.6060  0.2339
  106MOL   C10229712   6.728   6.287   4.481  0.9789 -0.3167 -0.6522
  106MOL   C10329713   6.832   6.205   4.436  0.0827 -1.0283  0.4524
  106MOL   C10429714   6.854   6.197   4.291  0.1073 -0.0692 -0.4810
  106MOL   C10529715   6.933   6.114   4.224  0.2003  0.5828  0.3961
  106MOL   C10629716   6.911   6.135   4.527 -0.3777 -0.2137  0.5707
  106MOL   C10729717   6.881   6.151   4.665  0.2882 -0.3686  0.0405
  106MOL   H10829718   6.613   6.370   4.631 -0.3882 -0.8367 -0.7051
  106MOL   H10929719   6.663   6.333   4.407  0.1179 -1.1054 -0.4004
  106MOL   H11029720   6.807   6.274   4.232  2.0434  1.3367 -0.2288
  106MOL   H11129721   6.982   6.035   4.279  0.2323 -0.4671 -1.1033
  106MOL   H11229722   6.987   6.064   4.498  1.2934  1.4920  0.7000
  106MOL   H11329723   6.926   6.092   4.743  0.9334 -0.2889 -0.2666
  106MOL   C11429724   6.953   6.115   4.079  0.0061  0.4600 -0.5574
  106MOL   C11529725   6.862   6.186   3.997 -0.2623 -0.3805 -0.2494
  106MOL   C11629726   6.888   6.197   3.858  0.0230 -0.1119 -0.5284
  106MOL   C11729727   7.005   6.136   3.800 -0.5400 -0.1955  0.1225
  106MOL   C11829728   7.042   6.135   3.655 -0.3420 -0.2269  0.2614
  106MOL   C11929729   6.963   6.181   3.561  0.6065 -0.8829 -1.0367
  106MOL   C12029730   7.093   6.067   3.887  0.3635 -0.0340  0.6201
  106MOL   C12129731   7.072   6.060   4.023  0.0036  0.8603  0.5914
  106MOL   H12229732   6.777   6.243   4.033 -0.9286  0.3427 -2.8341
  106MOL   H12329733   6.823   6.260   3.799 -0.0944  0.2884  0.0235
  106MOL   H12429734   7.138   6.088   3.642 -0.9132 -1.2132 -0.4071
  106MOL   H12529735   6.877   6.234   3.597  1.2122 -1.8700  1.9988
  106MOL   H12629736   7.178   6.015   3.846  0.1843 -1.3583  1.8747
  106MOL   H12729737   7.142   6.012   4.089  1.0649  0.2861 -0.9006
  106MOL   C12829738   6.979   6.168   3.414 -0.0375  0.6585  0.2270
  106MOL   C12929739   6.880   6.218   3.329  0.5094  0.7402 -0.4089
  106MOL   C13029740   6.881   6.187   3.192  0.0352  0.3112 -0.2598
  106MOL   C13129741   6.977   6.101   3.140 -0.3917  0.3722  0.3275
  106MOL   C13229742   6.977   6.065   2.992  0.2755 -0.5044  0.6649
  106MOL   C13329743   7.064   5.973   2.937  0.0173  0.7060 -0.3523
  106MOL   C13429744   7.080   6.060   3.227 -0.1111 -0.4613 -0.7399
  106MOL   C13529745   7.089   6.098   3.363  0.9181  0.3061  0.6514
  106MOL   H13629746   6.801   6.278   3.372 -0.7251 -0.2568 -1.2423
  106MOL   H13729747   6.801   6.216   3.125  0.3509 -0.0977 -0.8210
  106MOL   H13829748   6.895   6.103   2.933 -0.3402 -1.6585  0.7654
  106MOL   H13929749   7.136   5.931   3.005  1.2330 -0.7707 -2.5328
  106MOL   H14029750   7.164   5.998   3.200 -0.6849 -1.3034 -0.5978
  106MOL   H14129751   7.161   6.045   3.423 -0.1692 -2.2983 -0.2654
  106MOL   C14229752   7.062   5.937   2.797 -0.2997  0.6969 -0.4368
  106MOL   C14329753   6.985   6.011   2.702  0.2248  0.0783 -0.4226
  106MOL   C14429754   6.972   5.963   2.568 -0.1687  0.5012  0.3397
  106MOL   C14529755   7.057   5.852   2.529  0.0256 -0.3782 -0.1325
  106MOL   C14629756   7.050   5.811   2.390 -0.2243  0.3361  0.8920
  106MOL   C14729757   7.162   5.791   2.319 -0.0594  0.8585  0.4433
  106MOL   C14829758   7.138   5.785   2.619 -0.4206  0.3367  0.0221
  106MOL   C14929759   7.125   5.816   2.758 -0.2165  0.5564 -0.5952
  106MOL   H15029760   6.943   6.108   2.725  1.8521  0.2564  1.9637
  106MOL   H15129761   6.924   6.019   2.490 -1.1322 -1.3182 -0.4068
  106MOL   H15229762   6.950   5.805   2.349 -1.1197 -0.0515  3.0599
  106MOL   H15329763   7.255   5.809   2.371 -0.1644  2.2128  0.1672
  106MOL   H15429764   7.189   5.698   2.581 -1.2273 -0.9159  1.6968
  106MOL   H15529765   7.178   5.758   2.830  0.2805  0.2328 -1.2175
  106MOL   C15629766   7.169   5.740   2.182  1.3119  0.3977 -0.5869
  106MOL   C15729767   7.293   5.746   2.117 -0.5747  0.1327 -0.0206
  106MOL   C15829768   7.311   5.701   1.986 -0.1452 -0.1135 -0.2163
  106MOL   C15929769   7.197   5.651   1.919  0.3900 -0.1953 -0.0451
  106MOL   C16029770   7.194   5.612   1.778  0.7416 -0.0763 -0.2011
  106MOL   C16129771   7.303   5.612   1.698 -0.1323 -0.2269  1.0791
  106MOL   C16229772   7.067   5.650   1.985 -0.1158 -0.2852  0.4484
  106MOL   C16329773   7.052   5.695   2.116 -0.0533 -0.4252 -0.0958
  106MOL   H16429774   7.379   5.787   2.169 -0.9653  3.3709 -1.7835
  106MOL   H16529775   7.410   5.700   1.943 -1.1119 -0.9262 -2.5139
  106MOL   H16629776   7.100   5.582   1.735  0.2305 -0.2245  0.9922
  106MOL   H16729777   7.401   5.637   1.737  0.1150  0.6408 -0.0803
  106MOL   H16829778   6.973   5.627   1.936 -0.1349  1.4996 -0.4050
  106MOL   H16929779   6.953   5.698   2.159  0.2345  0.6655  0.5314
  106MOL   C17029780   7.304   5.584   1.549  0.4529  0.2075 -1.4964
  106MOL   C17129781   7.198   5.522   1.480 -0.2884  0.1229 -0.3265
  106MOL   C17229782   7.204   5.514   1.344 -0.3516 -0.0728  0.6578
  106MOL   C17329783   7.318   5.553   1.266 -0.1679  0.2185  0.0140
  106MOL   C17429784   7.309   5.549   1.114 -0.0873 -0.6045 -0.0699
  106MOL   C17529785   7.411   5.590   1.035  0.5129 -1.6117  0.0829
  106MOL   C17629786   7.429   5.602   1.337  0.8084 -0.3078  0.8383
  106MOL   C17729787   7.422   5.615   1.479 -0.4356 -0.3023  0.0005
  106MOL   H17829788   7.109   5.488   1.530 -0.5115  0.5319 -0.4451
  106MOL   H17929789   7.122   5.465   1.294 -1.0410  0.0187  1.6785
  106MOL   H18029790   7.223   5.511   1.061  0.7880 -1.0913 -1.1715
  106MOL   H18129791   7.508   5.613   1.077 -0.3825  0.4249  1.1239
  106MOL   H18229792   7.524   5.617   1.286 -0.1412 -2.8635 -1.8106
  106MOL   H18329793   7.501   5.667   1.531 -0.8909  0.2946  0.1014
  106MOL   C18429794   7.397   5.609   0.887  0.3430 -0.3389  0.5947
  106MOL   C18529795   7.275   5.604   0.812 -0.1978 -0.0243 -0.8170
  106MOL   C18629796   7.276   5.658   0.678  0.3762 -0.2720  0.1388
  106MOL   C18729797   7.392   5.703   0.615 -0.2388 -0.0100 -1.1250
  106MOL   C18829798   7.385   5.760   0.478 -0.0400  0.3974  1.0961
  106MOL   C18929799   7.281   5.779   0.395  0.3661  0.2743 -0.9860
  106MOL   C19029800   7.516   5.689   0.687  0.1045 -0.4584  0.4431
  106MOL   C19129801   7.515   5.640   0.817  0.2201  0.4838 -0.2577
  106MOL   H19229802   7.183   5.568   0.856 -0.5550  1.6856 -0.0901
  106MOL   H19329803   7.183   5.663   0.625  0.7473 -2.0053 -0.6955
  106MOL   H19429804   7.482   5.779   0.435 -0.4861 -0.8684 -0.4803
  106MOL   H19529805   7.183   5.743   0.422  1.0342 -0.3985  0.5807
  106MOL   H19629806   7.613   5.720   0.650 -0.1779 -1.1630 -0.9126
  106MOL   H19729807   7.611   5.632   0.866  1.0922  1.2669 -1.8021
  106MOL   C19829808   7.290   5.846   0.268 -0.8056  0.1688  0.6610
  106MOL   C19929809   7.172   5.861   0.197  0.7098 -0.0683 -0.4949
  106MOL   C20029810   7.168   5.944   0.079  0.0606  0.3410  0.3198
  106MOL   C20129811   7.275   6.024   0.044  0.2163 -0.8424  0.6007
  106MOL   C20229812   7.260   6.122   8.074  0.1883 -1.1007  0.2489
  106MOL   C20329813   7.160   6.119   7.983  0.2079 -0.2349 -0.3950
  106MOL   C20429814   7.398   6.003   0.113  0.0676  0.5286  0.8832
  106MOL   C20529815   7.406   5.916   0.216 -0.2482  0.7047  0.4044
  106MOL   H20629816   7.083   5.815   0.236  1.0243  1.0038  1.5186
  106MOL   H20729817   7.072   5.965   0.034  0.1522  0.0431 -0.0216
  106MOL   H20829818   7.330   6.204   8.074  1.0618 -1.8296 -1.0571
  106MOL   H20929819   7.100   6.030   7.973 -0.5425  0.1935  0.2314
  106MOL   H21029820   7.489   6.052   0.082 -0.4139  1.7023  1.2992
  106MOL   H21129821   7.503   5.909   0.265  0.7000  0.8620 -1.4006
  106MOL   C21229822   7.138   6.226   7.885 -0.1860 -0.6846  0.8485
  106MOL   C21329823   7.228   6.336   7.869  0.2005 -0.2536  0.3058
  106MOL   C21429824   7.207   6.444   7.774  0.6344 -0.1653 -0.0365
  106MOL   C21529825   7.094   6.442   7.689 -0.1743 -0.4227 -0.7652
  106MOL   C21629826   7.074   6.564   7.604  0.5638 -0.2945  0.3218
  106MOL   C21729827   6.968   6.597   7.524 -0.3117 -0.3054 -0.4158
  106MOL   C21829828   7.003   6.331   7.707  0.6043 -0.5891  0.1382
  106MOL   C21929829   7.023   6.222   7.797 -0.1038 -0.3502  0.0257
  106MOL   H22029830   7.312   6.347   7.936  1.2306  0.0300 -1.0253
  106MOL   H22129831   7.276   6.526   7.768  2.5169 -1.7227 -0.2166
  106MOL   H22229832   7.162   6.627   7.605  0.7493 -0.4422 -2.4843
  106MOL   H22329833   6.878   6.537   7.528  0.4910 -1.5383 -0.6723
  106MOL   H22429834   6.920   6.334   7.637 -0.3249 -0.8505  1.2170
  106MOL   H22529835   6.948   6.144   7.807  1.6504 -2.0088  0.7119
  106MOL   C22629836   6.977   6.723   7.439  0.2833  0.3327 -0.7220
  106MOL   C22729837   7.087   6.818   7.441 -0.1469  0.0324  0.7848
  106MOL   C22829838   7.093   6.921   7.342 -0.1784 -0.2364 -0.4752
  106MOL   C22929839   6.989   6.934   7.253 -0.1734  0.6378 -0.1048
  106MOL   C23029840   6.974   7.050   7.163  0.4177  0.1066 -0.4153
  106MOL   C23129841   7.060   7.153   7.161 -0.1543 -0.0511  0.2703
  106MOL   C23229842   6.880   6.844   7.251  0.1049  0.0018 -0.4440
  106MOL   C23329843   6.870   6.736   7.344 -0.1169 -0.3200 -0.8392
  106MOL   H23429844   7.162   6.811   7.519 -0.4498  0.9593  1.1625
  106MOL   H23529845   7.169   6.998   7.343  0.9530 -1.2787  2.6728
  106MOL   H23629846   6.885   7.055   7.102  0.8074  1.3740 -0.8919
  106MOL   H23729847   7.154   7.143   7.212  0.3419  1.0387 -0.4096
  106MOL   H23829848   6.798   6.870   7.186  1.5721  3.6104 -0.9568
  106MOL   H23929849   6.789   6.665   7.343  0.0177 -0.4750 -0.8191
  106MOL   C24029850   7.041   7.280   7.088  0.4801 -0.2558  0.3177
  106MOL   C24129851   7.153   7.366   7.063 -0.4605 -0.3182  0.7229
  106MOL   C24229852   7.143   7.476   6.985  0.2189  0.7767  0.5099
  106MOL   C24329853   7.017   7.505   6.925 -0.4436  0.6207  0.4537
  106MOL   C24429854   6.992   7.622   6.844  0.7230 -0.0606  0.4062
  106MOL   C24529855   7.079   7.714   6.804  0.3707  0.0516 -0.1031
  106MOL   C24629856   6.909   7.418   6.934 -0.2670 -0.5904  0.7288
  106MOL   C24729857   6.920   7.307   7.021 -0.2728 -0.9707 -0.1441
  106MOL   H24829858   7.241   7.337   7.119 -0.7975 -2.6153  0.1191
  106MOL   H24929859   7.225   7.543   6.968  0.4636  0.4881  0.5519
  106MOL   H25029860   6.891   7.643   6.812  1.0014  1.7216  0.6497
  106MOL   H25129861   7.181   7.698   6.835  0.3882  0.5976  0.1360
  106MOL   H25229862   6.817   7.432   6.878  1.0513  2.2868 -0.8005
  106MOL   H25329863   6.826   7.267   7.054 -0.5604  1.1942  1.8376
  106MOL   C25429864   7.042   7.830   6.719 -0.4078 -0.4712 -0.1263
  106MOL   C25529865   7.130   7.936   6.701 -0.1378  0.1596  0.1906
  106MOL   C25629866   7.104   8.048   6.622  0.0241  0.6815 -0.3497
  106MOL   C25729867   6.976   8.061   6.564  0.7586  0.0535  0.6693
  106MOL   C25829868   6.919   0.044   6.516  0.1911  0.0799  0.0007
  106MOL   C25929869   6.844   0.076   6.405  0.7231 -0.2322 -0.0416
  106MOL   C26029870   6.892   7.942   6.555 -0.8288  0.0568  0.2453
  106MOL   C26129871   6.922   7.836   6.643 -0.4742  0.5376 -0.3921
  106MOL   H26229872   7.231   7.939   6.740 -0.5704 -0.1971  1.3514
  106MOL   H26329873   7.177   8.127   6.630  1.2737 -0.5679  0.6813
  106MOL   H26429874   6.948   0.123   6.584 -2.3427  0.8330  0.2426
  106MOL   H26529875   6.813   0.179   6.401 -1.8627 -0.9953 -0.3104
  106MOL   H26629876   6.795   7.959   6.509 -1.3242  0.5925  1.4665
  106MOL   H26729877   6.856   7.752   6.652 -1.7673  1.5575 -0.2113
  106MOL   C26829878   6.798   8.136   6.300 -0.0394 -0.0413  0.5730
  106MOL   C26929879   6.882   8.062   6.218 -0.0935  0.2358  0.2521
  106MOL   C27029880   6.829   8.000   6.104 -0.1668  0.0916  0.0256
  106MOL   C27129881   6.692   7.975   6.085 -0.2291  0.3600 -1.0771
  106MOL   C27229882   6.633   7.893   5.975 -0.4075 -0.0930 -0.0101
  106MOL   C27329883   6.705   7.839   5.873 -0.0904 -0.0342  0.1033
  106MOL   C27429884   6.607   8.038   6.175 -0.6578  0.0383 -0.2308
  106MOL   C27529885   6.659   8.119   6.279  0.2634 -0.0284  0.3755
  106MOL   H27629886   6.987   8.073   6.242  0.3442  2.3345 -2.3272
  106MOL   H27729887   6.897   7.941   6.043  1.0590  1.2747  0.2256
  106MOL   H27829888   6.527   7.876   5.969 -0.3336 -0.3028 -0.7425
  106MOL   H27929889   6.813   7.846   5.863 -0.0270 -1.4829 -0.3431
  106MOL   H28029890   6.503   8.011   6.157 -0.0482 -2.6803  0.0914
  106MOL   H28129891   6.586   0.029   6.336 -0.4962  0.3466 -0.9114
  106MOL   H28229892   6.662   7.786   5.789  1.3592 -1.3660  0.1592
  107MOL     C129893   1.919   1.714   6.407 -0.0223  0.2702  0.0707
  107MOL     C229894   2.016   1.616   6.430 -0.8006  0.2305  0.7300
  107MOL     C329895   2.020   1.498   6.358 -0.2028  0.0554  0.8081
  107MOL     C429896   1.916   1.470   6.263  0.3350  0.1692 -0.1601
  107MOL     C529897   1.922   1.344   6.185 -0.3873  0.5639  0.6820
  107MOL     C629898   2.034   1.269   6.159  0.0694 -0.2432 -0.4779
  107MOL     C729899   1.813   1.564   6.247 -0.1826  0.6456  0.0529
  107MOL     C829900   1.811   1.687   6.316  0.5875 -0.1238 -0.2242
  107MOL     H929901   2.097   1.634   6.498  0.0180  1.0580 -0.4403
  107MOL    H1029902   2.096   1.425   6.383  0.6471  0.6560  0.0166
  107MOL    H1129903   1.826   1.316   6.146 -0.0057  0.1354  0.0401
  107MOL    H1229904   2.122   1.304   6.211  0.1765  0.3528 -1.0522
  107MOL    H1329905   1.748   1.546   6.162  0.5872 -1.0618 -0.2066
  107MOL    H1429906   1.735   1.759   6.291  1.2281  1.1742  1.4752
  107MOL    H1529907   1.925   1.797   6.476  1.2360 -0.7488  1.2058
  107MOL    C1629908   2.042   1.141   6.087  0.2615 -0.1371 -0.8357
  107MOL    C1729909   1.926   1.081   6.035 -0.0347 -0.0079  0.0622
  107MOL    C1829910   1.923   0.948   5.979 -0.1900 -0.0934 -0.2631
  107MOL    C1929911   2.045   0.875   5.982  0.7501 -1.1812  0.1818
  107MOL    C2029912   2.059   0.728   5.946  0.1403  0.4689  0.1946
  107MOL    C2129913   1.955   0.645   5.915 -0.1561 -0.6909  1.1338
  107MOL    C2229914   2.166   0.941   6.021 -0.1142  0.9866 -0.6697
  107MOL    C2329915   2.161   1.067   6.075 -0.2292 -0.4345  0.1376
  107MOL    H2429916   1.834   1.136   6.051  0.0717 -0.1019  0.9994
  107MOL    H2529917   1.829   0.907   5.946 -1.3909  1.1010  1.5647
  107MOL    H2629918   2.156   0.682   5.952  0.3403  1.1943  2.8332
  107MOL    H2729919   1.854   0.684   5.920 -1.3317 -3.4995 -0.0552
  107MOL    H2829920   2.256   0.881   6.027 -1.5531 -1.1952 -0.3760
  107MOL    H2929921   2.257   1.097   6.114  0.4267  1.4143 -2.8316
  107MOL    C3029922   1.966   0.509   5.866 -0.3992 -0.2562 -0.8927
  107MOL    C3129923   2.087   0.437   5.869 -0.1980  0.2632  0.5706
  107MOL    C3229924   2.087   0.305   5.827 -0.6227 -0.0664  0.0020
  107MOL    C3329925   1.971   0.242   5.806  0.1114 -0.3668  0.3503
  107MOL    C3429926   1.985   0.101   5.771 -0.7859  0.0201 -0.1182
  107MOL    C3529927   1.903   0.033   5.690 -0.1976  0.9388  0.1437
  107MOL    C3629928   1.850   0.308   5.805 -0.1490 -0.3247  1.3876
  107MOL    C3729929   1.845   0.444   5.831 -0.2518  0.6979  0.0956
  107MOL    H3829930   2.183   0.474   5.900  0.7304 -2.0655  0.5826
  107MOL    H3929931   2.181   0.252   5.817 -1.2408 -1.4382  1.4408
  107MOL    H4029932   2.073   0.052   5.811  1.2490  2.0262 -2.0003
  107MOL    H4129933   1.828   0.097   5.646  0.4375  0.3044 -1.9377
  107MOL    H4229934   1.761   0.249   5.790  0.3005 -0.2411 -2.2189
  107MOL    H4329935   1.746   0.488   5.838 -0.0334  1.2916 -0.6357
  107MOL    C4429936   1.910   8.035   5.648  0.5122 -0.0152  0.6990
  107MOL    C4529937   1.788   7.980   5.608  0.9165  0.0764  0.1027
  107MOL    C4629938   1.786   7.843   5.578  0.8905 -0.5541  0.1564
  107MOL    C4729939   1.900   7.755   5.608  0.5496 -0.7675  0.2215
  107MOL    C4829940   1.893   7.617   5.581  0.4337  0.1165 -0.0350
  107MOL    C4929941   1.787   7.550   5.532  0.1875  0.2809  0.1028
  107MOL    C5029942   2.017   7.821   5.650  0.2875  0.1865 -0.5736
  107MOL    C5129943   2.015   7.956   5.681 -0.0703  0.2439  0.2553
  107MOL    H5229944   1.706   8.048   5.590 -0.3137 -1.5958 -0.8283
  107MOL    H5329945   1.696   7.802   5.534  1.2255 -1.5876  0.4035
  107MOL    H5429946   1.977   7.553   5.603 -0.8059 -0.9723  1.6459
  107MOL    H5529947   1.700   7.609   5.504 -0.1666 -0.7483 -0.9923
  107MOL    H5629948   2.112   7.772   5.666 -0.2999 -0.4995  0.9221
  107MOL    H5729949   2.107   8.004   5.708  0.2712 -0.2281 -0.0622
  107MOL    C5829950   1.770   7.405   5.513 -0.6211  0.3490 -0.3171
  107MOL    C5929951   1.661   7.352   5.440  0.5293  0.4450  0.5424
  107MOL    C6029952   1.639   7.208   5.437  0.2648 -0.4863  0.0226
  107MOL    C6129953   1.723   7.128   5.516  0.5145 -0.6233 -0.2234
  107MOL    C6229954   1.704   6.986   5.511  0.2374  0.0414  0.5497
  107MOL    C6329955   1.799   6.891   5.541 -0.0178  0.2183 -0.0281
  107MOL    C6429956   1.832   7.185   5.592  0.3226  0.6873  0.5393
  107MOL    C6529957   1.855   7.323   5.585  0.0896  0.6142  0.0997
  107MOL    H6629958   1.596   7.420   5.387  1.2693  0.4700 -0.3424
  107MOL    H6729959   1.555   7.167   5.384  0.3910  1.1882 -1.5132
  107MOL    H6829960   1.605   6.960   5.477  1.6030 -1.3857 -2.4950
  107MOL    H6929961   1.895   6.918   5.584 -0.7033  2.0076  0.4273
  107MOL    H7029962   1.896   7.124   5.654  0.9034 -0.5877 -1.2676
  107MOL    H7129963   1.924   7.346   5.664  1.6300 -1.6913 -0.5300
  107MOL    C7229964   1.773   6.748   5.535  0.0984 -0.3344  0.2091
  107MOL    C7329965   1.654   6.687   5.487  0.3556 -0.0966 -0.2142
  107MOL    C7429966   1.639   6.547   5.493  0.7603  0.8352 -1.0162
  107MOL    C7529967   1.736   6.472   5.556 -0.0883  0.3732 -0.4294
  107MOL    C7629968   1.730   6.327   5.558  0.1175 -0.7769 -0.2160
  107MOL    C7729969   1.812   6.244   5.634  0.4878  0.0337 -0.2102
  107MOL    C7829970   1.858   6.531   5.606  0.0297  0.0420 -0.4861
  107MOL    C7929971   1.874   6.668   5.596  0.4335  0.4311 -0.4709
  107MOL    H8029972   1.575   6.745   5.441  0.6969 -1.2539 -2.3145
  107MOL    H8129973   1.559   6.508   5.431 -1.5494  2.7962  0.6123
  107MOL    H8229974   1.654   6.293   5.489 -0.0740 -1.1947  0.2006
  107MOL    H8329975   1.889   6.286   5.695 -1.8969  1.3656  1.9643
  107MOL    H8429976   1.945   6.477   5.637  0.5712  1.4206  0.4323
  107MOL    H8529977   1.966   6.711   5.634  1.1147 -0.0319 -1.5514
  107MOL    C8629978   1.815   6.097   5.635 -0.1359  0.0237  0.3208
  107MOL    C8729979   1.696   6.028   5.645 -0.9160 -0.9214 -0.2334
  107MOL    C8829980   1.690   5.891   5.640  0.6406 -0.1751  1.3083
  107MOL    C8929981   1.810   5.817   5.634 -0.7779  0.5393  0.0589
  107MOL    C9029982   1.801   5.673   5.637 -0.1158  0.1592  0.7988
  107MOL    C9129983   1.902   5.585   5.649 -0.2902 -0.3489  0.4121
  107MOL    C9229984   1.934   5.883   5.611 -0.4839  0.2169  0.0552
  107MOL    C9329985   1.937   6.027   5.615 -0.1256 -0.1992 -0.0868
  107MOL    H9429986   1.607   6.089   5.650  1.3832  2.5058  1.2963
  107MOL    H9529987   1.596   5.837   5.645 -0.6157  2.0586  2.8320
  107MOL    H9629988   1.701   5.634   5.629  0.3784 -0.8694 -0.4323
  107MOL    H9729989   2.002   5.624   5.660  0.1659 -1.0649 -1.1228
  107MOL    H9829990   2.028   5.834   5.590 -1.9302 -3.8701  2.6132
  107MOL    H9929991   2.032   6.075   5.597 -0.5139  0.3467 -0.6862
  107MOL   C10029992   1.890   5.442   5.657  0.3824 -0.0208  0.0007
  107MOL   C10129993   1.785   5.366   5.608 -0.1821  0.2511 -0.2246
  107MOL   C10229994   1.777   5.225   5.618 -0.2195  0.6196 -0.3702
  107MOL   C10329995   1.886   5.162   5.687 -0.1872  0.3287 -0.0381
  107MOL   C10429996   1.889   5.016   5.704  0.3161  0.0681  0.2611
  107MOL   C10529997   1.935   4.951   5.808 -0.9295 -0.4681  0.5299
  107MOL   C10629998   1.989   5.238   5.742 -0.6067  0.5330 -0.4601
  107MOL   C10729999   1.997   5.378   5.725  0.0757  0.5569  0.2200
  107MOL   H10830000   1.702   5.416   5.559  0.9712  2.3526 -0.0741
  107MOL   H10930001   1.691   5.161   5.600 -2.6126  3.0912  1.8548
  107MOL   H11030002   1.861   4.954   5.621 -0.5700 -0.8054  1.1950
  107MOL   H11130003   1.978   4.999   5.895  2.5784  0.2163 -1.4514
  107MOL   H11230004   2.066   5.195   5.804  0.1743  0.7632 -1.2583
  107MOL   H11330005   2.076   5.437   5.769  0.6675 -0.1969  0.1793
  107MOL   C11430006   1.928   4.808   5.833 -0.0522 -0.1289  0.6232
  107MOL   C11530007   2.032   4.729   5.884 -0.6096 -0.1971 -0.7613
  107MOL   C11630008   2.024   4.584   5.882 -0.3675  0.0163 -0.3470
  107MOL   C11730009   1.907   4.524   5.821  0.4428 -0.5645  0.2685
  107MOL   C11830010   1.900   4.381   5.813  0.5638  0.6403 -0.0554
  107MOL   C11930011   1.784   4.312   5.803 -0.0783 -0.0056 -0.1586
  107MOL   C12030012   1.796   4.606   5.785 -0.0796  0.1131 -0.6742
  107MOL   C12130013   1.811   4.745   5.789 -0.3252  0.1927  0.2008
  107MOL   H12230014   2.124   4.780   5.909  0.3168 -3.0850  2.0643
  107MOL   H12330015   2.106   4.522   5.915 -0.9107 -0.4811  0.0612
  107MOL   H12430016   1.997   4.334   5.816  0.8998  1.2092 -1.2691
  107MOL   H12530017   1.688   4.360   5.809  1.5889  3.4446  0.2236
  107MOL   H12630018   1.697   4.573   5.755 -0.8774  1.5184  0.3579
  107MOL   H12730019   1.732   4.817   5.771  1.9848  2.9691  0.7346
  107MOL   C12830020   1.781   4.167   5.800  0.4322 -0.2396  0.7317
  107MOL   C12930021   1.660   4.109   5.840  0.6297 -0.2369  0.1463
  107MOL   C13030022   1.642   3.977   5.798  0.0970  0.1510 -0.2009
  107MOL   C13130023   1.740   3.895   5.736 -0.1229 -0.3715 -0.4381
  107MOL   C13230024   1.713   3.753   5.700 -0.3294 -0.3355 -0.2875
  107MOL   C13330025   1.599   3.683   5.704 -0.9145 -0.3170 -0.0261
  107MOL   C13430026   1.866   3.954   5.707  0.3328  0.3796  0.3239
  107MOL   C13530027   1.883   4.089   5.738  0.6643  0.3146  0.2191
  107MOL   H13630028   1.581   4.166   5.886  1.4097  0.4633  0.6411
  107MOL   H13730029   1.548   3.933   5.826 -0.4163  1.6070  0.4342
  107MOL   H13830030   1.800   3.695   5.671 -0.7588 -0.3236 -1.6070
  107MOL   H13930031   1.515   3.742   5.737 -0.3626  0.3477  0.1949
  107MOL   H14030032   1.950   3.898   5.668 -0.5230 -0.6126 -0.1207
  107MOL   H14130033   1.975   4.135   5.704  0.7232  0.3972  0.4888
  107MOL   C14230034   1.586   3.546   5.665 -0.4512 -0.1515 -0.2809
  107MOL   C14330035   1.678   3.470   5.589  0.6597 -0.1724 -0.1197
  107MOL   C14430036   1.642   3.342   5.546 -0.1696 -0.2446 -0.1114
  107MOL   C14530037   1.516   3.289   5.573 -0.5471  0.2275  0.7638
  107MOL   C14630038   1.474   3.153   5.519 -0.4010  0.5888 -0.2848
  107MOL   C14730039   1.553   3.074   5.447 -0.1164  0.3312  0.5793
  107MOL   C14830040   1.427   3.363   5.650 -0.4688 -0.2753  0.4488
  107MOL   C14930041   1.470   3.490   5.707 -0.0714 -0.3950  0.5921
  107MOL   H15030042   1.777   3.508   5.568  0.0509  0.9153 -1.0973
  107MOL   H15130043   1.722   3.282   5.507 -1.7568 -2.6786  0.2895
  107MOL   H15230044   1.372   3.123   5.541  0.2669 -0.8282  0.8944
  107MOL   H15330045   1.658   3.094   5.430  0.7598 -2.6872  2.1068
  107MOL   H15430046   1.335   3.316   5.681 -0.4952 -0.7899 -0.3935
  107MOL   H15530047   1.394   3.542   5.764 -1.9936 -1.9459 -0.5380
  107MOL   C15630048   1.515   2.941   5.386  0.0383  0.0283  0.1616
  107MOL   C15730049   1.604   2.873   5.303 -0.1622 -0.0192  0.6519
  107MOL   C15830050   1.577   2.741   5.260  0.0799  0.5806  0.5687
  107MOL   C15930051   1.456   2.673   5.301 -0.2126 -1.0703  0.3024
  107MOL   C16030052   1.435   2.535   5.258 -0.4313 -0.2529  0.7534
  107MOL   C16130053   1.528   2.440   5.227 -0.0831  0.8630 -0.0786
  107MOL   C16230054   1.363   2.741   5.376 -0.0860  0.4606  0.0433
  107MOL   C16330055   1.394   2.868   5.423 -0.6333 -0.8547 -0.0017
  107MOL   H16430056   1.691   2.928   5.268 -0.2556  0.1353  0.6595
  107MOL   H16530057   1.641   2.691   5.188 -1.9397 -1.4137  0.1179
  107MOL   H16630058   1.331   2.508   5.247  0.1427 -2.0371 -0.5872
  107MOL   H16730059   1.630   2.458   5.256 -0.4065  0.2333  1.5403
  107MOL   H16830060   1.275   2.688   5.410  0.6647 -0.6448  0.3042
  107MOL   H16930061   1.323   2.926   5.480  0.7926  0.2692  0.6725
  107MOL   C17030062   1.498   2.307   5.172 -0.6127 -0.4232 -0.2851
  107MOL   C17130063   1.369   2.265   5.131  0.2330  0.2984  0.2511
  107MOL   C17230064   1.349   2.130   5.090 -0.6416  0.3162  0.9999
  107MOL   C17330065   1.456   2.040   5.083 -0.2442 -0.3731  0.1224
  107MOL   C17430066   1.431   1.896   5.060 -0.3516 -0.7830 -0.6752
  107MOL   C17530067   1.524   1.795   5.063  0.5321 -0.5176 -0.3522
  107MOL   C17630068   1.584   2.080   5.129  0.7380  0.2636  0.2937
  107MOL   C17730069   1.607   2.214   5.171  0.4724 -0.5869 -0.4987
  107MOL   H17830070   1.281   2.327   5.130 -0.1923 -0.2999  0.4834
  107MOL   H17930071   1.252   2.095   5.057  0.2090 -0.3563 -0.8374
  107MOL   H18030072   1.327   1.873   5.042 -0.5427 -0.7495  0.3605
  107MOL   H18130073   1.630   1.812   5.077  0.3796  0.6871 -0.6025
  107MOL   H18230074   1.667   2.011   5.123  0.5894  0.2322 -1.5115
  107MOL   H18330075   1.707   2.242   5.199  0.9800 -0.5250 -2.3159
  107MOL   C18430076   1.491   1.650   5.042 -0.1783 -1.1904 -0.8564
  107MOL   C18530077   1.408   1.603   4.941  0.3795  0.8969  0.2840
  107MOL   C18630078   1.388   1.464   4.927 -0.3784  0.2419 -0.4597
  107MOL   C18730079   1.460   1.372   5.006  0.2050  0.2451  0.3336
  107MOL   C18830080   1.452   1.229   4.990  0.5710 -0.6489 -0.7407
  107MOL   C18930081   1.528   1.133   5.031 -0.3265 -0.1566  0.4968
  107MOL   C19030082   1.539   1.418   5.112  0.2972 -0.9403  0.3993
  107MOL   C19130083   1.549   1.555   5.133 -0.2877 -0.4067 -0.0626
  107MOL   H19230084   1.356   1.670   4.875 -1.7227 -1.0950 -0.1270
  107MOL   H19330085   1.327   1.426   4.846 -1.0752  0.3818 -0.0099
  107MOL   H19430086   1.369   1.202   4.926 -0.5497  0.9313  0.0284
  107MOL   H19530087   1.615   1.160   5.089 -1.1952 -1.9833  2.7496
  107MOL   H19630088   1.581   1.344   5.179 -1.7071 -3.7229 -1.3291
  107MOL   H19730089   1.631   1.571   5.202  0.1255  0.8310 -0.8288
  107MOL   C19830090   1.516   0.985   5.018  0.0035  0.2569  0.1324
  107MOL   C19930091   1.409   0.919   4.949 -0.0755 -0.2542 -0.1296
  107MOL   C20030092   1.391   0.778   4.966  0.2660 -0.3815 -0.0768
  107MOL   C20130093   1.478   0.706   5.045  0.5289  0.2952 -0.3212
  107MOL   C20230094   1.446   0.561   5.069 -0.3191 -0.6453  0.5704
  107MOL   C20330095   1.486   0.491   5.177 -0.7007  0.3985  0.0355
  107MOL   C20430096   1.583   0.769   5.107  0.7590 -0.5568  0.7468
  107MOL   C20530097   1.598   0.909   5.098  0.1347  0.1972 -0.3879
  107MOL   H20630098   1.338   0.976   4.891 -0.4778  0.3353  0.9223
  107MOL   H20730099   1.302   0.732   4.924  1.4000 -2.5592 -0.2049
  107MOL   H20830100   1.388   0.508   4.995  0.3829 -2.9936  1.6525
  107MOL   H20930101   1.539   0.542   5.256 -1.0363  0.0298  0.4959
  107MOL   H21030102   1.658   0.718   5.166 -0.0096  0.4616  2.6409
  107MOL   H21130103   1.682   0.952   5.152 -0.6745 -0.7839  1.7260
  107MOL   C21230104   1.448   0.352   5.202  0.0307  0.5037  0.2325
  107MOL   C21330105   1.516   0.276   5.299 -0.6391  0.7015 -0.2528
  107MOL   C21430106   1.476   0.143   5.320  0.0021 -0.0786  0.5778
  107MOL   C21530107   1.362   0.084   5.264  0.0809  0.2144 -0.2223
  107MOL   C21630108   1.316   8.091   5.306 -0.7370  0.1548  0.5218
  107MOL   C21730109   1.369   8.019   5.407  0.2764 -0.7243 -0.2005
  107MOL   C21830110   1.288   0.159   5.174 -0.4980  0.3294 -0.0014
  107MOL   C21930111   1.342   0.284   5.134  0.2889  0.5383  0.2545
  107MOL   H22030112   1.596   0.315   5.360 -0.9808 -0.3426  0.8872
  107MOL   H22130113   1.544   0.079   5.375 -1.1604 -1.2385  0.6822
  107MOL   H22230114   1.237   8.050   5.245  0.3926  2.1221 -2.3771
  107MOL   H22330115   1.454   8.061   5.458  0.7637  1.0459 -2.4008
  107MOL   H22430116   1.200   0.117   5.129  0.3623 -0.6251 -0.8346
  107MOL   H22530117   1.292   0.341   5.057  0.6642 -0.0689 -0.4411
  107MOL   C22630118   1.324   7.886   5.456 -0.4199  0.3028  0.9033
  107MOL   C22730119   1.402   7.824   5.553 -0.1356  1.1542 -0.8909
  107MOL   C22830120   1.362   7.702   5.604  0.1782  1.0756  0.1238
  107MOL   C22930121   1.250   7.636   5.562  0.8050  0.5963  0.2459
  107MOL   C23030122   1.226   7.501   5.619  0.1761  0.2064  0.6840
  107MOL   C23130123   1.119   7.421   5.595 -0.4772  0.3396 -0.3570
  107MOL   C23230124   1.162   7.710   5.481 -0.2687  0.2073 -0.0089
  107MOL   C23330125   1.202   7.834   5.417  0.6423  0.0164 -0.2430
  107MOL   H23430126   1.491   7.869   5.593 -0.3141  0.4865  0.3205
  107MOL   H23530127   1.419   7.649   5.679  0.8324  0.3608 -0.8785
  107MOL   H23630128   1.308   7.472   5.683  2.6460  1.7802 -1.6569
  107MOL   H23730129   1.030   7.445   5.540 -1.2505 -1.6892 -0.0393
  107MOL   H23830130   1.066   7.663   5.469  0.3749 -1.6380  1.8859
  107MOL   H23930131   1.141   7.888   5.346 -0.1515  0.9028  1.0965
  107MOL   C24030132   1.115   7.278   5.641  0.4911 -0.2599 -0.5917
  107MOL   C24130133   1.224   7.200   5.664 -0.0239 -0.0024 -0.1308
  107MOL   C24230134   1.212   7.064   5.695  0.6623 -0.0335  0.1451
  107MOL   C24330135   1.088   6.997   5.680  0.4317 -0.2595 -0.5401
  107MOL   C24430136   1.092   6.855   5.704 -0.4288  0.0554 -0.0035
  107MOL   C24530137   0.982   6.779   5.727 -0.2539 -0.7832  0.1132
  107MOL   C24630138   0.974   7.071   5.642 -0.7239 -0.3387 -0.0554
  107MOL   C24730139   0.986   7.206   5.630  0.6010  0.4987 -0.2518
  107MOL   H24830140   1.316   7.255   5.675 -0.7174  1.1918 -0.3314
  107MOL   H24930141   1.296   7.005   5.728  3.3231  3.6694  0.3833
  107MOL   H25030142   1.189   6.807   5.702 -0.8550 -0.7648 -1.9378
  107MOL   H25130143   0.882   6.820   5.737  0.5109  1.2203 -0.0952
  107MOL   H25230144   0.879   7.023   5.623 -0.0913 -2.7887  2.4962
  107MOL   H25330145   0.894   7.261   5.627 -0.1526 -0.8125 -3.5860
  107MOL   C25430146   0.980   6.630   5.733  0.1742 -0.5337 -0.1317
  107MOL   C25530147   1.096   6.547   5.729 -0.1635  0.2482 -0.4228
  107MOL   C25630148   1.078   6.408   5.720 -0.3947  0.2391 -0.1124
  107MOL   C25730149   0.953   6.344   5.736 -1.2376 -0.3832 -0.2466
  107MOL   C25830150   0.952   6.198   5.723  0.1339  0.5610  0.1297
  107MOL   C25930151   0.859   6.125   5.658 -0.4650 -0.2394  0.1643
  107MOL   C26030152   0.837   6.424   5.747  0.7330  0.1198 -0.6856
  107MOL   C26130153   0.850   6.564   5.749 -0.2692  0.3102  0.1217
  107MOL   H26230154   1.198   6.582   5.725  0.2130 -0.7663  0.3186
  107MOL   H26330155   1.157   6.335   5.710 -0.4101  0.0042  1.3067
  107MOL   H26430156   1.030   6.140   5.771 -0.0296  0.2920  0.0739
  107MOL   H26530157   0.876   6.020   5.671 -1.4848 -0.3887  0.3488
  107MOL   H26630158   0.740   6.378   5.753  1.5530 -1.4103  1.3041
  107MOL   H26730159   0.762   6.628   5.751 -0.7506 -0.2890 -1.5144
  107MOL   C26830160   0.745   6.168   5.573  0.2761 -0.4118 -0.1699
  107MOL   C26930161   0.620   6.105   5.599 -0.2117 -0.0070  0.0027
  107MOL   C27030162   0.508   6.156   5.534 -0.0483 -0.0370  0.0968
  107MOL   C27130163   0.512   6.277   5.458 -0.1882  0.3510 -0.4135
  107MOL   C27230164   0.394   6.339   5.398  0.1046 -0.2534  0.5333
  107MOL   C27330165   0.281   6.277   5.368 -0.0719  0.6638 -1.1544
  107MOL   C27430166   0.638   6.331   5.426 -0.9084 -0.6627 -0.2390
  107MOL   C27530167   0.753   6.274   5.482 -0.1940  0.1084  0.0936
  107MOL   H27630168   0.617   6.025   5.671  2.2563 -0.3261 -0.2328
  107MOL   H27730169   0.413   6.112   5.560  0.8098 -1.5994  0.6339
  107MOL   H27830170   0.411   6.443   5.375  0.1524 -0.0369  1.5210
  107MOL   H27930171   0.257   6.172   5.382  1.0202  0.4866 -0.5259
  107MOL   H28030172   0.648   6.423   5.370  0.6517 -0.6551  0.0132
  107MOL   H28130173   0.844   6.329   5.462  0.1104 -0.8205 -1.1392
  107MOL   H28230174   0.201   6.342   5.335 -0.8106 -0.0409 -0.7619
  108MOL     C130175   5.618   7.940   0.604  0.6933 -0.0222 -0.1730
  108MOL     C230176   5.664   7.894   0.731  0.3606  0.0412  0.4936
  108MOL     C330177   5.803   7.867   0.756  0.6140  0.5877 -0.3398
  108MOL     C430178   5.897   7.901   0.656  0.8387 -0.0425 -0.7162
  108MOL     C530179   6.035   7.883   0.686 -0.0621 -0.6848  0.3169
  108MOL     C630180   6.137   7.880   0.601  0.1802  0.1714 -0.3583
  108MOL     C730181   5.851   7.950   0.530 -0.1067  0.1424 -0.5069
  108MOL     C830182   5.714   7.957   0.499 -0.0399  0.4941  0.3595
  108MOL     H930183   5.597   7.876   0.813  1.5010  0.3357  1.5076
  108MOL    H1030184   5.837   7.826   0.850  0.7854  2.3800  0.3859
  108MOL    H1130185   6.045   7.878   0.793 -1.8309  0.0467  0.5334
  108MOL    H1230186   6.119   7.892   0.495  1.2886  0.4289 -0.5326
  108MOL    H1330187   5.923   7.976   0.454 -0.8053  0.9806 -0.8805
  108MOL    H1430188   5.688   7.980   0.397 -1.6111  0.3058  0.7083
  108MOL    H1530189   5.516   7.949   0.569  0.5070 -1.5200 -0.0328
  108MOL    C1630190   6.280   7.858   0.646  0.0444 -0.4213 -0.9132
  108MOL    C1730191   6.382   7.872   0.549  0.0747 -0.1744  0.1305
  108MOL    C1830192   6.519   7.847   0.586 -0.0872  0.3078 -0.3485
  108MOL    C1930193   6.552   7.822   0.716  0.1772  0.3181  0.2159
  108MOL    C2030194   6.703   7.814   0.748 -0.0228  1.0859  0.9365
  108MOL    C2130195   6.746   7.759   0.864 -0.3924 -0.6304 -0.0504
  108MOL    C2230196   6.454   7.826   0.815  0.6628  0.4775  0.0642
  108MOL    C2330197   6.319   7.838   0.778  0.6868  0.1476 -0.4282
  108MOL    H2430198   6.365   7.897   0.445  0.0650  1.8321  0.5878
  108MOL    H2530199   6.602   7.848   0.517 -0.8965 -0.8791 -1.3436
  108MOL    H2630200   6.778   7.846   0.677  0.6548 -1.4713  0.4511
  108MOL    H2730201   6.670   7.731   0.936 -0.6622 -1.5108 -0.6751
  108MOL    H2830202   6.483   7.827   0.918 -0.2471 -0.0900  0.3367
  108MOL    H2930203   6.249   7.838   0.860 -2.0835 -0.4848 -2.7456
  108MOL    C3030204   6.884   7.745   0.915  0.3848  0.3500  0.5209
  108MOL    C3130205   6.992   7.745   0.820 -0.3815 -0.1277 -0.0265
  108MOL    C3230206   7.123   7.714   0.868 -0.1904 -0.6746 -0.3426
  108MOL    C3330207   7.148   7.680   1.004  0.4252  0.1024 -0.2148
  108MOL    C3430208   7.280   7.633   1.050 -0.0786 -0.5860 -0.3169
  108MOL    C3530209   7.392   7.635   0.983 -0.5354  0.2251 -0.7177
  108MOL    C3630210   7.038   7.676   1.099  0.3212  0.2774 -0.6819
  108MOL    C3730211   6.910   7.712   1.051  0.2020  0.2433 -0.0726
  108MOL    H3830212   6.979   7.766   0.715 -0.2453  1.8065  0.3158
  108MOL    H3930213   7.201   7.706   0.794 -0.1581  0.4719 -0.4442
  108MOL    H4030214   7.279   7.592   1.150 -1.5115 -2.0384 -0.9071
  108MOL    H4130215   7.386   7.691   0.891  3.7237  1.7194 -0.2279
  108MOL    H4230216   7.055   7.649   1.202  0.1314  0.3191 -0.6397
  108MOL    H4330217   6.821   7.703   1.112  1.0769 -4.3211  0.7620
  108MOL    C4430218   7.528   7.586   1.022  0.1272 -0.7257 -0.1810
  108MOL    C4530219   7.571   7.543   1.155  0.3207 -0.1057  1.0826
  108MOL    C4630220   7.704   7.507   1.176  0.2970  0.3926 -0.4209
  108MOL    C4730221   7.803   7.510   1.076 -0.2895 -0.7544  0.1427
  108MOL    C4830222   7.947   7.475   1.103  0.5451 -0.5154 -0.9223
  108MOL    C4930223   8.001   7.432   1.217 -0.5083  0.2763 -0.5470
  108MOL    C5030224   7.763   7.571   0.954  0.1890 -0.4481 -0.0192
  108MOL    C5130225   7.630   7.603   0.930  0.0451  0.4610 -0.8559
  108MOL    H5230226   7.502   7.527   1.236  0.5412 -0.1944  1.2539
  108MOL    H5330227   7.722   7.479   1.278 -1.6239  1.1555  0.1394
  108MOL    H5430228   8.006   7.483   1.013 -0.0475 -0.8786 -1.3475
  108MOL    H5530229   7.939   7.409   1.302 -2.4041 -1.3707 -2.3255
  108MOL    H5630230   7.837   7.584   0.876  0.0946 -3.1564 -0.6363
  108MOL    H5730231   7.601   7.650   0.837  2.8376  1.4036 -1.3183
  108MOL    C5830232   8.140   7.399   1.234  0.0464  0.0756  0.1343
  108MOL    C5930233   0.033   7.328   1.353  0.4659 -0.3024  0.0152
  108MOL    C6030234   0.168   7.290   1.376  0.3127 -0.5963 -0.0806
  108MOL    C6130235   0.265   7.324   1.281 -0.0544 -0.5407 -0.0306
  108MOL    C6230236   0.412   7.289   1.301 -0.0365 -0.1545 -0.4273
  108MOL    C6330237   0.466   7.229   1.410  0.1313  0.0118 -0.0686
  108MOL    C6430238   0.231   7.397   1.168 -0.3241  1.0597 -0.2782
  108MOL    C6530239   0.098   7.433   1.141 -0.3645 -0.1518 -0.0390
  108MOL    H6630240   8.101   7.303   1.424  0.1173  0.5198 -0.0594
  108MOL    H6730241   0.192   7.243   1.470  0.7130  0.8046  0.5416
  108MOL    H6830242   0.474   7.300   1.213  1.6383 -0.8083  0.6441
  108MOL    H6930243   0.410   7.210   1.501 -0.4939  1.9703 -0.0137
  108MOL    H7030244   0.303   7.421   1.092  0.7634  0.0547  0.4210
  108MOL    H7130245   0.080   7.483   1.047  2.0902 -0.0106 -0.4724
  108MOL    C7230246   0.600   7.174   1.422  0.5587  0.5911  0.1208
  108MOL    C7330247   0.635   7.120   1.547 -0.0345 -0.5470 -0.5424
  108MOL    C7430248   0.769   7.068   1.559 -0.1337  0.2366 -0.6661
  108MOL    C7530249   0.865   7.083   1.455 -0.5211 -0.3948 -0.1240
  108MOL    C7630250   1.001   7.020   1.459  0.5834 -0.5357 -0.2399
  108MOL    C7730251   1.055   6.961   1.563 -0.3680 -0.4545  0.2805
  108MOL    C7830252   0.823   7.134   1.333  0.2991  0.0016 -0.4657
  108MOL    C7930253   0.693   7.180   1.316 -0.4484 -1.0490  0.3457
  108MOL    H8030254   0.556   7.112   1.620 -0.5336 -1.2611 -1.1460
  108MOL    H8130255   0.803   7.029   1.654 -1.8024  2.1591  0.7795
  108MOL    H8230256   1.059   7.046   1.372  2.2393  0.2538  1.0778
  108MOL    H8330257   0.989   6.946   1.647 -3.5821  2.9285 -1.5213
  108MOL    H8430258   0.892   7.131   1.250  0.6477 -0.1130 -0.1738
  108MOL    H8530259   0.661   7.214   1.218  0.2229 -0.6727  0.2501
  108MOL    C8630260   1.197   6.919   1.577 -0.0574  0.3364  0.0743
  108MOL    C8730261   1.234   6.857   1.696  0.0022  0.0891 -0.1595
  108MOL    C8830262   1.368   6.819   1.717  0.1100 -0.1462 -0.2955
  108MOL    C8930263   1.462   6.823   1.607 -0.1168 -0.0755 -0.3124
  108MOL    C9030264   1.600   6.781   1.616  0.2092  0.1355 -0.1013
  108MOL    C9130265   1.673   6.772   1.727  0.3993 -0.1385  0.8139
  108MOL    C9230266   1.419   6.880   1.486  0.2060 -0.1871  0.0510
  108MOL    C9330267   1.291   6.935   1.474  0.1411  0.0888 -0.0466
  108MOL    H9430268   1.162   6.843   1.776  0.1229 -0.3549 -0.1286
  108MOL    H9530269   1.383   6.766   1.810 -1.9852  0.2851  0.3124
  108MOL    H9630270   1.645   6.740   1.527 -0.2574  0.7191 -0.6082
  108MOL    H9730271   1.622   6.813   1.813 -1.8482 -2.8240  0.8398
  108MOL    H9830272   1.485   6.898   1.402 -0.6770 -0.1043 -0.6315
  108MOL    H9930273   1.254   6.986   1.386  1.4130  3.4647  1.2592
  108MOL   C10030274   1.811   6.716   1.738  0.4606 -0.7175  0.1157
  108MOL   C10130275   1.855   6.670   1.862 -0.7076 -0.5362 -0.3783
  108MOL   C10230276   1.984   6.616   1.884  0.5042  1.2120 -0.2156
  108MOL   C10330277   2.071   6.601   1.769  0.1766  0.1434 -0.3671
  108MOL   C10430278   2.206   6.545   1.783  0.6206 -0.2268 -0.8575
  108MOL   C10530279   2.260   6.487   1.899 -0.9929  0.8911  0.7789
  108MOL   C10630280   2.016   6.630   1.639  0.3898 -0.0954 -0.2700
  108MOL   C10730281   1.887   6.687   1.625  0.2020 -0.4135 -0.3586
  108MOL   H10830282   1.790   6.672   1.948 -1.5856  1.8677 -1.0566
  108MOL   H10930283   2.029   6.582   1.976  0.0269  0.7221 -0.1685
  108MOL   H11030284   2.270   6.556   1.696  0.1461  1.4702 -1.0014
  108MOL   H11130285   2.206   6.483   1.992 -0.6723 -1.4095  0.8989
  108MOL   H11230286   2.066   6.607   1.547 -0.7688 -0.4644 -0.8244
  108MOL   H11330287   1.847   6.709   1.527 -0.1072 -0.8617 -0.3377
  108MOL   C11430288   2.395   6.426   1.904  1.2035 -0.2361 -1.0757
  108MOL   C11530289   2.479   6.402   1.796 -0.1461 -0.2467  0.0308
  108MOL   C11630290   2.603   6.336   1.816  0.7805  0.1193  0.0593
  108MOL   C11730291   2.642   6.292   1.944 -0.5307 -0.2200  0.3352
  108MOL   C11830292   2.773   6.230   1.947 -0.8175 -0.2032 -0.2935
  108MOL   C11930293   2.849   6.203   2.054  0.1894  0.7061 -0.2197
  108MOL   C12030294   2.560   6.314   2.053 -0.4824  0.2242  0.0787
  108MOL   C12130295   2.431   6.386   2.037 -0.4329  0.2090 -0.1116
  108MOL   H12230296   2.461   6.445   1.698 -2.1758 -1.2877 -0.0834
  108MOL   H12330297   2.663   6.318   1.728 -1.4575 -0.8412 -1.3223
  108MOL   H12430298   2.819   6.204   1.853  1.5785  0.0340  0.7864
  108MOL   H12530299   2.809   6.212   2.154 -1.0274 -0.8857 -0.5418
  108MOL   H12630300   2.579   6.271   2.151 -1.8617 -1.3632 -0.3225
  108MOL   H12730301   2.373   6.401   2.127  1.4417  0.2986  1.1164
  108MOL   C12830302   2.983   6.141   2.055  0.4374  0.0224  0.7628
  108MOL   C12930303   3.068   6.119   1.939  0.1633  1.4544  0.1343
  108MOL   C13030304   3.199   6.061   1.958  0.0435  0.1956  0.0908
  108MOL   C13130305   3.236   6.006   2.077 -0.3804 -0.3199  0.3479
  108MOL   C13230306   3.352   5.921   2.085  0.3009  0.4723 -0.0953
  108MOL   C13330307   3.407   5.862   1.978  0.1171 -0.0811  0.4857
  108MOL   C13430308   3.162   6.032   2.189 -0.2360 -0.0752  0.9183
  108MOL   C13530309   3.039   6.102   2.179  0.4552  0.9607  0.9671
  108MOL   H13630310   3.037   6.159   1.843  0.0899  2.0183  0.3870
  108MOL   H13730311   3.262   6.050   1.871  1.2534 -0.3637  1.0333
  108MOL   H13830312   3.392   5.903   2.184  1.4894 -0.3162 -0.7137
  108MOL   H13930313   3.360   5.872   1.881 -0.0499  0.1898  0.5953
  108MOL   H14030314   3.190   5.994   2.287  0.4289  0.1572  0.8207
  108MOL   H14130315   2.984   6.119   2.271 -0.8223  0.5404  0.2944
  108MOL   C14230316   3.530   5.781   1.984  0.9256 -0.0344 -0.8128
  108MOL   C14330317   3.580   5.736   1.862 -0.3492  0.4861  0.3934
  108MOL   C14430318   3.703   5.665   1.860  0.7784 -0.1144  0.4709
  108MOL   C14530319   3.775   5.638   1.980  0.4840  0.9229  0.2826
  108MOL   C14630320   3.911   5.587   1.970  0.0963  0.0052 -0.0947
  108MOL   C14730321   3.987   5.577   1.861  1.0554 -0.3064 -0.1055
  108MOL   C14830322   3.723   5.692   2.096 -0.2455 -0.3142  0.5391
  108MOL   C14930323   3.598   5.750   2.105 -0.1138  0.1159  0.0474
  108MOL   H15030324   3.523   5.759   1.773 -0.4290  2.2616  0.8814
  108MOL   H15130325   3.745   5.644   1.763 -1.7665  0.1215 -0.7169
  108MOL   H15230326   3.962   5.562   2.062 -0.2113  0.4484  0.1990
  108MOL   H15330327   3.946   5.601   1.764  1.0735  1.0296  0.2090
  108MOL   H15430328   3.775   5.683   2.190 -1.3103  1.2997  1.3042
  108MOL   H15530329   3.569   5.780   2.205 -1.5620 -0.0989 -0.2992
  108MOL   C15630330   4.128   5.548   1.861  0.0267 -0.4350 -0.2259
  108MOL   C15730331   4.179   5.457   1.764 -0.1124 -0.4591 -0.2237
  108MOL   C15830332   4.312   5.415   1.775 -0.3476  0.4657 -0.1628
  108MOL   C15930333   4.406   5.474   1.863  0.4676  0.3869 -0.3700
  108MOL   C16030334   4.549   5.437   1.862  0.3347 -0.8839 -0.1762
  108MOL   C16130335   4.640   5.455   1.963 -0.3425  0.7792 -0.7436
  108MOL   C16230336   4.351   5.563   1.961  0.4213  0.4881 -0.1439
  108MOL   C16330337   4.213   5.599   1.958  0.2999 -0.1776  0.6131
  108MOL   H16430338   4.108   5.420   1.691  1.3856 -1.3784 -1.2623
  108MOL   H16530339   4.344   5.342   1.702 -0.5058  0.9491 -0.7199
  108MOL   H16630340   4.591   5.384   1.778  1.7654  0.3050 -0.2150
  108MOL   H16730341   4.609   5.504   2.054  2.2013 -0.2599  0.7214
  108MOL   H16830342   4.419   5.611   2.030  0.1038  0.2173  0.3560
  108MOL   H16930343   4.168   5.670   2.026  0.3743  0.0615  0.4118
  108MOL   C17030344   4.779   5.399   1.977  0.2771 -0.2642 -0.0231
  108MOL   C17130345   4.843   5.401   2.103  0.3709 -0.0539 -0.2454
  108MOL   C17230346   4.976   5.354   2.114  0.3006  0.6180  0.1449
  108MOL   C17330347   5.036   5.288   2.009 -0.5582 -0.0442  0.7206
  108MOL   C17430348   5.165   5.225   2.023  0.0618 -0.5929  0.1814
  108MOL   C17530349   5.260   5.223   1.927 -0.5068  0.0335 -0.5625
  108MOL   C17630350   4.978   5.293   1.876  0.2048 -0.4447 -0.6860
  108MOL   C17730351   4.847   5.348   1.861  0.1634  0.0346 -0.0462
  108MOL   H17830352   4.799   5.435   2.195  0.9739  0.5137 -0.1673
  108MOL   H17930353   5.018   5.355   2.213  1.1224 -1.8393 -0.1374
  108MOL   H18030354   5.185   5.177   2.118 -1.7234  1.2567  1.5418
  108MOL   H18130355   5.232   5.266   1.832 -1.7333 -2.6808 -1.4809
  108MOL   H18230356   5.023   5.244   1.792 -0.3016 -0.9885 -0.6410
  108MOL   H18330357   4.801   5.348   1.763 -0.6758  2.9555  0.2979
  108MOL   C18430358   5.386   5.148   1.934  0.3526  0.1178  0.3490
  108MOL   C18530359   5.419   5.031   2.013 -0.1094  0.0685 -0.8336
  108MOL   C18630360   5.546   4.971   2.003 -0.8719  0.2150  0.2815
  108MOL   C18730361   5.648   5.023   1.922 -0.1584  0.0089 -0.4066
  108MOL   C18830362   5.779   4.963   1.906  0.3302 -0.4101 -0.4794
  108MOL   C18930363   5.815   4.845   1.955  0.0374  0.4303 -0.2493
  108MOL   C19030364   5.619   5.139   1.842  0.1443 -0.2151  0.1835
  108MOL   C19130365   5.487   5.188   1.837  0.0924  0.2260  0.0141
  108MOL   H19230366   5.349   4.980   2.077 -0.4177  1.5612  0.0624
  108MOL   H19330367   5.559   4.880   2.059 -0.6818  0.6525  0.9478
  108MOL   H19430368   5.848   5.025   1.852  0.2940  0.1991  0.1622
  108MOL   H19530369   5.746   4.791   2.019 -0.7623  0.0859 -1.3785
  108MOL   H19630370   5.685   5.182   1.769 -1.7574 -0.0039 -1.4378
  108MOL   H19730371   5.460   5.266   1.767 -0.3728  1.5547  1.6270
  108MOL   C19830372   5.954   4.795   1.929 -0.1656 -0.2192  0.0810
  108MOL   C19930373   6.010   4.696   2.018  0.3819 -0.1906 -0.6398
  108MOL   C20030374   6.135   4.637   1.985 -0.0355 -0.7518 -0.0047
  108MOL   C20130375   6.213   4.683   1.882  0.1891 -0.0894  0.5352
  108MOL   C20230376   6.340   4.611   1.856 -0.5191 -0.9766  0.3325
  108MOL   C20330377   6.395   4.582   1.733  0.4983 -0.4779  0.5778
  108MOL   C20430378   6.164   4.789   1.797  0.3981  0.1915  0.1657
  108MOL   C20530379   6.037   4.846   1.830 -0.1792 -0.0629  0.0446
  108MOL   H20630380   5.957   4.649   2.099  0.9450 -0.9709 -0.7188
  108MOL   H20730381   6.171   4.555   2.045  0.3316 -1.6369 -1.4274
  108MOL   H20830382   6.406   4.588   1.937  1.4020  2.0960 -0.2837
  108MOL   H20930383   6.342   4.616   1.646  0.6856  0.0136  0.6523
  108MOL   H21030384   6.219   4.829   1.713  0.0782 -0.4730 -0.3646
  108MOL   H21130385   5.992   4.923   1.769 -0.0340 -0.0507 -0.0473
  108MOL   C21230386   6.528   4.529   1.715 -0.5982 -0.5249  0.2269
  108MOL   C21330387   6.561   4.450   1.601 -0.9595 -0.3305 -0.3160
  108MOL   C21430388   6.683   4.385   1.591  0.3306 -0.4027 -0.3826
  108MOL   C21530389   6.784   4.409   1.691  0.7352 -0.1982  0.4170
  108MOL   C21630390   6.920   4.351   1.683 -0.2310 -0.0106 -0.0092
  108MOL   C21730391   6.981   4.279   1.582 -0.1906 -0.2201 -0.0953
  108MOL   C21830392   6.752   4.491   1.801  0.7913  0.1623  0.0704
  108MOL   C21930393   6.632   4.555   1.809  0.3662  0.6736 -0.8148
  108MOL   H22030394   6.487   4.423   1.527 -1.1055 -0.6649 -0.0549
  108MOL   H22130395   6.706   4.308   1.519 -1.1176 -2.6542  1.4814
  108MOL   H22230396   6.984   4.368   1.768  1.1579  0.3549 -1.1042
  108MOL   H22330397   6.931   4.251   1.490 -0.2594 -1.8043  0.4262
  108MOL   H22430398   6.822   4.510   1.881  0.9861  0.4191 -0.1600
  108MOL   H22530399   6.618   4.622   1.893  0.3530  0.1521 -0.3963
  108MOL   C22630400   7.116   4.236   1.596 -0.3458  0.1677 -0.5315
  108MOL   C22730401   7.171   4.141   1.500  0.4243 -0.5954 -0.0114
  108MOL   C22830402   7.307   4.112   1.493 -0.3939  0.8030  0.0437
  108MOL   C22930403   7.392   4.163   1.596 -0.0810  0.4981 -0.8028
  108MOL   C23030404   7.535   4.136   1.590 -0.3795 -0.8854 -0.3794
  108MOL   C23130405   7.617   4.151   1.692 -0.0254 -0.5493 -0.0767
  108MOL   C23230406   7.336   4.246   1.701  0.0407  0.4870  0.4316
  108MOL   C23330407   7.199   4.276   1.702  0.6163 -0.5317 -0.2430
  108MOL   H23430408   7.113   4.107   1.416  1.5365 -1.3554 -0.4861
  108MOL   H23530409   7.339   4.057   1.406  0.8765  0.7805  0.5203
  108MOL   H23630410   7.573   4.103   1.495  1.4466  1.4265 -0.5030
  108MOL   H23730411   7.568   4.183   1.783 -0.9931  1.2942 -1.2036
  108MOL   H23830412   7.389   4.292   1.783  0.3633  5.4227 -2.3031
  108MOL   H23930413   7.169   4.341   1.782 -1.7829  0.3547 -1.8190
  108MOL   C24030414   7.761   4.141   1.697 -0.2748  0.0443  0.5807
  108MOL   C24130415   7.841   4.136   1.578 -0.7690  0.2690 -0.1524
  108MOL   C24230416   7.980   4.127   1.592 -0.0242  0.5767  0.4135
  108MOL   C24330417   8.046   4.127   1.719 -0.1331  0.5062  0.4174
  108MOL   C24430418   0.049   4.131   1.735 -0.3337  0.6574  0.3252
  108MOL   C24530419   0.141   4.147   1.641  0.4394 -0.1169  0.2608
  108MOL   C24630420   7.971   4.129   1.835 -0.4093  0.3467  1.0276
  108MOL   C24730421   7.830   4.143   1.822 -0.0727 -0.5947  0.4561
  108MOL   H24830422   7.801   4.146   1.479 -1.3672  1.5594  0.2011
  108MOL   H24930423   8.042   4.119   1.503  1.2861  1.3467  1.2345
  108MOL   H25030424   0.070   4.120   1.841 -0.5990 -0.1948  0.2916
  108MOL   H25130425   0.113   4.150   1.537  1.0883 -0.1679  0.0802
  108MOL   H25230426   8.019   4.126   1.931  0.8657  1.7787  0.4571
  108MOL   H25330427   7.773   4.161   1.913  1.4524  0.1576  1.2757
  108MOL   C25430428   0.287   4.159   1.661 -0.0845 -0.8914  0.2442
  108MOL   C25530429   0.365   4.186   1.544  0.2022 -0.2697 -0.2038
  108MOL   C25630430   0.509   4.199   1.555  1.1855  0.5086 -0.0690
  108MOL   C25730431   0.565   4.209   1.685 -0.5534 -0.9441  0.1998
  108MOL   C25830432   0.702   4.260   1.709  0.3768  0.7248  0.3924
  108MOL   C25930433   0.738   4.384   1.702 -0.2194 -0.2004  0.2582
  108MOL   C26030434   0.489   4.181   1.800 -0.4350  0.0982 -0.1465
  108MOL   C26130435   0.354   4.168   1.791  0.8990 -0.9504  0.2697
  108MOL   H26230436   0.318   4.196   1.448  1.6714 -0.1907 -0.9386
  108MOL   H26330437   0.574   4.209   1.469  3.7937  3.9784  2.1699
  108MOL   H26430438   0.787   4.199   1.734  1.0059  1.0295 -0.9779
  108MOL   H26530439   0.843   4.405   1.713 -0.3713 -0.5332  2.5691
  108MOL   H26630440   0.540   4.190   1.895  1.0710 -0.8960 -0.8553
  108MOL   H26730441   0.288   4.178   1.875  0.8135 -0.9154  0.1985
  108MOL   C26830442   0.658   4.512   1.687  0.2991 -0.0736  0.2827
  108MOL   C26930443   0.736   4.626   1.670 -0.7363  0.5259  0.0437
  108MOL   C27030444   0.685   4.747   1.619  0.3022 -0.3049  0.4278
  108MOL   C27130445   0.547   4.759   1.584 -0.7199 -0.5565 -0.1150
  108MOL   C27230446   0.483   4.870   1.521  0.2724 -0.6331 -0.0709
  108MOL   C27330447   0.410   4.858   1.405  0.5538  0.5427  0.1705
  108MOL   C27430448   0.467   4.647   1.617 -0.5880 -0.1613 -1.0733
  108MOL   C27530449   0.519   4.527   1.661  0.2231  0.2595  0.0578
  108MOL   H27630450   0.841   4.635   1.695 -0.5750 -2.6292  0.7554
  108MOL   H27730451   0.746   4.835   1.602  3.6867 -2.4450  1.0397
  108MOL   H27830452   0.489   4.967   1.568  0.6460 -1.4406  1.5726
  108MOL   H27930453   0.403   4.771   1.343  0.4825  0.4111  0.3605
  108MOL   H28030454   0.366   4.666   1.584 -1.3631 -1.9560  0.2489
  108MOL   H28130455   0.446   4.448   1.665  0.7520 -0.3087 -1.1230
  108MOL   H28230456   0.371   4.953   1.370  1.8506  0.4475 -1.5938
  109MOL     C130457   5.798   8.023   1.138  0.8497 -0.1094  0.0398
  109MOL     C230458   5.900   8.057   1.043  0.2955 -0.1576  0.0016
  109MOL     C330459   6.033   8.029   1.079 -0.0714  1.0579  0.3217
  109MOL     C430460   6.069   7.969   1.200 -0.3162  0.1463  0.3531
  109MOL     C530461   6.212   7.944   1.234  0.1361  0.1311  0.1411
  109MOL     C630462   6.320   7.989   1.170 -0.3821 -0.5935 -1.0076
  109MOL     C730463   5.963   7.939   1.289 -0.0331 -0.1395 -0.1703
  109MOL     C830464   5.828   7.972   1.267 -0.7212  0.0101  0.0995
  109MOL     H930465   5.882   8.112   0.952 -0.5946 -1.6526 -0.7460
  109MOL    H1030466   6.114   8.053   1.011  1.2538  0.2147  1.5655
  109MOL    H1130467   6.229   7.877   1.317 -0.6524  0.0668  0.2535
  109MOL    H1230468   6.314   8.050   1.082  2.4745  1.8818  0.4179
  109MOL    H1330469   5.986   7.890   1.382  1.0024  0.4261 -0.1145
  109MOL    H1430470   5.755   7.950   1.343 -0.7329 -0.6280 -0.0994
  109MOL    H1530471   5.700   8.050   1.102  1.0703  1.8605  0.8456
  109MOL    C1630472   6.456   7.966   1.217 -0.4711 -0.1383 -0.4298
  109MOL    C1730473   6.483   7.895   1.336  0.5465 -0.6641  0.3360
  109MOL    C1830474   6.619   7.869   1.372  0.9439 -0.3221  0.1284
  109MOL    C1930475   6.721   7.906   1.288  0.5241 -0.0302  0.4190
  109MOL    C2030476   6.858   7.879   1.331 -0.4917 -0.1705  0.4558
  109MOL    C2130477   6.906   7.824   1.446  0.0579  0.0725 -0.0879
  109MOL    C2230478   6.693   7.967   1.166 -0.2981 -0.0424 -0.5272
  109MOL    C2330479   6.566   8.006   1.134  0.6330 -0.0807  0.2870
  109MOL    H2430480   6.404   7.869   1.405  1.0185  0.4953  1.3297
  109MOL    H2530481   6.631   7.810   1.462  1.1739  0.5815  0.6948
  109MOL    H2630482   6.934   7.904   1.258 -2.0877  0.3640 -1.0421
  109MOL    H2730483   6.834   7.799   1.522 -1.5757  1.5045 -1.1117
  109MOL    H2830484   6.775   7.997   1.103  0.8597 -1.6613  0.1779
  109MOL    H2930485   6.554   8.057   1.039 -0.5872 -0.4618  0.2307
  109MOL    C3030486   7.051   7.806   1.481 -0.6363  0.7925  0.3831
  109MOL    C3130487   7.158   7.831   1.388 -0.2704 -0.2007  0.2856
  109MOL    C3230488   7.297   7.821   1.422 -0.1283  0.2857  0.1340
  109MOL    C3330489   7.333   7.755   1.543  0.3894 -0.0081 -0.6566
  109MOL    C3430490   7.472   7.725   1.571  0.0433 -0.3619  0.1424
  109MOL    C3530491   7.532   7.716   1.692  0.0375  0.2436  0.2594
  109MOL    C3630492   7.227   7.727   1.634  0.1988  0.0738  0.3217
  109MOL    C3730493   7.090   7.758   1.603  0.2672 -0.2020 -0.1035
  109MOL    H3830494   7.134   7.869   1.290  1.0957 -3.8261 -1.5534
  109MOL    H3930495   7.374   7.831   1.347  0.8780 -0.1113  1.0993
  109MOL    H4030496   7.533   7.704   1.485  1.9705  0.1388  1.3420
  109MOL    H4130497   7.473   7.742   1.778  0.6653  0.3091  0.6669
  109MOL    H4230498   7.253   7.703   1.736  1.6269 -0.0958 -0.0790
  109MOL    H4330499   7.010   7.739   1.673  0.8782  1.7968  1.1701
  109MOL    C4430500   7.671   7.687   1.734 -0.7217 -0.3796 -0.5296
  109MOL    C4530501   7.700   7.658   1.867  0.0755  0.0369  0.6064
  109MOL    C4630502   7.831   7.616   1.907  0.2944 -0.3632  0.4602
  109MOL    C4730503   7.931   7.586   1.809  0.2490 -0.4440 -0.7115
  109MOL    C4830504   8.062   7.542   1.854  0.4301 -0.0109 -1.1272
  109MOL    C4930505   0.038   7.564   1.787 -0.0500 -0.2141 -0.2317
  109MOL    C5030506   7.903   7.623   1.675 -0.0534  0.1731 -0.1188
  109MOL    C5130507   7.777   7.677   1.643 -0.0932  0.0947  0.2957
  109MOL    H5230508   7.616   7.661   1.934  0.1389 -0.7908  0.7262
  109MOL    H5330509   7.844   7.594   2.012  0.6959 -0.5702  0.3707
  109MOL    H5430510   8.064   7.486   1.946  0.4236  1.9718  0.1032
  109MOL    H5530511   0.039   7.614   1.692  0.7418  0.1160 -0.0491
  109MOL    H5630512   7.978   7.617   1.597 -0.7691 -0.0560 -0.7970
  109MOL    H5730513   7.763   7.705   1.539  1.3994  0.3685  0.1491
  109MOL    C5830514   0.168   7.517   1.842 -0.0470 -0.0833  0.6190
  109MOL    C5930515   0.187   7.480   1.974 -0.3450 -0.5126 -0.9383
  109MOL    C6030516   0.312   7.425   2.013  0.0193 -0.0889  0.0819
  109MOL    C6130517   0.415   7.406   1.924  0.4397  0.6398  0.5181
  109MOL    C6230518   0.536   7.336   1.971  0.3792 -0.2274  1.1902
  109MOL    C6330519   0.645   7.300   1.895  0.9442  0.6072  0.1568
  109MOL    C6430520   0.395   7.448   1.792 -0.2715 -0.1928  0.6851
  109MOL    C6530521   0.274   7.499   1.751 -0.4581  0.0464 -0.0503
  109MOL    H6630522   0.114   7.483   2.053 -0.0136  0.8213 -0.6706
  109MOL    H6730523   0.320   7.381   2.111  0.4212  0.8439  0.4725
  109MOL    H6830524   0.536   7.302   2.073  0.7021 -2.4439  0.4712
  109MOL    H6930525   0.650   7.326   1.791 -2.1664 -3.6548 -1.1753
  109MOL    H7030526   0.481   7.435   1.728 -1.1283  1.0207 -0.7730
  109MOL    H7130527   0.273   7.535   1.649 -0.9985  0.8399  0.2331
  109MOL    C7230528   0.771   7.239   1.950  0.1871 -0.0093  0.2178
  109MOL    C7330529   0.873   7.192   1.864 -0.3659  0.0201  0.6854
  109MOL    C7430530   0.992   7.137   1.925  0.0792 -0.9346  0.0016
  109MOL    C7530531   1.008   7.124   2.058  0.2551  0.3008 -0.2985
  109MOL    C7630532   1.130   7.067   2.121 -0.2513 -1.2470  0.4942
  109MOL    C7730533   1.242   7.031   2.059 -0.7731 -0.0290  0.3001
  109MOL    C7830534   0.900   7.161   2.140 -0.7613 -0.8798 -0.1088
  109MOL    C7930535   0.787   7.223   2.091 -0.0566 -0.2430 -0.6157
  109MOL    H8030536   0.867   7.208   1.758  0.6129 -0.5205  0.5427
  109MOL    H8130537   1.073   7.113   1.857  2.8585  1.0856  2.4910
  109MOL    H8230538   1.124   7.056   2.228 -0.5420 -2.2645  0.3799
  109MOL    H8330539   1.253   7.036   1.951 -1.8448 -3.6893 -0.0361
  109MOL    H8430540   0.916   7.161   2.247 -0.4074  2.1486 -0.1314
  109MOL    H8530541   0.717   7.253   2.167 -0.3587 -2.5093  0.0387
  109MOL    C8630542   1.363   6.983   2.117 -0.1353  0.0674 -0.5041
  109MOL    C8730543   1.376   6.966   2.253 -0.1227  0.4068 -0.1964
  109MOL    C8830544   1.496   6.929   2.312 -0.1647  0.1800  0.2401
  109MOL    C8930545   1.606   6.880   2.237  0.3270  0.0557 -0.3090
  109MOL    C9030546   1.725   6.827   2.303  0.0351 -1.0152 -0.4053
  109MOL    C9130547   1.847   6.815   2.243  0.3263 -0.1958 -0.1452
  109MOL    C9230548   1.588   6.889   2.096  0.1995 -0.0077  0.0622
  109MOL    C9330549   1.472   6.943   2.040 -0.1463 -0.1907  0.0848
  109MOL    H9430550   1.293   6.972   2.323  0.3184 -1.7059  0.5742
  109MOL    H9530551   1.503   6.923   2.420 -1.1627  2.7320  0.4787
  109MOL    H9630552   1.716   6.792   2.404  0.3745 -2.3327 -0.8318
  109MOL    H9730553   1.854   6.830   2.136  0.1422 -2.3521 -0.4818
  109MOL    H9830554   1.668   6.856   2.031  0.3595 -0.1819  0.3458
  109MOL    H9930555   1.471   6.956   1.932 -1.2168 -2.7509 -0.2450
  109MOL   C10030556   1.968   6.767   2.313  0.0366 -0.7647  0.3182
  109MOL   C10130557   1.971   6.710   2.442  0.1677  0.2458 -0.2006
  109MOL   C10230558   2.087   6.647   2.490 -0.9020 -0.5403 -0.7004
  109MOL   C10330559   2.200   6.637   2.407  0.6840  0.3875  0.6383
  109MOL   C10430560   2.329   6.585   2.467  0.3777 -0.1294 -0.6040
  109MOL   C10530561   2.445   6.576   2.408 -0.2192  0.2960  0.5980
  109MOL   C10630562   2.194   6.676   2.274  0.3195  0.6708  0.0679
  109MOL   C10730563   2.083   6.740   2.228 -0.8245 -0.1360 -0.2414
  109MOL   H10830564   1.890   6.724   2.512  1.8536  0.3477  1.7765
  109MOL   H10930565   2.090   6.616   2.593  1.1312  0.7651 -0.3449
  109MOL   H11030566   2.328   6.546   2.568  1.1656 -1.0180 -0.9330
  109MOL   H11130567   2.452   6.622   2.310  1.9358  0.5162  0.8238
  109MOL   H11230568   2.271   6.655   2.201  0.5961 -0.7785  0.7626
  109MOL   H11330569   2.078   6.776   2.126 -1.5299 -0.1822 -0.2270
  109MOL   C11430570   2.567   6.512   2.462 -0.0345  1.0274  0.9129
  109MOL   C11530571   2.658   6.460   2.360  0.1789 -0.3132 -0.4199
  109MOL   C11630572   2.778   6.400   2.404 -0.1243  0.2869  0.2977
  109MOL   C11730573   2.809   6.390   2.538 -0.6447  0.1990 -0.3139
  109MOL   C11830574   2.941   6.336   2.583  0.6504  0.2445  0.4022
  109MOL   C11930575   3.050   6.335   2.505 -0.8869  0.0872 -0.1332
  109MOL   C12030576   2.714   6.433   2.639  0.0543  0.0553 -0.0505
  109MOL   C12130577   2.594   6.492   2.597  0.2772  0.6384  0.2674
  109MOL   H12230578   2.625   6.462   2.258 -2.0116  0.5094  0.2639
  109MOL   H12330579   2.844   6.358   2.330 -1.3282 -0.2747 -0.4535
  109MOL   H12430580   2.940   6.292   2.681 -2.0635  0.5655  0.5595
  109MOL   H12530581   3.047   6.376   2.405 -1.0129 -1.4042 -0.7435
  109MOL   H12630582   2.739   6.442   2.744 -0.2873 -1.8690  0.2168
  109MOL   H12730583   2.526   6.527   2.673  0.4379  0.3466  0.5471
  109MOL   C12830584   3.178   6.277   2.540  0.3015 -1.0017 -0.2166
  109MOL   C12930585   3.281   6.275   2.438 -0.5750  0.4056  0.5140
  109MOL   C13030586   3.403   6.204   2.468  0.0553 -0.6192 -0.0601
  109MOL   C13130587   3.416   6.143   2.593  0.2555 -0.7106 -0.0281
  109MOL   C13230588   3.534   6.060   2.625 -0.4952  0.4811  0.1200
  109MOL   C13330589   3.623   5.997   2.544  0.6680  0.0985  0.3090
  109MOL   C13430590   3.323   6.162   2.703 -0.6416 -0.6953  0.2108
  109MOL   C13530591   3.203   6.235   2.676 -0.3887 -0.8067 -0.0541
  109MOL   H13630592   3.264   6.306   2.336  2.3652 -3.4052 -1.2817
  109MOL   H13730593   3.472   6.190   2.387  0.0971  0.4772 -0.2326
  109MOL   H13830594   3.555   6.049   2.730 -0.2104 -0.0319  0.0118
  109MOL   H13930595   3.606   6.003   2.437  1.0985  0.3987  0.2567
  109MOL   H14030596   3.335   6.118   2.801  0.1019 -3.0144 -0.8870
  109MOL   H14130597   3.137   6.235   2.762  0.5720  0.5836  0.7075
  109MOL   C14230598   3.738   5.923   2.595 -0.2400 -0.0090 -0.9780
  109MOL   C14330599   3.792   5.824   2.511  0.0103  0.1874 -0.1687
  109MOL   C14430600   3.902   5.747   2.553 -0.6941 -0.0079 -0.0744
  109MOL   C14530601   3.963   5.771   2.683 -0.2994  0.7951  0.3811
  109MOL   C14630602   4.082   5.697   2.730  0.9181  0.3429 -0.2121
  109MOL   C14730603   4.161   5.614   2.665 -0.5144 -0.4823  0.2484
  109MOL   C14830604   3.912   5.874   2.758 -0.8858  0.2620  0.4997
  109MOL   C14930605   3.799   5.946   2.722 -0.3681 -1.0039 -0.7206
  109MOL   H15030606   3.751   5.821   2.411  0.2901  2.9224 -0.4094
  109MOL   H15130607   3.931   5.662   2.494  2.2162  0.3256  0.8332
  109MOL   H15230608   4.104   5.721   2.833 -0.5463  0.4674  0.0855
  109MOL   H15330609   4.121   5.578   2.572 -2.5886 -0.1487  0.9866
  109MOL   H15430610   3.957   5.897   2.853 -4.0712  2.9936  1.4391
  109MOL   H15530611   3.757   6.026   2.781  0.6408  0.1428 -1.5555
  109MOL   C15630612   4.284   5.548   2.719  0.1767  0.0223  0.2000
  109MOL   C15730613   4.342   5.579   2.845  0.2835  0.2028 -0.1507
  109MOL   C15830614   4.462   5.518   2.892  0.1439  0.3667 -0.3053
  109MOL   C15930615   4.520   5.417   2.809 -0.3967 -0.1138  0.7896
  109MOL   C16030616   4.651   5.362   2.850  0.1098 -0.1917  0.5610
  109MOL   C16130617   4.730   5.406   2.953  0.5794  1.6102 -0.5377
  109MOL   C16230618   4.454   5.375   2.694 -0.1460  0.3813  0.4398
  109MOL   C16330619   4.336   5.436   2.649  0.2128  0.8054 -0.1094
  109MOL   H16430620   4.302   5.657   2.907 -0.2693  0.8547 -1.3145
  109MOL   H16530621   4.513   5.553   2.980 -0.1488 -1.3462  0.5520
  109MOL   H16630622   4.690   5.271   2.807 -0.4525  0.1869 -0.7551
  109MOL   H16730623   4.697   5.489   3.014  0.8154  1.5604 -0.3413
  109MOL   H16830624   4.490   5.294   2.633  0.8434 -1.3945  3.3157
  109MOL   H16930625   4.280   5.402   2.563 -0.0590  0.7435  0.0899
  109MOL   C17030626   4.864   5.359   2.993 -0.5994  0.1006 -0.4387
  109MOL   C17130627   4.919   5.233   2.953  0.1072  0.4406  0.1423
  109MOL   C17230628   5.050   5.187   3.001  0.0790 -0.1229 -0.2352
  109MOL   C17330629   5.121   5.277   3.089  0.0890  0.1895  0.5604
  109MOL   C17430630   5.258   5.247   3.132 -0.5299 -0.4514 -0.1690
  109MOL   C17530631   5.310   5.120   3.142 -0.4709  0.0199  0.3549
  109MOL   C17630632   5.069   5.403   3.127  0.7216 -0.0528  0.2346
  109MOL   C17730633   4.941   5.438   3.081 -0.2445 -0.0114  0.1141
  109MOL   H17830634   4.854   5.184   2.882 -1.7348  2.2420  0.5328
  109MOL   H17930635   5.102   5.096   2.974  0.9195 -0.2433  1.7228
  109MOL   H18030636   5.320   5.333   3.151 -2.4196  0.4536  1.9918
  109MOL   H18130637   5.241   5.039   3.125 -1.6910  0.6720  2.0675
  109MOL   H18230638   5.130   5.465   3.191  1.8102 -3.8049  3.0676
  109MOL   H18330639   4.907   5.535   3.113 -0.6497 -0.4381  0.9712
  109MOL   C18430640   5.447   5.087   3.183  0.5708  0.0586 -0.1186
  109MOL   C18530641   5.495   4.956   3.167  0.2382 -0.6602  0.9852
  109MOL   C18630642   5.628   4.921   3.201 -0.8337  0.2141 -0.6178
  109MOL   C18730643   5.716   5.016   3.251  0.1958 -0.3597 -0.2213
  109MOL   C18830644   5.858   4.993   3.283  0.3102 -0.0082  0.2295
  109MOL   C18930645   5.928   4.879   3.298  0.5608  0.1197 -0.1445
  109MOL   C19030646   5.667   5.148   3.266 -1.0430 -0.1233 -0.4109
  109MOL   C19130647   5.535   5.183   3.233  0.2256  0.1002  0.3396
  109MOL   H19230648   5.424   4.880   3.139  1.0419  0.1056 -3.4485
  109MOL   H19330649   5.659   4.818   3.196  1.5260  0.8388  0.4162
  109MOL   H19430650   5.909   5.086   3.301 -0.6542  0.5485  0.1388
  109MOL   H19530651   5.872   4.787   3.291  0.2450  0.4019 -1.4780
  109MOL   H19630652   5.729   5.230   3.300 -1.0972 -0.2211 -0.0782
  109MOL   H19730653   5.505   5.286   3.239 -1.7711 -0.3325 -1.4690
  109MOL   C19830654   6.073   4.874   3.321 -0.2520 -0.1693 -0.3086
  109MOL   C19930655   6.152   4.990   3.318 -0.0103 -0.8019  0.4003
  109MOL   C20030656   6.289   4.977   3.348 -0.4203  0.0584  0.5775
  109MOL   C20130657   6.354   4.857   3.377  0.0308  0.0115  0.8531
  109MOL   C20230658   6.498   4.861   3.413 -0.0754 -0.6920 -0.3927
  109MOL   C20330659   6.564   4.750   3.457  0.2499  0.3679  0.3638
  109MOL   C20430660   6.265   4.747   3.390 -0.1121  0.2752  0.0843
  109MOL   C20530661   6.125   4.752   3.354  0.0189 -0.3498  0.7233
  109MOL   H20630662   6.119   5.086   3.280  0.1664 -0.2142  1.7075
  109MOL   H20730663   6.346   5.068   3.337 -0.5402 -0.0520 -1.0736
  109MOL   H20830664   6.536   4.962   3.404 -1.0307 -0.4128 -1.3495
  109MOL   H20930665   6.515   4.654   3.465 -0.2221  0.4971 -0.7587
  109MOL   H21030666   6.304   4.649   3.410 -2.2317 -1.0574 -2.0397
  109MOL   H21130667   6.065   4.663   3.358 -0.5864 -0.0128 -0.5386
  109MOL   C21230668   6.708   4.734   3.492  0.3500 -0.0841 -0.3897
  109MOL   C21330669   6.769   4.607   3.508  1.0410  0.1104  0.0032
  109MOL   C21430670   6.902   4.593   3.550 -1.2045 -0.4703 -0.0449
  109MOL   C21530671   6.975   4.711   3.585 -0.2396  0.2493  0.3161
  109MOL   C21630672   7.106   4.714   3.649  0.5531 -0.2285  0.2109
  109MOL   C21730673   7.183   4.607   3.676 -0.0932  0.3848  0.2492
  109MOL   C21830674   6.914   4.838   3.567  0.1045  0.3760  0.0608
  109MOL   C21930675   6.782   4.850   3.511  0.8505  0.1716 -0.0682
  109MOL   H22030676   6.717   4.514   3.488 -0.4034  0.9695 -0.2514
  109MOL   H22130677   6.941   4.492   3.556  0.6163  0.0164 -2.8736
  109MOL   H22230678   7.134   4.812   3.686 -0.6359 -0.3756  1.5465
  109MOL   H22330679   7.155   4.507   3.647  1.9345 -0.5176  1.2543
  109MOL   H22430680   6.971   4.928   3.584 -0.2391  0.5009  0.5670
  109MOL   H22530681   6.735   4.944   3.487  1.1902  0.3695  0.0493
  109MOL   C22630682   7.318   4.625   3.741  0.4189 -0.1083  0.6819
  109MOL   C22730683   7.368   4.517   3.806 -0.1293  0.5949 -0.5175
  109MOL   C22830684   7.495   4.521   3.878 -0.3715 -0.1301  0.1735
  109MOL   C22930685   7.551   4.645   3.898 -0.2275  0.3886 -0.2038
  109MOL   C23030686   7.683   4.657   3.969 -0.0101  0.0921 -0.1804
  109MOL   C23130687   7.782   4.562   3.986  0.5998  0.3568  0.6540
  109MOL   C23230688   7.497   4.762   3.835 -0.1844  0.1286 -0.7823
  109MOL   C23330689   7.386   4.750   3.751  0.5444 -0.3524 -0.0352
  109MOL   H23430690   7.332   4.416   3.795 -0.8629  0.7544  0.4245
  109MOL   H23530691   7.543   4.432   3.917  1.2656 -0.7758 -3.1405
  109MOL   H23630692   7.697   4.752   4.019  2.3518 -1.2396  1.8329
  109MOL   H23730693   7.775   4.463   3.945  0.5951 -0.9275  3.6360
  109MOL   H23830694   7.548   4.856   3.845  0.6583 -0.4014  0.0852
  109MOL   H23930695   7.344   4.843   3.716  0.0677 -1.1198 -1.5455
  109MOL   C24030696   7.908   4.578   4.062 -0.4823  0.0870 -0.4715
  109MOL   C24130697   8.009   4.479   4.054  0.4452  0.1302  0.7952
  109MOL   C24230698   8.134   4.489   4.112 -0.5234 -0.2629  0.4718
  109MOL   C24330699   0.026   4.605   4.177 -0.6690  0.1870  0.5818
  109MOL   C24430700   0.157   4.605   4.251 -0.7065  0.4388  0.4535
  109MOL   C24530701   0.179   4.676   4.364 -0.7571  0.3071  0.1134
  109MOL   C24630702   8.071   4.709   4.194 -0.5191  0.2770 -0.0135
  109MOL   C24730703   7.944   4.694   4.136 -0.6466 -0.0802  0.3100
  109MOL   H24830704   7.986   4.391   3.996 -1.4462  0.0402  1.6673
  109MOL   H24930705   0.064   4.410   4.108  0.2035  0.4321  0.0247
  109MOL   H25030706   0.240   4.541   4.224 -1.5605 -1.5197  2.3387
  109MOL   H25130707   0.100   4.735   4.407 -1.9680 -1.9359  1.0228
  109MOL   H25230708   8.079   4.794   4.260  0.0920 -1.1026  1.7328
  109MOL   H25330709   7.874   4.776   4.135 -0.6103 -0.0608 -2.6677
  109MOL   C25430710   0.313   4.679   4.431  1.1290 -0.1307  0.3283
  109MOL   C25530711   0.435   4.657   4.355  1.0749 -0.2289  0.2184
  109MOL   C25630712   0.560   4.644   4.419 -0.8194 -0.1781  0.0052
  109MOL   C25730713   0.571   4.665   4.556 -0.7847  0.3323 -0.4365
  109MOL   C25830714   0.704   4.663   4.616 -1.0138 -0.0212 -0.1728
  109MOL   C25930715   0.745   4.682   4.744 -0.0552 -0.2335  0.6446
  109MOL   C26030716   0.455   4.695   4.629  0.3808  0.7706  0.2010
  109MOL   C26130717   0.329   4.696   4.573  0.3409 -0.8343  0.3341
  109MOL   H26230718   0.437   4.643   4.248 -1.1383  2.5131 -0.2655
  109MOL   H26330719   0.650   4.618   4.365 -1.9744 -2.3147 -0.9851
  109MOL   H26430720   0.786   4.651   4.547 -0.5086 -1.5595  0.6851
  109MOL   H26530721   0.852   4.676   4.761 -0.1144 -0.4862  0.9387
  109MOL   H26630722   0.456   4.722   4.733  0.2358 -2.6607  1.1412
  109MOL   H26730723   0.244   4.721   4.636  1.3166  0.8376  1.0272
  109MOL   C26830724   0.666   4.710   4.866 -0.3719  0.0050  0.0379
  109MOL   C26930725   0.653   4.844   4.918 -0.0671 -0.3633 -0.4345
  109MOL   C27030726   0.564   4.866   5.028 -0.5194 -0.6862 -0.7677
  109MOL   C27130727   0.490   4.758   5.085 -1.0780 -0.3609 -1.0774
  109MOL   C27230728   0.388   4.775   5.190 -0.4920  0.3373 -0.0716
  109MOL   C27330729   0.337   4.883   5.239 -0.7840 -0.2008  0.4051
  109MOL   C27430730   0.525   4.630   5.046 -0.4978  0.0905 -0.1587
  109MOL   C27530731   0.613   4.605   4.937  0.9220 -1.0010 -0.2503
  109MOL   H27630732   0.705   4.913   4.853 -1.1510  1.0869  0.2151
  109MOL   H27730733   0.545   4.966   5.063 -1.9521 -0.8126 -1.1522
  109MOL   H27830734   0.357   4.679   5.230  3.2149 -0.4049  1.1798
  109MOL   H27930735   0.363   4.982   5.205  0.6377 -0.3508  0.9999
  109MOL   H28030736   0.485   4.545   5.100 -0.9044 -0.2621 -1.0087
  109MOL   H28130737   0.625   4.499   4.922  3.4801 -0.8775  0.6569
  109MOL   H28230738   0.266   4.878   5.320  1.0536  1.3114  2.1509
  110MOL     C130739   0.358   6.000   5.865  0.0275 -0.5656 -0.4065
  110MOL     C230740   0.332   6.021   6.000  0.7406 -1.0681  0.6023
  110MOL     C330741   0.327   5.916   6.092  0.9785 -0.0070 -0.3120
  110MOL     C430742   0.359   5.781   6.049  0.7959 -0.4426 -0.4120
  110MOL     C530743   0.354   5.676   6.148 -0.0726  0.0214 -0.2774
  110MOL     C630744   0.379   5.543   6.117  0.3559  0.4401  0.4176
  110MOL     C730745   0.394   5.759   5.916 -0.6176 -0.5829 -0.8237
  110MOL     C830746   0.394   5.870   5.825  0.7655 -0.4929  0.3201
  110MOL     H930747   0.314   6.119   6.041 -2.9233 -1.0955 -0.7606
  110MOL    H1030748   0.317   5.937   6.198  1.0966 -2.0353  0.1295
  110MOL    H1130749   0.340   5.714   6.248 -1.4812  0.3841 -0.5973
  110MOL    H1230750   0.390   5.515   6.013  1.5844 -0.6992  0.8414
  110MOL    H1330751   0.418   5.663   5.874  0.2270 -0.9520  0.4850
  110MOL    H1430752   0.410   5.849   5.720 -1.1285  2.1405 -0.5449
  110MOL    H1530753   0.350   6.084   5.797 -1.9052 -1.8475 -1.8045
  110MOL    C1630754   0.383   5.443   6.222  0.0255  0.4225 -0.4864
  110MOL    C1730755   0.367   5.471   6.363  0.8181 -0.1923  0.6266
  110MOL    C1830756   0.351   5.365   6.450 -0.0044 -0.1566 -0.3496
  110MOL    C1930757   0.351   5.232   6.409 -0.5691  0.0513 -0.0715
  110MOL    C2030758   0.329   5.120   6.506 -0.1506  0.5691 -0.2848
  110MOL    C2130759   0.329   5.118   6.638 -0.9788 -0.6128  0.0873
  110MOL    C2230760   0.379   5.206   6.277  0.4701  0.4805 -0.3627
  110MOL    C2330761   0.388   5.309   6.183 -0.6994 -0.5964 -0.2447
  110MOL    H2430762   0.368   5.574   6.395 -0.4525 -0.3153  1.0639
  110MOL    H2530763   0.337   5.396   6.553 -1.3075  0.1646 -0.6151
  110MOL    H2630764   0.309   5.029   6.450 -0.8316  1.1539 -1.0017
  110MOL    H2730765   0.342   5.209   6.695  2.2313  0.5140 -2.2924
  110MOL    H2830766   0.388   5.104   6.245 -0.4985 -0.7447  2.9915
  110MOL    H2930767   0.416   5.284   6.081  2.5871  0.7608  0.2566
  110MOL    C3030768   0.306   4.999   6.721  0.6720 -0.3834 -0.2766
  110MOL    C3130769   0.362   5.006   6.847 -0.6222 -0.4524  0.1016
  110MOL    C3230770   0.368   4.890   6.929  0.3165  0.0198 -0.6693
  110MOL    C3330771   0.313   4.769   6.881  0.0491  0.1243 -0.4153
  110MOL    C3430772   0.324   4.652   6.981 -0.1079  0.6446  0.5945
  110MOL    C3530773   0.269   4.528   6.959  0.3771 -0.7163  0.4616
  110MOL    C3630774   0.251   4.770   6.757  0.4757  0.3035 -0.3624
  110MOL    C3730775   0.248   4.881   6.674 -0.0027 -0.7145  0.0600
  110MOL    H3830776   0.405   5.098   6.884 -0.4245 -0.9138  1.0378
  110MOL    H3930777   0.417   4.891   7.026  1.6463 -0.1041 -1.3300
  110MOL    H4030778   0.380   4.678   7.069  1.7918 -0.3553 -0.2758
  110MOL    H4130779   0.214   4.504   6.870 -0.1695  0.5265  0.4525
  110MOL    H4230780   0.222   4.674   6.717 -0.1215  1.0450 -1.7823
  110MOL    H4330781   0.207   4.871   6.575  0.3512 -3.0815  0.1206
  110MOL    C4430782   0.268   4.423   7.056 -0.2958  0.6442 -0.0420
  110MOL    C4530783   0.352   4.431   7.172  0.4113 -0.2120  0.3161
  110MOL    C4630784   0.326   4.348   7.290  0.4765  0.0807  0.4066
  110MOL    C4730785   0.239   4.241   7.278  0.3014 -0.1160 -0.3047
  110MOL    C4830786   0.206   4.153   7.395 -0.0812 -0.0053  0.7993
  110MOL    C4930787   0.259   4.154   7.523  1.1320  0.2887  0.5972
  110MOL    C5030788   0.175   4.213   7.153  0.1138  0.2642 -0.0996
  110MOL    C5130789   0.185   4.306   7.042 -0.1776  0.7696 -0.5564
  110MOL    H5230790   0.434   4.499   7.187  1.0193 -1.0119  0.6384
  110MOL    H5330791   0.387   4.366   7.378  3.0180 -0.2115 -1.2451
  110MOL    H5430792   0.135   4.076   7.365 -0.1056 -0.8921  3.0249
  110MOL    H5530793   0.341   4.222   7.545  0.2115  1.4955  0.3744
  110MOL    H5630794   0.110   4.129   7.138  0.9362 -0.2076 -1.0779
  110MOL    H5730795   0.124   4.294   6.954 -0.5058 -2.8021  0.0858
  110MOL    C5830796   0.197   4.072   7.630 -0.5695  0.6787 -0.5592
  110MOL    C5930797   0.273   4.024   7.739 -0.1069  0.7182 -0.0878
  110MOL    C6030798   0.216   3.948   7.837 -0.4317 -0.3803  0.4437
  110MOL    C6130799   0.078   3.918   7.836 -0.1827 -0.0963  0.3274
  110MOL    C6230800   0.025   3.835   7.948  0.4927 -0.2483  0.4323
  110MOL    C6330801   8.037   3.803   7.956 -0.3806  0.4815 -0.6619
  110MOL    C6430802   8.143   3.969   7.729 -0.0031  0.6036  0.1672
  110MOL    C6530803   0.061   4.037   7.623 -0.0383  0.5047  0.6172
  110MOL    H6630804   0.378   4.044   7.756  0.1176 -0.9518  0.5886
  110MOL    H6730805   0.286   3.914   7.911 -1.4626 -1.5919  0.8738
  110MOL    H6830806   0.097   3.796   8.018 -2.7928 -1.1288  3.5064
  110MOL    H6930807   7.975   3.848   7.880 -1.4062  0.8122  0.3458
  110MOL    H7030808   8.038   3.948   7.719  0.1814  0.4150 -1.5328
  110MOL    H7130809   0.007   4.070   7.536  1.7217 -0.4776 -0.9003
  110MOL    C7230810   7.971   3.712   8.050  0.0866 -0.6793  0.6385
  110MOL    C7330811   8.033   3.662   0.023 -0.4263  0.1792  0.3460
  110MOL    C7430812   7.958   3.569   0.108  0.1845 -0.7739  0.3411
  110MOL    C7530813   7.827   3.535   0.074 -0.9562 -0.0448  0.3025
  110MOL    C7630814   7.733   3.450   0.158 -0.4471 -0.0278  0.1435
  110MOL    C7730815   7.751   3.347   0.242 -0.2198  0.2419 -0.2172
  110MOL    C7830816   7.771   3.594   8.102 -0.6320 -0.5804  0.2165
  110MOL    C7930817   7.845   3.672   8.022 -0.4830 -0.0313 -0.5675
  110MOL    H8030818   8.136   3.681   0.051 -0.3273 -0.6353  0.5620
  110MOL    H8130819   7.989   3.524   0.201 -0.7758 -0.1228  0.9901
  110MOL    H8230820   7.633   3.483   0.137 -0.1946  0.2029 -0.7277
  110MOL    H8330821   7.850   3.317   0.273 -1.0526 -0.0303  2.3310
  110MOL    H8430822   7.665   3.592   8.082 -0.6768  1.3259  0.1745
  110MOL    H8530823   7.791   3.704   7.934  1.2003  2.2883 -0.7888
  110MOL    C8630824   7.649   3.274   0.319 -0.0631 -0.3444 -0.3465
  110MOL    C8730825   7.648   3.132   0.325  0.0772 -0.4343 -0.4270
  110MOL    C8830826   7.533   3.061   0.354 -0.8262  0.4260 -0.4487
  110MOL    C8930827   7.413   3.132   0.392  0.0165  0.8975  0.4440
  110MOL    C9030828   7.287   3.059   0.406 -0.7015  0.1454  0.6601
  110MOL    C9130829   7.170   3.105   0.460 -0.4720  0.5746 -1.0180
  110MOL    C9230830   7.414   3.273   0.385  0.3412 -0.3619 -0.2583
  110MOL    C9330831   7.529   3.337   0.350 -0.4552  0.7340 -1.1849
  110MOL    H9430832   7.738   3.081   0.293 -0.2870 -0.3120 -1.6608
  110MOL    H9530833   7.542   2.954   0.347  0.8259  0.2792  2.9128
  110MOL    H9630834   7.293   2.960   0.362 -2.4661  0.7240 -0.9472
  110MOL    H9730835   7.172   3.200   0.512  0.8720  0.6809 -1.2456
  110MOL    H9830836   7.325   3.333   0.387 -0.4768 -1.5430 -0.8892
  110MOL    H9930837   7.524   3.445   0.359 -1.7050  0.4817  1.5221
  110MOL   C10030838   7.035   3.054   0.463 -0.5178  0.6679  0.4521
  110MOL   C10130839   6.933   3.129   0.528  0.1310 -0.4950  0.5828
  110MOL   C10230840   6.799   3.089   0.518  0.1708  0.1459  0.0841
  110MOL   C10330841   6.766   2.978   0.444  0.0883 -0.0356  0.3664
  110MOL   C10430842   6.620   2.949   0.428  0.6386  0.0931 -0.3407
  110MOL   C10530843   6.562   2.905   0.315  0.6928  0.1462  0.2862
  110MOL   C10630844   6.868   2.897   0.382  0.0873  0.2140 -0.2803
  110MOL   C10730845   6.998   2.942   0.389  0.7807  0.3897  0.5908
  110MOL   H10830846   6.955   3.218   0.585 -0.3935  0.1059 -0.1415
  110MOL   H10930847   6.725   3.149   0.568  0.7322  0.1896  0.8791
  110MOL   H11030848   6.560   2.967   0.516  0.6421 -0.6836 -0.1752
  110MOL   H11130849   6.626   2.893   0.229  2.4720  1.3998  1.3832
  110MOL   H11230850   6.835   2.805   0.337 -3.6867  0.3654  1.9169
  110MOL   H11330851   7.076   2.888   0.338 -0.6796 -2.0744  0.8557
  110MOL   C11430852   6.418   2.877   0.287 -0.2521  0.0832  0.0648
  110MOL   C11530853   6.320   2.906   0.378  0.1510 -0.2336 -0.3661
  110MOL   C11630854   6.185   2.900   0.336 -0.0151 -0.7479  0.3062
  110MOL   C11730855   6.150   2.859   0.207  0.6368 -0.3663  0.0416
  110MOL   C11830856   6.008   2.869   0.165 -0.3501  0.3458  0.1932
  110MOL   C11930857   5.953   2.850   0.039  0.2515  1.3353  0.1757
  110MOL   C12030858   6.254   2.824   0.115 -0.4128  0.7828  0.2531
  110MOL   C12130859   6.386   2.833   0.158  0.3905  0.0453 -0.7639
  110MOL   H12230860   6.330   2.960   0.471 -1.5136  0.8165 -0.7919
  110MOL   H12330861   6.100   2.922   0.398  0.6600 -0.6552  1.2004
  110MOL   H12430862   5.939   2.897   0.244 -1.7467 -0.9459 -0.5323
  110MOL   H12530863   6.013   2.823   8.098 -1.7059  1.2553 -1.1997
  110MOL   H12630864   6.236   2.796   0.012  0.9652  0.0541  0.1986
  110MOL   H12730865   6.474   2.822   0.096  1.6948  2.3777  0.5925
  110MOL   C12830866   5.806   2.859   0.001 -0.7121  0.2150 -0.3614
  110MOL   C12930867   5.767   2.840   8.014 -0.2649 -0.3079  0.6570
  110MOL   C13030868   5.631   2.832   7.983  0.3651 -0.5819  0.1082
  110MOL   C13130869   5.531   2.868   8.074  0.2357 -0.4532  0.3193
  110MOL   C13230870   5.394   2.869   8.029 -0.4035 -0.0076  0.0260
  110MOL   C13330871   5.340   2.793   7.934 -0.0798  0.0904  0.5995
  110MOL   C13430872   5.570   2.896   0.062 -0.3960 -0.2436  0.7320
  110MOL   C13530873   5.705   2.884   0.096 -0.0738  0.7443 -0.6073
  110MOL   H13630874   5.832   2.820   7.931 -0.6131  1.1678  0.0093
  110MOL   H13730875   5.610   2.805   7.880 -0.6190  0.4416  0.0330
  110MOL   H13830876   5.327   2.931   8.087 -0.1807 -0.0304  0.3079
  110MOL   H13930877   5.397   2.721   7.876  1.2722  0.8592  0.9630
  110MOL   H14030878   5.496   2.910   0.139 -0.0382  2.7502  0.5676
  110MOL   H14130879   5.717   2.885   0.204 -1.5215 -1.3846 -0.4070
  110MOL   C14230880   5.200   2.792   7.895  0.6333  0.5810  0.3621
  110MOL   C14330881   5.104   2.886   7.938  0.4224  0.5051  0.2331
  110MOL   C14430882   4.968   2.858   7.911  0.0537 -0.1730  0.4101
  110MOL   C14530883   4.931   2.737   7.853 -0.0420  0.3029  0.3773
  110MOL   C14630884   4.789   2.699   7.849  0.9143  0.0318  0.7483
  110MOL   C14730885   4.693   2.792   7.829  0.7087  0.5949 -0.2650
  110MOL   C14830886   5.031   2.645   7.805 -0.2437  1.0035  0.4900
  110MOL   C14930887   5.172   2.674   7.824  0.4528 -0.3458  0.0382
  110MOL   H15030888   5.121   2.964   8.010  0.2751  0.2456  0.5499
  110MOL   H15130889   4.890   2.919   7.953 -0.1449  0.3737 -0.7216
  110MOL   H15230890   4.768   2.594   7.866  2.1712 -0.4980 -0.8079
  110MOL   H15330891   4.714   2.897   7.811  1.6805  0.3726 -0.4229
  110MOL   H15430892   5.001   2.552   7.759  1.3980  1.5818 -1.8333
  110MOL   H15530893   5.244   2.607   7.778 -0.4657 -0.5818 -1.0757
  110MOL   C15630894   4.558   2.741   7.816  0.5001  0.1923  0.3416
  110MOL   C15730895   4.505   2.618   7.863 -0.8034 -0.3000  0.0788
  110MOL   C15830896   4.374   2.582   7.842 -0.5888  0.2858 -0.4912
  110MOL   C15930897   4.282   2.666   7.778 -0.0232 -0.0098 -0.5275
  110MOL   C16030898   4.143   2.633   7.773 -0.3107 -0.3677  0.9074
  110MOL   C16130899   4.096   2.510   7.778  0.1740  0.2611  0.6015
  110MOL   C16230900   4.325   2.797   7.746  0.1557  0.4410  0.6271
  110MOL   C16330901   4.462   2.830   7.750 -0.3881  0.1196 -0.3295
  110MOL   H16430902   4.563   2.549   7.922 -0.1593 -1.9158 -2.3786
  110MOL   H16530903   4.346   2.490   7.891  0.1140 -0.6120 -1.7456
  110MOL   H16630904   4.063   2.705   7.771 -0.5779 -0.6774  0.3388
  110MOL   H16730905   4.169   2.430   7.773 -1.5889 -1.2505 -1.9514
  110MOL   H16830906   4.257   2.874   7.715 -0.0938  0.5613  1.4482
  110MOL   H16930907   4.504   2.925   7.721  1.1731 -0.5425 -0.2838
  110MOL   C17030908   3.954   2.464   7.789 -0.6446  0.6361 -0.1009
  110MOL   C17130909   3.846   2.550   7.812  0.2891  0.3671  1.2160
  110MOL   C17230910   3.715   2.494   7.816 -0.5155  0.0633  0.1525
  110MOL   C17330911   3.690   2.357   7.806  0.2421  0.4973  0.1058
  110MOL   C17430912   3.556   2.308   7.804 -0.5818  0.5576 -0.2309
  110MOL   C17530913   3.497   2.214   7.731  0.6259 -0.2426  0.0982
  110MOL   C17630914   3.800   2.272   7.785 -0.1241  0.2578 -0.0724
  110MOL   C17730915   3.928   2.327   7.770  0.5138 -0.3650  0.4734
  110MOL   H17830916   3.848   2.658   7.809 -3.0288  0.4679  0.4256
  110MOL   H17930917   3.631   2.562   7.826 -1.0482 -0.2278 -2.0505
  110MOL   H18030918   3.497   2.365   7.873 -2.2193 -2.6566  1.1344
  110MOL   H18130919   3.556   2.159   7.659  0.6194 -0.6822  0.4314
  110MOL   H18230920   3.781   2.166   7.781 -1.7891  0.5464 -0.0762
  110MOL   H18330921   4.007   2.254   7.755 -0.8203 -1.6676 -0.3763
  110MOL   C18430922   3.357   2.187   7.733  0.2146 -0.1525  0.2909
  110MOL   C18530923   3.302   2.134   7.618  0.4565  0.1588 -0.0558
  110MOL   C18630924   3.165   2.106   7.608 -0.3738 -1.1662 -0.2493
  110MOL   C18730925   3.076   2.133   7.716 -0.4102  0.0275  0.3160
  110MOL   C18830926   2.937   2.096   7.707  1.1782 -0.3040  0.6460
  110MOL   C18930927   2.848   2.085   7.815  0.0625 -0.0736 -0.0788
  110MOL   C19030928   3.136   2.181   7.832  0.1516  0.0554  0.5002
  110MOL   C19130929   3.273   2.219   7.839 -0.0404 -0.1362 -0.6106
  110MOL   H19230930   3.367   2.117   7.533  0.2362  2.4161 -0.6947
  110MOL   H19330931   3.123   2.059   7.520 -1.2129 -1.8915  0.5292
  110MOL   H19430932   2.901   2.077   7.607  2.1658 -2.8425  0.7347
  110MOL   H19530933   2.880   2.097   7.917  2.1403  1.5225 -0.8708
  110MOL   H19630934   3.086   2.196   7.926  1.1158  1.0323  0.8648
  110MOL   H19730935   3.308   2.256   7.934  0.3567 -2.2049  0.0913
  110MOL   C19830936   2.702   2.043   7.799 -0.2263 -0.3773 -0.2363
  110MOL   C19930937   2.619   2.036   7.914  0.5842  0.0420 -0.0312
  110MOL   C20030938   2.484   2.003   7.909  0.3331  0.1583 -0.4312
  110MOL   C20130939   2.424   1.982   7.782 -0.5437  0.5803 -0.3903
  110MOL   C20230940   2.282   1.940   7.766  0.1913  0.3754  0.4647
  110MOL   C20330941   2.195   1.931   7.873 -0.0490  0.1076  1.0328
  110MOL   C20430942   2.505   1.992   7.663 -0.7909 -0.4487  0.5282
  110MOL   C20530943   2.640   2.026   7.676 -0.0430 -0.6188 -0.2970
  110MOL   H20630944   2.659   2.048   8.013  0.3377  0.0938  0.0603
  110MOL   H20730945   2.421   2.007   7.996  0.2775 -4.2891 -0.1743
  110MOL   H20830946   2.253   1.915   7.665  0.2043 -0.3645  0.6444
  110MOL   H20930947   2.226   1.959   7.972  0.1914 -0.7004  1.1923
  110MOL   H21030948   2.458   1.978   7.566  0.1416  0.1892 -0.0260
  110MOL   H21130949   2.681   2.039   7.577  0.3598 -0.6799 -0.1378
  110MOL   C21230950   2.054   1.887   7.858 -0.7524  0.1595  0.6146
  110MOL   C21330951   1.965   1.923   7.958  0.0995 -0.6529  0.4718
  110MOL   C21430952   1.829   1.886   7.960  0.0914 -0.8170 -0.8575
  110MOL   C21530953   1.789   1.793   7.863  0.4013 -0.4327 -0.5697
  110MOL   C21630954   1.655   1.726   7.861  0.1128  0.1329  0.2540
  110MOL   C21730955   1.566   1.724   7.959  0.5858 -0.3189 -0.1880
  110MOL   C21830956   1.876   1.762   7.754  0.8925 -0.5766  0.2500
  110MOL   C21930957   2.009   1.810   7.748  0.2395  0.3407  0.1851
  110MOL   H22030958   2.000   1.986   8.039  1.5615  0.4910 -1.0041
  110MOL   H22130959   1.763   1.923   8.037  2.9860 -0.1059  1.3378
  110MOL   H22230960   1.629   1.683   7.765  0.6902  0.1905  0.0685
  110MOL   H22330961   1.594   1.769   8.053  0.8370 -1.2912  0.2208
  110MOL   H22430962   1.836   1.708   7.669  1.0985  1.0690 -0.9166
  110MOL   H22530963   2.072   1.770   7.670 -0.8882 -0.8757 -0.1291
  110MOL   C22630964   1.433   1.673   7.945 -0.1144  0.5158 -0.0825
  110MOL   C22730965   1.325   1.698   8.036 -0.0151 -0.2813  0.4375
  110MOL   C22830966   1.206   1.629   8.017 -0.1201 -0.4915 -0.4078
  110MOL   C22930967   1.182   1.539   7.909  0.4749 -0.7413  0.7908
  110MOL   C23030968   1.056   1.462   7.898  0.9280 -0.1341  0.2616
  110MOL   C23130969   1.037   1.340   7.844 -0.1127  0.1646 -0.6119
  110MOL   C23230970   1.290   1.511   7.822 -0.2533 -0.1709 -0.3424
  110MOL   C23330971   1.414   1.564   7.853  0.2291  0.3592 -0.0305
  110MOL   H23430972   1.339   1.757   8.126  0.5967 -2.0148  1.5078
  110MOL   H23530973   1.125   1.644   8.086  0.2532  2.8817 -0.6507
  110MOL   H23630974   0.972   1.517   7.937  0.5075 -1.2945  1.0514
  110MOL   H23730975   1.125   1.291   7.804  0.3360 -1.2033  1.9495
  110MOL   H23830976   1.286   1.428   7.753 -0.3649 -0.7444  0.3433
  110MOL   H23930977   1.489   1.536   7.780 -0.4055 -0.0141 -0.5469
  110MOL   C24030978   0.912   1.265   7.829 -0.2651  0.3333 -0.5331
  110MOL   C24130979   0.792   1.304   7.898 -0.1182  0.1728  0.8657
  110MOL   C24230980   0.677   1.218   7.882 -0.5271  0.0088 -0.0157
  110MOL   C24330981   0.686   1.096   7.812  0.7089  0.2365  0.2419
  110MOL   C24430982   0.570   1.006   7.800  0.2088 -0.1468  0.6641
  110MOL   C24530983   0.465   1.008   7.888 -0.0513  0.7065 -0.5194
  110MOL   C24630984   0.806   1.059   7.753 -0.2801  0.1440 -0.0784
  110MOL   C24730985   0.915   1.147   7.752 -0.6463 -0.2475  0.3585
  110MOL   H24830986   0.790   1.391   7.962 -1.1217 -0.2096  1.3765
  110MOL   H24930987   0.583   1.255   7.921 -0.8556 -2.0040  1.1494
  110MOL   H25030988   0.572   0.953   7.706  0.6896  2.6046 -0.9200
  110MOL   H25130989   0.476   1.075   7.973  1.7853 -0.0930 -0.0889
  110MOL   H25230990   0.818   0.965   7.701  1.8574  0.4873 -0.2145
  110MOL   H25330991   1.005   1.128   7.695 -1.8257 -0.8781 -1.3620
  110MOL   C25430992   0.345   0.930   7.880 -0.0513 -0.8991  0.5826
  110MOL   C25530993   0.266   0.914   7.997 -0.4517 -0.0039  0.0961
  110MOL   C25630994   0.140   0.852   7.988  0.4299 -0.2316 -0.0489
  110MOL   C25730995   0.098   0.784   7.863  0.0020  0.1503 -0.3114
  110MOL   C25830996   8.120   0.710   7.842  0.2063  0.3057 -0.0297
  110MOL   C25930997   7.999   0.731   7.892  0.4637  0.0306  0.3090
  110MOL   C26030998   0.186   0.794   7.753  0.0549  0.0928  0.3125
  110MOL   C26130999   0.305   0.869   7.760 -0.2653 -0.0510 -0.1261
  110MOL   H26231000   0.301   0.952   8.092 -1.8727 -0.5051  0.8282
  110MOL   H26331001   0.078   0.847   8.076 -1.6054  0.1531 -1.4314
  110MOL   H26431002   8.134   0.624   7.779  0.1095 -0.6113  1.1720
  110MOL   H26531003   7.926   0.654   7.874  1.6085 -1.5437  2.2504
  110MOL   H26631004   0.161   0.739   7.663 -0.8748  1.1073 -0.0689
  110MOL   H26731005   0.371   0.885   7.676 -0.5257 -2.2075 -0.7672
  110MOL   C26831006   7.952   0.839   7.978 -0.2276 -0.0077  0.0644
  110MOL   C26931007   7.853   0.804   8.074  0.1673  0.0367 -0.6841
  110MOL   C27031008   7.805   0.895   0.018 -0.6154 -0.1908 -0.3150
  110MOL   C27131009   7.855   1.022   0.022  0.0449 -0.0042  0.6180
  110MOL   C27231010   7.798   1.122   0.118  0.1776  0.1847 -0.2347
  110MOL   C27331011   7.745   1.085   0.239  0.7132  0.3396 -0.6837
  110MOL   C27431012   7.947   1.069   8.072 -0.0880  0.6361  0.0701
  110MOL   C27531013   7.996   0.971   7.974 -0.0382  0.0915 -0.1977
  110MOL   H27631014   7.836   0.698   8.085  0.6769 -0.1827 -1.9078
  110MOL   H27731015   7.728   0.876   0.092  0.2482  1.4129  1.0297
  110MOL   H27831016   7.793   1.228   0.095  0.0926  0.6268  1.7517
  110MOL   H27931017   7.733   0.989   0.287 -0.9576  0.5433 -0.6668
  110MOL   H28031018   7.977   1.173   8.067 -1.3523  1.1425  2.1573
  110MOL   H28131019   8.074   1.004   7.908  0.5071  0.4850  0.6378
  110MOL   H28231020   7.717   1.169   0.300  2.0849 -0.8667  1.6535
  111MOL     C131021   4.455   0.609   4.780  0.5216 -0.3656 -0.4386
  111MOL     C231022   4.589   0.603   4.729 -0.3704 -0.4827  0.1898
  111MOL     C331023   4.679   0.715   4.739  1.3760 -0.8496  0.2647
  111MOL     C431024   4.620   0.842   4.773  0.3014 -0.5031 -0.4514
  111MOL     C531025   4.715   0.951   4.758  0.9985  1.0468  0.5973
  111MOL     C631026   4.699   1.077   4.811  0.4555  0.4570  0.1222
  111MOL     C731027   4.485   0.854   4.806  0.1853 -0.5230  0.3506
  111MOL     C831028   4.402   0.740   4.809 -0.5506  0.2060 -0.4310
  111MOL     H931029   4.633   0.506   4.708  0.3136 -0.3643  1.0642
  111MOL    H1031030   4.784   0.713   4.717  1.1866 -1.6208 -0.6352
  111MOL    H1131031   4.804   0.941   4.698  3.0357 -0.8287  3.8016
  111MOL    H1231032   4.615   1.110   4.870 -0.3911 -2.4206  0.5953
  111MOL    H1331033   4.451   0.950   4.841 -5.0963 -1.2237 -2.2575
  111MOL    H1431034   4.302   0.766   4.841 -0.1307 -0.0735  1.1297
  111MOL    H1531035   4.388   0.524   4.785 -1.9975  1.5721 -0.2557
  111MOL    C1631036   4.795   1.181   4.788  0.7875 -0.5808  0.0057
  111MOL    C1731037   4.845   1.217   4.664  0.3644  0.0841 -0.4914
  111MOL    C1831038   4.952   1.313   4.655 -0.3242 -1.0034 -0.4566
  111MOL    C1931039   5.000   1.378   4.774  0.0801  0.3145 -0.3076
  111MOL    C2031040   5.100   1.486   4.772 -0.8901 -0.0604  0.6839
  111MOL    C2131041   5.170   1.530   4.669 -0.7316 -0.1894 -0.4534
  111MOL    C2231042   4.941   1.348   4.895  0.0811 -0.2848  0.2151
  111MOL    C2331043   4.842   1.245   4.904 -0.6628  0.6141  0.0732
  111MOL    H2431044   4.812   1.166   4.575  0.7691  1.0638 -1.2126
  111MOL    H2531045   4.991   1.340   4.558 -1.0516  0.8404 -0.2435
  111MOL    H2631046   5.124   1.530   4.868 -0.2853 -2.1156  1.5061
  111MOL    H2731047   5.147   1.487   4.572 -2.4913  1.6658 -0.9029
  111MOL    H2831048   4.962   1.401   4.986 -2.6096 -0.5512  1.0433
  111MOL    H2931049   4.798   1.227   5.001 -0.5336  1.6232  0.3254
  111MOL    C3031050   5.271   1.642   4.673 -0.4094 -0.0541  0.4121
  111MOL    C3131051   5.346   1.671   4.556  0.8423  0.2162  0.6153
  111MOL    C3231052   5.455   1.758   4.552 -0.0472  0.0481 -0.3703
  111MOL    C3331053   5.490   1.830   4.670  0.3774  0.4398 -0.3604
  111MOL    C3431054   5.613   1.910   4.669 -0.3263  0.1447 -0.6044
  111MOL    C3531055   5.669   1.983   4.766 -0.3178  0.1214 -0.3584
  111MOL    C3631056   5.418   1.811   4.784  0.1110 -0.1204 -0.0722
  111MOL    C3731057   5.306   1.724   4.785  0.2449  0.7230 -0.7618
  111MOL    H3831058   5.320   1.605   4.475  0.7345  1.3045 -0.2458
  111MOL    H3931059   5.500   1.788   4.458 -3.1792  0.1862 -1.9298
  111MOL    H4031060   5.668   1.909   4.577 -0.2353  0.1943 -0.5504
  111MOL    H4131061   5.617   1.990   4.860  0.3015  1.7930 -0.1241
  111MOL    H4231062   5.445   1.868   4.872 -2.5999 -0.8729  1.3231
  111MOL    H4331063   5.239   1.717   4.869  0.4613 -0.1497 -0.6508
  111MOL    C4431064   5.802   2.043   4.772  0.4590 -0.2301  0.0355
  111MOL    C4531065   5.820   2.147   4.871  0.8359  0.2232 -0.6540
  111MOL    C4631066   5.946   2.211   4.881  0.0399 -0.9833 -0.5524
  111MOL    C4731067   6.055   2.178   4.795 -0.6795 -0.6339 -0.8883
  111MOL    C4831068   6.188   2.249   4.796  0.3234  0.1361 -0.2220
  111MOL    C4931069   6.224   2.364   4.861  0.5988 -0.0983  0.3127
  111MOL    C5031070   6.031   2.082   4.692 -0.3343 -0.2573  0.2123
  111MOL    C5131071   5.910   2.015   4.686 -0.0931 -0.4696 -0.3811
  111MOL    H5231072   5.744   2.194   4.930  1.6798  0.5908  0.1505
  111MOL    H5331073   5.960   2.273   4.969  2.5365  0.3003 -1.8170
  111MOL    H5431074   6.270   2.204   4.743  1.4003  0.4554  1.1264
  111MOL    H5531075   6.142   2.409   4.915 -0.0500 -0.2601 -0.5348
  111MOL    H5631076   6.112   2.063   4.623 -1.3097 -0.0657 -1.0131
  111MOL    H5731077   5.902   1.934   4.614  1.1834  0.0517 -1.1208
  111MOL    C5831078   6.350   2.438   4.873 -0.0061 -0.1665  1.1344
  111MOL    C5931079   6.475   2.388   4.837 -0.6487 -0.6179 -0.6731
  111MOL    C6031080   6.592   2.457   4.877  0.1588 -0.1979  0.0310
  111MOL    C6131081   6.581   2.588   4.928  0.2729 -0.4071  0.1097
  111MOL    C6231082   6.699   2.678   4.951 -0.4590 -0.2021 -0.2077
  111MOL    C6331083   6.823   2.631   4.965  0.2364  0.3880  0.2391
  111MOL    C6431084   6.459   2.645   4.956 -0.2815 -0.4004 -0.4863
  111MOL    C6531085   6.346   2.565   4.933  0.2893  0.1146  0.8359
  111MOL    H6631086   6.477   2.290   4.791 -0.9385 -1.9601  2.0943
  111MOL    H6731087   6.683   2.407   4.851  1.1280  1.0565  0.9493
  111MOL    H6831088   6.679   2.784   4.954  0.8841  0.0741 -0.6478
  111MOL    H6931089   6.838   2.524   4.959 -1.1158  0.3192 -2.9176
  111MOL    H7031090   6.445   2.748   4.984  0.7916 -0.1343 -0.9214
  111MOL    H7131091   6.248   2.603   4.959  0.2513  0.4219  0.2357
  111MOL    C7231092   6.942   2.713   4.995 -0.8197 -0.1466  0.5953
  111MOL    C7331093   7.074   2.658   4.982 -0.1440 -0.3307 -0.1155
  111MOL    C7431094   7.187   2.741   4.991 -0.3550 -0.0134 -0.5764
  111MOL    C7531095   7.180   2.879   5.022 -0.2632 -0.2914  0.1638
  111MOL    C7631096   7.305   2.957   5.037 -0.3781  0.0201 -0.1530
  111MOL    C7731097   7.428   2.914   5.006 -0.2238  0.0731 -0.4146
  111MOL    C7831098   7.048   2.936   5.039 -0.2211 -0.0513 -0.0912
  111MOL    C7931099   6.936   2.850   5.025 -0.3097  0.0762 -0.3184
  111MOL    H8031100   7.081   2.559   4.939  1.6272 -0.7181  1.0083
  111MOL    H8131101   7.284   2.694   4.977  1.4679  2.0820  3.9547
  111MOL    H8231102   7.290   3.047   5.094 -3.8662 -1.1572  0.9015
  111MOL    H8331103   7.430   2.819   4.955 -0.6116  0.1076 -0.4936
  111MOL    H8431104   7.032   3.037   5.075 -1.1640  0.5422 -2.0673
  111MOL    H8531105   6.837   2.892   5.036  0.7118  1.9331  2.2345
  111MOL    C8631106   7.558   2.978   5.029  0.2920  0.1041  0.3684
  111MOL    C8731107   7.653   2.970   4.926 -0.0592 -0.2025  0.6772
  111MOL    C8831108   7.766   3.048   4.929 -0.2034  0.0804 -0.1889
  111MOL    C8931109   7.793   3.135   5.038  0.2376 -0.2797  0.4074
  111MOL    C9031110   7.928   3.196   5.054  0.2758  0.7148  0.1415
  111MOL    C9131111   8.037   3.182   4.975 -0.1649  0.1302  0.4689
  111MOL    C9231112   7.695   3.142   5.144 -0.4794  0.9581 -0.5550
  111MOL    C9331113   7.579   3.063   5.134  0.0051  0.3654 -0.2216
  111MOL    H9431114   7.630   2.910   4.839  1.6064  0.8658 -0.5063
  111MOL    H9531115   7.844   3.033   4.855 -1.6187  0.3742 -1.7610
  111MOL    H9631116   7.931   3.264   5.138  0.8761 -1.4294  1.9021
  111MOL    H9731117   8.018   3.125   4.885  1.0897  0.0953  0.2275
  111MOL    H9831118   7.713   3.200   5.233  0.6162 -1.0318  0.5504
  111MOL    H9931119   7.518   3.048   5.222 -0.5694 -0.3676 -0.7341
  111MOL   C10031120   0.021   3.245   4.988  0.2123 -0.0644  0.6220
  111MOL   C10131121   0.121   3.214   4.890 -0.5574 -0.0608  0.1676
  111MOL   C10231122   0.243   3.291   4.892  0.0970  0.1301  0.0915
  111MOL   C10331123   0.277   3.367   5.006 -0.2781  0.2946 -0.3879
  111MOL   C10431124   0.412   3.419   5.011 -0.1857 -0.1322 -0.9983
  111MOL   C10531125   0.462   3.500   5.108  0.7280  0.8760 -0.2738
  111MOL   C10631126   0.180   3.391   5.103  0.0375 -0.6614 -0.0353
  111MOL   C10731127   0.046   3.346   5.087  0.1976  0.3475 -0.0369
  111MOL   H10831128   0.111   3.128   4.826  3.5514  0.8634 -1.8910
  111MOL   H10931129   0.325   3.262   4.828  0.5715  0.9809  0.3029
  111MOL   H11031130   0.472   3.393   4.925  1.8394  0.0768  0.3258
  111MOL   H11131131   0.406   3.533   5.194 -1.7029 -0.5124 -1.2751
  111MOL   H11231132   0.202   3.456   5.186 -0.6812  0.1020 -0.4453
  111MOL   H11331133   8.115   3.379   5.158  1.0036 -1.1191  1.5568
  111MOL   C11431134   0.606   3.538   5.116  0.0947 -0.1903 -0.2411
  111MOL   C11531135   0.690   3.537   5.002 -0.1860 -0.5566  0.2602
  111MOL   C11631136   0.818   3.580   5.015  0.3396 -0.8952  0.1252
  111MOL   C11731137   0.872   3.611   5.144  0.4793  0.2390 -0.0189
  111MOL   C11831138   1.011   3.649   5.166 -0.1607  0.0373  0.2660
  111MOL   C11931139   1.098   3.691   5.071 -0.6071  0.8968 -0.2419
  111MOL   C12031140   0.794   3.600   5.261 -0.1761  0.2891 -0.1526
  111MOL   C12131141   0.654   3.573   5.239  0.4964  0.5513  0.3184
  111MOL   H12231142   0.646   3.520   4.904  1.7231  1.2987 -0.9606
  111MOL   H12331143   0.872   3.577   4.921 -1.1503  0.3092 -0.7887
  111MOL   H12431144   1.056   3.639   5.263 -1.5510  1.6121  1.0824
  111MOL   H12531145   1.056   3.706   4.973 -1.6215 -2.5189 -0.4187
  111MOL   H12631146   0.828   3.609   5.363  0.5815  0.1215 -0.3892
  111MOL   H12731147   0.588   3.567   5.325 -0.3410  0.2766 -0.3355
  111MOL   C12831148   1.246   3.698   5.089 -0.0986 -0.2989 -0.2777
  111MOL   C12931149   1.323   3.758   4.984  0.6216  0.1112 -0.3122
  111MOL   C13031150   1.463   3.766   4.995  0.4858  0.1698 -0.0144
  111MOL   C13131151   1.532   3.717   5.111  0.3024 -0.3027  0.1080
  111MOL   C13231152   1.675   3.733   5.117  0.1371 -0.2195 -0.2960
  111MOL   C13331153   1.754   3.698   5.220  0.2542 -0.9643 -0.4103
  111MOL   C13431154   1.453   3.665   5.218 -0.4675 -0.7408  0.3273
  111MOL   C13531155   1.314   3.658   5.203 -0.4356  0.5034  0.0899
  111MOL   H13631156   1.261   3.803   4.909 -0.1071  1.2971  0.9721
  111MOL   H13731157   1.520   3.820   4.921 -0.3045 -0.0718 -0.7992
  111MOL   H13831158   1.723   3.773   5.029  0.7308 -0.5950 -0.1396
  111MOL   H13931159   1.716   3.659   5.313 -0.7008 -1.9651 -1.1969
  111MOL   H14031160   1.490   3.646   5.318  0.8044  0.7824  0.1762
  111MOL   H14131161   1.250   3.624   5.283 -1.8161 -0.3542 -1.3315
  111MOL   C14231162   1.904   3.717   5.223  0.1373  0.2251  0.6818
  111MOL   C14331163   1.957   3.759   5.346  0.4182  0.1649  0.0076
  111MOL   C14431164   2.096   3.777   5.364 -0.0497  0.0336 -0.1985
  111MOL   C14531165   2.177   3.777   5.245  0.1630  0.0556  0.0056
  111MOL   C14631166   2.318   3.819   5.261 -0.1934 -0.4032 -0.2721
  111MOL   C14731167   2.416   3.767   5.192 -0.4290 -0.3225  0.2350
  111MOL   C14831168   2.124   3.742   5.122  0.1192 -0.9396 -0.7422
  111MOL   C14931169   1.987   3.713   5.112  0.2573 -0.3911  0.6231
  111MOL   H15031170   1.898   3.780   5.434 -0.0035  0.1101 -0.2605
  111MOL   H15131171   2.142   3.802   5.458  0.0812  0.3261 -0.3383
  111MOL   H15231172   2.337   3.906   5.322 -1.8543  0.8324 -1.4728
  111MOL   H15331173   2.399   3.681   5.129 -0.7249  0.1609 -0.3496
  111MOL   H15431174   2.183   3.751   5.031  0.6661 -2.4142 -0.5483
  111MOL   H15531175   1.943   3.694   5.016  0.4523  3.9719 -0.4080
  111MOL   C15631176   2.556   3.811   5.197  0.2955  0.2630  0.0735
  111MOL   C15731177   2.656   3.712   5.186  0.7054 -0.1718 -0.3122
  111MOL   C15831178   2.790   3.743   5.200  0.5396  0.0133 -0.2457
  111MOL   C15931179   2.831   3.872   5.234  0.1245  0.9129 -0.2300
  111MOL   C16031180   2.970   3.902   5.264  0.3142 -0.4190  0.9418
  111MOL   C16131181   3.064   3.814   5.291  0.2679 -0.3382 -1.0821
  111MOL   C16231182   2.732   3.975   5.234 -0.4021  0.0559 -0.3511
  111MOL   C16331183   2.596   3.941   5.217 -0.0022 -0.9247  0.6494
  111MOL   H16431184   2.639   3.606   5.178  0.7320 -0.1990 -0.0125
  111MOL   H16531185   2.862   3.663   5.204  0.9444  0.4394  1.6543
  111MOL   H16631186   2.994   4.007   5.258  1.1934 -0.6926 -0.9063
  111MOL   H16731187   3.042   3.709   5.292  0.0071 -0.3423  3.9997
  111MOL   H16831188   2.764   4.077   5.249 -1.0971  0.2042  0.1246
  111MOL   H16931189   2.517   4.015   5.218  2.5880  1.9953 -0.5396
  111MOL   C17031190   3.202   3.851   5.330 -0.0155  0.8983 -0.1438
  111MOL   C17131191   3.252   3.982   5.320  0.1031 -0.2077  0.2738
  111MOL   C17231192   3.376   4.018   5.354 -0.5997  0.7553  0.7774
  111MOL   C17331193   3.471   3.914   5.367  0.8516 -0.1008  0.3829
  111MOL   C17431194   3.614   3.946   5.363 -0.5623  0.2826 -0.0457
  111MOL   C17531195   3.669   4.070   5.357 -0.4205  0.8090 -0.0440
  111MOL   C17631196   3.430   3.778   5.364 -0.2087  0.0641  1.3915
  111MOL   C17731197   3.291   3.750   5.349 -0.4359  0.3474  0.4062
  111MOL   H17831198   3.186   4.064   5.299  0.5894  0.6396  1.9809
  111MOL   H17931199   3.410   4.121   5.356 -0.3621  0.8323 -3.1230
  111MOL   H18031200   3.679   3.859   5.366 -0.6116  0.3054  1.9812
  111MOL   H18131201   3.613   4.162   5.356  0.5676  1.4160 -3.6718
  111MOL   H18231202   3.503   3.698   5.371 -0.7709 -0.6867 -1.1201
  111MOL   H18331203   3.254   3.648   5.346  3.0345 -0.9866  0.2339
  111MOL   C18431204   3.816   4.086   5.349  0.4103  0.4214 -0.2710
  111MOL   C18531205   3.867   4.202   5.285  0.9434 -0.6111 -0.2251
  111MOL   C18631206   4.005   4.230   5.291 -0.1232  0.5140 -0.3400
  111MOL   C18731207   4.089   4.136   5.354 -0.6706  0.2600  0.2321
  111MOL   C18831208   4.237   4.170   5.348 -0.4526  0.2015  0.4070
  111MOL   C18931209   4.332   4.107   5.426  0.2360  0.0161  0.2049
  111MOL   C19031210   4.037   4.022   5.423  0.0088  0.3309  0.5539
  111MOL   C19131211   3.900   3.999   5.420  0.1237  0.1205 -0.1640
  111MOL   H19231212   3.805   4.268   5.228 -0.3990 -1.6213  0.0464
  111MOL   H19331213   4.049   4.312   5.236  2.0135 -0.3233  0.0623
  111MOL   H19431214   4.261   4.249   5.279 -0.4295  0.5709  0.8384
  111MOL   H19531215   4.293   4.026   5.485 -0.4971  0.3381  0.1625
  111MOL   H19631216   4.102   3.951   5.473  0.4640 -0.9204 -1.6901
  111MOL   H19731217   3.859   3.912   5.469  0.3066 -0.2199 -0.6082
  111MOL   C19831218   4.472   4.145   5.423  0.1820  0.5500 -0.2830
  111MOL   C19931219   4.554   4.101   5.528  0.1838  0.1255 -0.5320
  111MOL   C20031220   4.686   4.142   5.542  0.0419 -0.3070  0.0853
  111MOL   C20131221   4.741   4.224   5.442  0.9189 -0.4101  0.1455
  111MOL   C20231222   4.878   4.271   5.457  0.2662  0.1207 -0.2182
  111MOL   C20331223   4.943   4.366   5.384 -0.4467  0.3228  0.5982
  111MOL   C20431224   4.665   4.251   5.322 -0.1220 -0.7548 -0.1539
  111MOL   C20531225   4.528   4.221   5.318 -0.1627  0.2131  0.3234
  111MOL   H20631226   4.512   4.039   5.606  0.6955  2.0372  1.3334
  111MOL   H20731227   4.735   4.097   5.627  0.3951 -0.6632 -0.3022
  111MOL   H20831228   4.924   4.222   5.542 -0.1003  1.1456  0.5778
  111MOL   H20931229   4.884   4.408   5.304 -2.1751 -1.5106  0.8505
  111MOL   H21031230   4.704   4.308   5.238  0.5751  0.1913  0.8077
  111MOL   H21131231   4.467   4.252   5.235  0.9119  0.8397 -0.2385
  111MOL   C21231232   5.086   4.413   5.392 -0.0519  0.3381 -0.1428
  111MOL   C21331233   5.143   4.491   5.284  0.3833 -0.6912 -0.0145
  111MOL   C21431234   5.282   4.523   5.288 -0.5995  0.1715 -0.4833
  111MOL   C21531235   5.361   4.487   5.399 -0.5372  1.2284 -0.9872
  111MOL   C21631236   5.507   4.517   5.401  0.1808  0.4073  0.4019
  111MOL   C21731237   5.588   4.490   5.508  0.4245 -0.4056  1.0865
  111MOL   C21831238   5.293   4.425   5.512  0.6635  1.3557 -0.1690
  111MOL   C21931239   5.164   4.382   5.506 -0.1487 -0.1801  0.1431
  111MOL   H22031240   5.080   4.511   5.199 -0.7444 -1.2212  0.6892
  111MOL   H22131241   5.329   4.570   5.203  1.6874 -1.1707 -0.0140
  111MOL   H22231242   5.543   4.568   5.313 -0.8798  2.5398  1.1439
  111MOL   H22331243   5.547   4.449   5.599 -2.1635 -1.0415 -0.3385
  111MOL   H22431244   5.342   4.397   5.604  0.8353 -1.9996 -1.2032
  111MOL   H22531245   5.127   4.325   5.590 -3.0505  1.6027  0.1349
  111MOL   C22631246   5.733   4.516   5.494 -0.1817  0.1094  0.1656
  111MOL   C22731247   5.798   4.507   5.370  0.0608 -1.0822 -0.2136
  111MOL   C22831248   5.941   4.529   5.367  0.0221 -0.0454  0.2917
  111MOL   C22931249   6.015   4.568   5.479  0.1693  0.3564 -0.4689
  111MOL   C23031250   6.159   4.588   5.462 -0.5240 -0.0604 -0.0674
  111MOL   C23131251   6.252   4.614   5.559  0.0038  0.1785  0.2829
  111MOL   C23231252   5.946   4.581   5.601 -0.3470  0.1843  0.0106
  111MOL   C23331253   5.808   4.555   5.611 -0.0706  0.1394  0.3283
  111MOL   H23431254   5.744   4.495   5.277 -1.6493  0.2052  0.5848
  111MOL   H23531255   5.988   4.505   5.272 -0.7212 -2.6471  0.5541
  111MOL   H23631256   6.196   4.597   5.361  0.7174  1.0140  0.4683
  111MOL   H23731257   6.210   4.615   5.658  1.9256  0.0123  1.1020
  111MOL   H23831258   6.001   4.602   5.691  1.1197 -1.5544 -0.4561
  111MOL   H23931259   5.759   4.554   5.707 -1.2746  0.5250 -0.2802
  111MOL   C24031260   6.394   4.640   5.546  0.5676 -0.1683  0.2549
  111MOL   C24131261   6.469   4.623   5.423 -0.8921  0.0361 -0.1548
  111MOL   C24231262   6.612   4.645   5.426 -0.6153  0.5195  0.2419
  111MOL   C24331263   6.675   4.691   5.542  0.4953  0.2311  0.5102
  111MOL   C24431264   6.825   4.713   5.549  0.0754 -0.3996  0.3867
  111MOL   C24531265   6.900   4.726   5.665  0.6060  0.0995  0.6517
  111MOL   C24631266   6.597   4.707   5.658 -0.3968 -0.5329 -0.3393
  111MOL   C24731267   6.461   4.681   5.660  0.2741  0.1914 -0.2270
  111MOL   H24831268   6.426   4.596   5.327 -0.0801  2.2988 -1.1763
  111MOL   H24931269   6.663   4.619   5.334 -0.5772  0.6942  0.2137
  111MOL   H25031270   6.876   4.724   5.454 -0.6436 -0.7987 -0.0476
  111MOL   H25131271   6.854   4.721   5.762 -0.4768  0.7202  0.1771
  111MOL   H25231272   6.628   4.740   5.756  0.4343  0.6046 -0.9710
  111MOL   H25331273   6.402   4.685   5.750 -1.5863  2.2720 -1.5003
  111MOL   C25431274   7.040   4.753   5.678 -0.0171  0.1618  0.4494
  111MOL   C25531275   7.102   4.846   5.591  0.0312  0.0865  0.7006
  111MOL   C25631276   7.241   4.872   5.601  0.2963  0.5797 -0.5210
  111MOL   C25731277   7.324   4.794   5.683  0.6394  0.1219  0.4947
  111MOL   C25831278   7.473   4.812   5.678  0.0185  0.2983  0.3947
  111MOL   C25931279   7.563   4.852   5.582  0.5073 -0.4895  0.1098
  111MOL   C26031280   7.262   4.694   5.762 -0.2466 -0.2676  0.2773
  111MOL   C26131281   7.126   4.676   5.757  0.3473 -0.6140  0.3140
  111MOL   H26231282   7.042   4.909   5.527 -0.0825  0.0329  0.7532
  111MOL   H26331283   7.282   4.959   5.551  0.2237  1.6042  1.1461
  111MOL   H26431284   7.520   4.788   5.772  1.2966  0.4246 -0.2051
  111MOL   H26531285   7.663   4.836   5.618  0.5557  0.6932  0.5366
  111MOL   H26631286   7.316   4.639   5.838 -1.0164  1.8412  2.4157
  111MOL   H26731287   7.087   4.599   5.822 -1.7504  2.2886  2.6917
  111MOL   C26831288   7.547   4.896   5.443  0.0823  0.6378  0.9972
  111MOL   C26931289   7.444   4.863   5.348  0.3642  0.6037  0.0267
  111MOL   C27031290   7.454   4.903   5.213 -0.6761  0.4239  0.2756
  111MOL   C27131291   7.567   4.982   5.164 -0.1532  0.7928  0.1548
  111MOL   C27231292   7.591   5.019   5.019  0.7293  0.1407 -0.1441
  111MOL   C27331293   7.512   4.997   4.913 -0.2624 -0.4110 -0.0476
  111MOL   C27431294   7.669   5.014   5.257  0.1973  0.9330  0.0137
  111MOL   C27531295   7.652   4.984   5.392 -0.2331 -0.7241  0.3342
  111MOL   H27631296   7.364   4.798   5.378 -1.0009  2.4162  0.4357
  111MOL   H27731297   7.387   4.855   5.143  0.1166  0.1076 -0.2674
  111MOL   H27831298   7.679   5.072   4.987  0.1908  1.0176 -0.1784
  111MOL   H27931299   7.417   4.948   4.930  0.8381 -1.4310  3.9410
  111MOL   H28031300   7.756   5.064   5.218  1.1327 -0.8305 -0.2399
  111MOL   H28131301   7.734   5.021   5.451  0.4754  1.9185 -2.1860
  111MOL   H28231302   7.540   5.022   4.812  0.3337  0.8011  0.4163
  112MOL     C131303   1.897   1.213   6.498  0.6153  0.2522  0.0995
  112MOL     C231304   1.770   1.177   6.465  0.1651 -0.6577 -0.1469
  112MOL     C331305   1.746   1.063   6.386  0.1159  0.7877 -0.9160
  112MOL     C431306   1.860   0.979   6.352 -0.2617  0.0553 -0.6139
  112MOL     C531307   1.840   0.853   6.289  0.6409  0.3671 -0.2171
  112MOL     C631308   1.722   0.780   6.294  0.1183 -0.2696  0.8882
  112MOL     C731309   1.989   1.012   6.392 -0.0845 -0.6220 -0.0555
  112MOL     C831310   2.005   1.130   6.468  0.0054 -0.0218 -0.5463
  112MOL     H931311   1.692   1.241   6.505 -1.3069 -3.0496  0.9569
  112MOL    H1031312   1.647   1.031   6.358 -0.7368  1.5511  1.1165
  112MOL    H1131313   1.932   0.815   6.247  1.4763 -0.8218  2.5325
  112MOL    H1231314   1.642   0.829   6.346  0.0487  2.5637 -1.6813
  112MOL    H1331315   2.068   0.941   6.371 -0.2081 -0.1978 -2.1221
  112MOL    H1431316   2.102   1.163   6.503  0.0121  2.1508 -2.4879
  112MOL    H1531317   1.917   1.302   6.556 -1.3006 -1.4488  3.4790
  112MOL    C1631318   1.705   0.643   6.247  0.5925  0.3542 -0.1446
  112MOL    C1731319   1.816   0.561   6.226 -0.2805 -0.4310  0.2636
  112MOL    C1831320   1.802   0.427   6.182 -0.7683  0.3708 -0.2801
  112MOL    C1931321   1.674   0.374   6.158  0.1161 -0.5718 -1.2823
  112MOL    C2031322   1.660   0.234   6.105 -0.0569  0.1848  0.2569
  112MOL    C2131323   1.548   0.173   6.065 -0.1721  0.1101  0.2805
  112MOL    C2231324   1.558   0.452   6.168  0.3269 -0.0922 -0.1944
  112MOL    C2331325   1.577   0.587   6.212 -0.4963  0.6727  0.0417
  112MOL    H2431326   1.919   0.587   6.248 -0.3095  0.7851 -0.9770
  112MOL    H2531327   1.879   0.354   6.168  0.5443  1.6647  0.0549
  112MOL    H2631328   1.752   0.178   6.111 -1.0127 -1.2704  1.8366
  112MOL    H2731329   1.451   0.220   6.059  0.0236  0.4647 -0.2354
  112MOL    H2831330   1.458   0.422   6.138  0.2797  0.3294 -0.4725
  112MOL    H2931331   1.496   0.659   6.218 -2.2392 -1.2282 -0.3615
  112MOL    C3031332   1.543   0.037   6.016  0.2397  0.3069  0.2810
  112MOL    C3131333   1.660   8.116   5.970  0.7811 -0.1010  0.0049
  112MOL    C3231334   1.646   7.980   5.948  0.0635 -0.0510  0.9294
  112MOL    C3331335   1.521   7.914   5.961 -0.2035 -0.8924  0.3048
  112MOL    C3431336   1.496   7.770   5.942 -0.2453  0.9035 -0.6983
  112MOL    C3531337   1.596   7.683   5.925 -0.0977 -0.4429  0.1374
  112MOL    C3631338   1.410   7.994   5.998 -0.5773  1.0528  0.8476
  112MOL    C3731339   1.419   8.125   6.027 -0.3642 -0.8358  0.3891
  112MOL    H3831340   1.760   0.012   5.960  0.7799  0.4475  1.9640
  112MOL    H3931341   1.736   7.936   5.908 -0.6368 -0.3591 -0.3294
  112MOL    H4031342   1.392   7.740   5.934  0.2667 -1.1422 -0.0736
  112MOL    H4131343   1.697   7.717   5.916 -0.1579  0.2302  1.9367
  112MOL    H4231344   1.314   7.946   6.011 -0.6585  1.2506  0.9739
  112MOL    H4331345   1.329   0.032   6.059 -0.2026 -0.5671  0.4163
  112MOL    C4431346   1.578   7.535   5.913 -0.3518 -0.2190  0.5580
  112MOL    C4531347   1.699   7.465   5.884  0.1736  0.0671 -0.4708
  112MOL    C4631348   1.698   7.329   5.876 -0.1016 -0.5578 -0.3787
  112MOL    C4731349   1.583   7.251   5.906  0.2562  0.1002  0.1169
  112MOL    C4831350   1.599   7.105   5.903 -0.0710 -0.7022  0.5015
  112MOL    C4931351   1.514   7.013   5.927  0.4680 -0.2384  1.0111
  112MOL    C5031352   1.468   7.321   5.946  0.2893  0.2816  0.2317
  112MOL    C5131353   1.463   7.461   5.943 -0.5049 -0.4285 -0.3848
  112MOL    H5231354   1.785   7.523   5.855  0.7011  1.2923  3.2834
  112MOL    H5331355   1.787   7.282   5.839 -0.4265 -0.8241 -0.8261
  112MOL    H5431356   1.696   7.074   5.867  1.0204  1.4424  1.5584
  112MOL    H5531357   1.421   7.054   5.963  0.8733  0.4778  1.2525
  112MOL    H5631358   1.381   7.269   5.983  1.2889 -0.0423  2.2031
  112MOL    H5731359   1.373   7.510   5.978  0.3853 -0.6250  2.3245
  112MOL    C5831360   1.525   6.865   5.924 -0.2818 -0.9692  0.2982
  112MOL    C5931361   1.409   6.784   5.928 -0.4166 -0.4192 -0.2841
  112MOL    C6031362   1.421   6.642   5.925  0.0571 -0.0396  0.2277
  112MOL    C6131363   1.542   6.574   5.915  0.4902 -0.0785  0.1523
  112MOL    C6231364   1.547   6.431   5.915 -0.9292 -0.0159 -0.2255
  112MOL    C6331365   1.443   6.346   5.933 -0.2582 -0.4335 -1.0023
  112MOL    C6431366   1.658   6.652   5.898 -0.7281  0.0098 -0.1361
  112MOL    C6531367   1.644   6.797   5.889  0.1256 -0.0423 -0.1574
  112MOL    H6631368   1.313   6.834   5.928 -0.8575 -1.2478  0.3430
  112MOL    H6731369   1.328   6.588   5.933 -0.1788  0.2564 -0.4848
  112MOL    H6831370   1.644   6.386   5.901 -0.6152 -0.3459  2.6730
  112MOL    H6931371   1.347   6.389   5.958  0.2697  0.2379 -0.0924
  112MOL    H7031372   1.754   6.610   5.871 -0.4282  1.1791 -0.9098
  112MOL    H7131373   1.735   6.854   5.885  1.1561 -1.6668 -0.4370
  112MOL    C7231374   1.444   6.199   5.941 -0.0285 -0.1354  0.6666
  112MOL    C7331375   1.547   6.107   5.956 -0.6422  0.2769 -0.5168
  112MOL    C7431376   1.520   5.965   5.957 -0.1755 -0.0364 -0.3979
  112MOL    C7531377   1.388   5.923   5.929  0.3442  0.5363 -0.7703
  112MOL    C7631378   1.358   5.777   5.909  0.1487  0.4144 -0.1672
  112MOL    C7731379   1.265   5.724   5.828  0.1300  1.0123 -0.3981
  112MOL    C7831380   1.290   6.018   5.894 -0.3433 -0.4013 -0.4418
  112MOL    C7931381   1.316   6.153   5.904  0.2130 -0.4823 -0.1720
  112MOL    H8031382   1.649   6.141   5.968  0.5312 -3.3850  0.5796
  112MOL    H8131383   1.598   5.891   5.968 -1.3423 -1.4279 -1.2752
  112MOL    H8231384   1.424   5.717   5.970 -0.2733  0.8844  0.7502
  112MOL    H8331385   1.203   5.787   5.766  1.5806  3.4462  0.5499
  112MOL    H8431386   1.185   6.004   5.869 -0.2817  1.5274 -1.8722
  112MOL    H8531387   1.241   6.221   5.869  0.2281  1.1775  2.8343
  112MOL    C8631388   1.236   5.584   5.819  0.3061 -0.3300  0.0615
  112MOL    C8731389   1.293   5.492   5.913  0.7758 -1.3219 -0.0577
  112MOL    C8831390   1.245   5.364   5.906  0.1494 -0.4079 -1.4666
  112MOL    C8931391   1.152   5.321   5.811  0.3539  0.3887 -0.0949
  112MOL    C9031392   1.100   5.181   5.810  0.3985  0.3464  0.0022
  112MOL    C9131393   1.120   5.082   5.905 -0.0471  0.3128 -0.2741
  112MOL    C9231394   1.109   5.411   5.709 -0.2432 -0.2933 -0.1471
  112MOL    C9331395   1.150   5.543   5.720  0.6521  0.0737  0.4688
  112MOL    H9431396   1.358   5.522   5.993 -0.4851 -1.2913  0.9749
  112MOL    H9531397   1.288   5.302   5.984 -0.6299  0.1956 -0.5447
  112MOL    H9631398   1.040   5.150   5.726  1.4285 -0.0843 -0.5840
  112MOL    H9731399   1.185   5.101   5.989  1.1748 -0.1087 -1.1092
  112MOL    H9831400   1.035   5.387   5.634  0.6079  0.5858 -1.2711
  112MOL    H9931401   1.102   5.612   5.652  2.2598  0.2282 -0.5448
  112MOL   C10031402   1.046   4.954   5.901  0.1013 -0.2570  0.2105
  112MOL   C10131403   0.931   4.940   5.823  0.2847 -0.4845  0.6718
  112MOL   C10231404   0.862   4.822   5.815 -0.4027 -0.1965 -0.3066
  112MOL   C10331405   0.901   4.707   5.891  0.1938 -0.8224 -0.5547
  112MOL   C10431406   0.811   4.583   5.884 -0.0728  0.1770  0.5423
  112MOL   C10531407   0.829   4.477   5.963  0.4429  0.3908  0.1059
  112MOL   C10631408   1.021   4.717   5.964 -0.3205 -0.4548 -0.4301
  112MOL   C10731409   1.091   4.838   5.965 -0.2514  0.4752 -0.0941
  112MOL   H10831410   0.891   5.019   5.761  0.2571  0.1821  1.5168
  112MOL   H10931411   0.771   4.825   5.757 -1.1471 -0.5436  0.8229
  112MOL   H11031412   0.732   4.592   5.811  1.3443  2.3115 -0.7547
  112MOL   H11131413   0.912   4.479   6.032  0.6954  0.8561 -0.2090
  112MOL   H11231414   1.057   4.636   6.026  2.1711  0.1108 -1.1024
  112MOL   H11331415   1.180   4.845   6.026 -0.9798  2.7725  0.7555
  112MOL   C11431416   0.744   4.355   5.955 -0.1136 -0.8992 -0.0244
  112MOL   C11531417   0.770   4.247   6.041 -0.2284  0.1772  0.4905
  112MOL   C11631418   0.674   4.146   6.064  0.3897  0.3215 -0.0188
  112MOL   C11731419   0.550   4.152   5.991  0.0459  0.0173  0.1375
  112MOL   C11831420   0.444   4.052   6.011  0.5672 -0.2727  0.6043
  112MOL   C11931421   0.440   3.949   6.096 -0.8748  0.4151  0.0444
  112MOL   C12031422   0.532   4.248   5.896  0.2109 -0.4253 -0.4030
  112MOL   C12131423   0.628   4.353   5.876 -0.3399 -0.2861  0.7879
  112MOL   H12231424   0.853   4.240   6.109 -0.9009  2.2043  1.5561
  112MOL   H12331425   0.693   4.072   6.140 -1.9285  0.1178  0.4009
  112MOL   H12431426   0.358   4.069   5.948  0.5471 -1.8064  0.2193
  112MOL   H12531427   0.526   3.925   6.157 -1.2581 -1.2739 -0.0623
  112MOL   H12631428   0.441   4.259   5.838 -0.0647 -0.3625  0.0401
  112MOL   H12731429   0.599   4.425   5.801  0.3587 -1.3907 -0.5661
  112MOL   C12831430   0.329   3.863   6.112 -1.0315  0.0655  0.2877
  112MOL   C12931431   0.211   3.869   6.032  0.0289 -0.6515  0.6758
  112MOL   C13031432   0.104   3.781   6.060 -0.2085  0.5095 -0.0362
  112MOL   C13131433   0.112   3.691   6.163 -0.3313 -0.1045 -0.1531
  112MOL   C13231434   8.137   3.611   6.188  0.0736  0.6426 -0.2143
  112MOL   C13331435   8.121   3.495   6.255  0.4162  0.0828 -0.2629
  112MOL   C13431436   0.230   3.677   6.241  0.2090 -0.0631  0.2322
  112MOL   C13531437   0.334   3.770   6.217 -0.3022 -0.1162 -0.7813
  112MOL   H13631438   0.197   3.942   5.953 -0.9262  0.1772  1.5965
  112MOL   H13731439   0.012   3.788   6.004 -0.6848 -0.1460  0.6519
  112MOL   H13831440   8.042   3.647   6.151 -1.3469 -2.2544  0.4670
  112MOL   H13931441   0.061   3.445   6.299 -0.4661 -1.4512 -0.2953
  112MOL   H14031442   0.240   3.600   6.317 -0.9194  0.2096  0.6739
  112MOL   H14131443   0.426   3.766   6.272  0.4931  1.8063 -1.9475
  112MOL   C14231444   7.999   3.411   6.259 -0.1722  0.4121  0.3871
  112MOL   C14331445   7.878   3.447   6.200 -0.0402 -0.3257  0.9809
  112MOL   C14431446   7.765   3.359   6.203 -0.0966 -0.5326 -0.0409
  112MOL   C14531447   7.765   3.240   6.275 -0.2654  0.3313  0.2141
  112MOL   C14631448   7.644   3.156   6.291 -0.0052 -0.7768 -0.3777
  112MOL   C14731449   7.640   3.037   6.363 -0.5049 -0.5234  0.1172
  112MOL   C14831450   7.890   3.201   6.336  1.0148 -0.6633  0.3828
  112MOL   C14931451   8.003   3.285   6.323 -0.0289 -0.2699 -0.0726
  112MOL   H15031452   7.862   3.539   6.145 -0.0391 -1.0770 -0.2952
  112MOL   H15131453   7.668   3.381   6.160  0.2549 -0.5879 -0.8828
  112MOL   H15231454   7.559   3.196   6.239  0.0617  0.4590  0.4451
  112MOL   H15331455   7.726   3.004   6.419 -1.3000 -1.4336  0.8277
  112MOL   H15431456   7.898   3.117   6.404 -1.1126 -0.4296  0.9748
  112MOL   H15531457   8.093   3.244   6.366  0.3277 -0.4973 -1.0250
  112MOL   C15631458   7.517   2.959   6.372  0.7964  0.0824 -0.4359
  112MOL   C15731459   7.389   3.006   6.311 -0.3086  0.5651 -0.1722
  112MOL   C15831460   7.279   2.919   6.311  0.0237  0.4217 -0.4260
  112MOL   C15931461   7.278   2.800   6.380 -0.3925  0.6546  0.5620
  112MOL   C16031462   7.150   2.719   6.384  0.8115 -0.1893  0.1800
  112MOL   C16131463   7.051   2.723   6.291 -0.1126 -0.5475 -0.3089
  112MOL   C16231464   7.395   2.766   6.451 -0.5620  0.5542  0.1897
  112MOL   C16331465   7.513   2.839   6.440 -0.1263  0.4070 -0.3425
  112MOL   H16431466   7.377   3.100   6.260 -1.4985  0.4320 -0.1429
  112MOL   H16531467   7.188   2.951   6.262 -0.7497 -1.5421 -0.3325
  112MOL   H16631468   7.141   2.659   6.473  0.9691 -2.1921 -1.1087
  112MOL   H16731469   7.063   2.781   6.201 -0.1891 -0.7042 -0.4206
  112MOL   H16831470   7.402   2.676   6.511 -2.2481  1.0048  1.0683
  112MOL   H16931471   7.597   2.809   6.501 -0.6807  0.4155  0.4394
  112MOL   C17031472   6.929   2.638   6.302  0.1356  0.3626  0.1441
  112MOL   C17131473   6.819   2.674   6.221 -0.1520 -0.5035 -0.1942
  112MOL   C17231474   6.696   2.604   6.224  0.0704  0.2924 -0.2627
  112MOL   C17331475   6.683   2.499   6.313 -0.1271  0.7414 -0.8502
  112MOL   C17431476   6.556   2.430   6.320 -0.1142  0.3591 -0.1960
  112MOL   C17531477   6.456   2.427   6.226 -0.3391  0.7533  0.1109
  112MOL   C17631478   6.792   2.455   6.394  0.6395  0.0441  0.6520
  112MOL   C17731479   6.917   2.521   6.380 -0.4625  0.0102  0.2515
  112MOL   H17831480   6.820   2.756   6.150 -0.9877  1.3163  1.8254
  112MOL   H17931481   6.612   2.637   6.165 -0.5517 -0.5114  0.1597
  112MOL   H18031482   6.544   2.377   6.414 -0.4405 -0.7009 -0.8250
  112MOL   H18131483   6.481   2.482   6.137 -0.0312  0.3440 -0.0526
  112MOL   H18231484   6.784   2.365   6.454 -2.5002  0.4505  0.9314
  112MOL   H18331485   7.005   2.479   6.428 -0.5124 -1.1232 -0.6241
  112MOL   C18431486   6.324   2.360   6.218 -0.5858  0.0879 -0.0456
  112MOL   C18531487   6.277   2.289   6.327  0.6746 -0.1088 -0.3950
  112MOL   C18631488   6.154   2.218   6.322 -0.2288 -0.2212  0.0613
  112MOL   C18731489   6.083   2.209   6.200 -0.4678  0.1248 -0.7868
  112MOL   C18831490   5.965   2.132   6.198 -0.2364 -0.0741  0.1178
  112MOL   C18931491   5.866   2.130   6.111  0.6767 -0.5371  0.2946
  112MOL   C19031492   6.136   2.279   6.088  0.3951 -0.1390 -0.5344
  112MOL   C19131493   6.248   2.360   6.101 -0.0249 -0.6979  0.2621
  112MOL   H19231494   6.332   2.277   6.420 -0.8535  0.5450  0.6161
  112MOL   H19331495   6.134   2.157   6.409  1.4546 -2.7856 -1.2586
  112MOL   H19431496   5.950   2.068   6.284  1.0868  1.2364  1.3616
  112MOL   H19531497   5.863   2.181   6.016 -0.5305  0.2821  0.7548
  112MOL   H19631498   6.077   2.278   5.998  2.7890 -0.6781 -2.1351
  112MOL   H19731499   6.280   2.424   6.020 -0.0261 -1.4431 -0.3275
  112MOL   C19831500   5.742   2.050   6.117  0.3100 -0.5079  0.2862
  112MOL   C19931501   5.657   2.046   6.002 -0.2645  0.4654  0.3619
  112MOL   C20031502   5.532   1.979   6.009  0.0467  0.0005  0.0142
  112MOL   C20131503   5.486   1.904   6.118 -0.1650 -0.3740  0.3817
  112MOL   C20231504   5.357   1.833   6.118 -0.3918  0.3237  0.1918
  112MOL   C20331505   5.288   1.800   6.005  0.4797 -0.4335 -1.0641
  112MOL   C20431506   5.573   1.910   6.232 -0.1797  0.4009  0.1084
  112MOL   C20531507   5.696   1.980   6.231 -0.3114  0.0192 -0.3315
  112MOL   H20631508   5.684   2.096   5.910 -0.6458 -1.3898 -0.8001
  112MOL   H20731509   5.467   1.982   5.922 -1.5877  0.6824  1.2330
  112MOL   H20831510   5.333   1.802   6.218  0.7491 -1.9094 -0.1738
  112MOL   H20931511   5.333   1.832   5.912 -1.3567  1.8022 -1.2286
  112MOL   H21031512   5.537   1.850   6.315 -0.7154 -0.0502 -0.4375
  112MOL   H21131513   5.763   1.973   6.316 -0.7120  1.2787  0.0992
  112MOL   C21231514   5.164   1.724   6.003  0.4596  1.0661  0.5592
  112MOL   C21331515   5.101   1.711   5.875 -0.2215 -0.4599 -0.5492
  112MOL   C21431516   4.969   1.661   5.867  0.0586 -0.3246  0.1555
  112MOL   C21531517   4.911   1.597   5.981  0.1373  0.8865  1.1066
  112MOL   C21631518   4.798   1.509   5.964  0.3224  0.4706  0.1332
  112MOL   C21731519   4.737   1.481   5.849 -0.0621  1.0073  0.7236
  112MOL   C21831520   4.982   1.600   6.102  0.4691  0.0554 -0.4590
  112MOL   C21931521   5.103   1.668   6.113  0.3656  0.2089 -0.5215
  112MOL   H22031522   5.140   1.757   5.785 -0.2774 -0.3103 -0.4957
  112MOL   H22131523   4.915   1.656   5.773 -0.8104 -1.5351  0.6904
  112MOL   H22231524   4.754   1.473   6.056 -1.2050  3.3840  0.6165
  112MOL   H22331525   4.781   1.509   5.754 -0.1082 -1.6746 -0.1086
  112MOL   H22431526   4.928   1.547   6.179 -0.8038  2.5781  0.4534
  112MOL   H22531527   5.146   1.674   6.212  0.8111  1.9990 -0.8006
  112MOL   C22631528   4.622   1.401   5.825 -0.1738  0.3362 -0.3234
  112MOL   C22731529   4.558   1.330   5.930  0.0991  0.5417  0.5761
  112MOL   C22831530   4.454   1.240   5.907  0.0809 -0.2074 -0.2970
  112MOL   C22931531   4.408   1.223   5.774 -0.0648  0.9922  0.6391
  112MOL   C23031532   4.300   1.129   5.747  0.0840  0.1237 -0.1856
  112MOL   C23131533   4.247   1.097   5.629  0.5363 -0.0738 -0.1222
  112MOL   C23231534   4.473   1.290   5.666  0.1484  0.3220 -0.2400
  112MOL   C23331535   4.576   1.379   5.695 -0.7530  0.2399  0.5446
  112MOL   H23431536   4.599   1.326   6.029  1.0924 -0.5923  0.1400
  112MOL   H23531537   4.411   1.193   5.994  0.3184 -0.8251 -0.5111
  112MOL   H23631538   4.258   1.072   5.829 -0.2889 -0.0006 -0.4610
  112MOL   H23731539   4.284   1.152   5.544 -1.3132  0.6250 -0.5205
  112MOL   H23831540   4.451   1.274   5.562 -0.3726 -2.4682  0.2648
  112MOL   H23931541   4.631   1.418   5.611  1.6078  0.4015  2.1202
  112MOL   C24031542   4.142   0.995   5.600  0.1319 -0.3366 -0.0603
  112MOL   C24131543   4.062   0.928   5.695 -0.5129  0.8281  0.0379
  112MOL   C24231544   3.968   0.835   5.655  0.0693  0.7793  0.7452
  112MOL   C24331545   3.953   0.792   5.521 -0.2213 -0.1564  0.3082
  112MOL   C24431546   3.850   0.690   5.491 -0.6015  0.1101 -0.8176
  112MOL   C24531547   3.798   0.667   5.372  0.1497 -0.4873 -0.8693
  112MOL   C24631548   4.037   0.854   5.429 -0.1195 -0.3630  0.0682
  112MOL   C24731549   4.134   0.946   5.468  0.3265  0.1475  0.8208
  112MOL   H24831550   4.069   0.943   5.801  1.5601 -1.2289  0.2446
  112MOL   H24931551   3.912   0.785   5.733  1.6779  1.4740  2.3779
  112MOL   H25031552   3.815   0.640   5.581 -0.9654  0.3266 -0.8356
  112MOL   H25131553   3.834   0.725   5.288 -4.5829  0.4108 -2.4092
  112MOL   H25231554   4.046   0.817   5.328  0.3981 -0.6583  0.2198
  112MOL   H25331555   4.204   0.979   5.392 -0.7582 -0.3975 -0.4424
  112MOL   C25431556   3.698   0.576   5.322  0.2274  0.0338 -0.4094
  112MOL   C25531557   3.676   0.582   5.186 -0.3575  0.4109  0.0343
  112MOL   C25631558   3.573   0.504   5.135  0.0894 -0.3124 -0.5264
  112MOL   C25731559   3.493   0.421   5.215  0.8425 -0.2450 -0.3508
  112MOL   C25831560   3.377   0.340   5.160  0.1110  0.8438  0.3117
  112MOL   C25931561   3.351   0.307   5.027 -0.2373  0.0378 -0.6915
  112MOL   C26031562   3.514   0.420   5.355  0.4393  1.1827  0.4931
  112MOL   C26131563   3.614   0.501   5.408 -0.0379 -0.8179  0.0744
  112MOL   H26231564   3.743   0.635   5.119  0.5932 -0.0534  0.6043
  112MOL   H26331565   3.565   0.502   5.028 -0.8052 -0.7916 -0.4458
  112MOL   H26431566   3.300   0.312   5.229 -0.3353 -1.2727 -1.0243
  112MOL   H26531567   3.257   0.262   4.998  0.2536 -1.0629 -0.6069
  112MOL   H26631568   3.451   0.353   5.412 -1.2256  1.8036 -0.5605
  112MOL   H26731569   3.626   0.516   5.515 -3.7945  3.6065  0.0370
  112MOL   C26831570   3.441   0.318   4.915  0.4704 -0.6877  0.4141
  112MOL   C26931571   3.437   0.432   4.839  0.6303 -0.2596  0.0773
  112MOL   C27031572   3.523   0.450   4.731 -0.5019  0.3887  0.6664
  112MOL   C27131573   3.624   0.351   4.697  0.0945  0.1844 -0.5549
  112MOL   C27231574   3.723   0.379   4.596 -0.0617  0.5749 -0.4150
  112MOL   C27331575   3.823   0.294   4.573 -0.2819 -0.5293 -0.0800
  112MOL   C27431576   3.613   0.227   4.768  0.3781 -0.5404  0.6896
  112MOL   C27531577   3.533   0.216   4.880 -0.0525 -0.2782 -0.7845
  112MOL   H27631578   3.375   0.516   4.869 -1.2368 -1.5593 -0.0621
  112MOL   H27731579   3.524   0.542   4.675  0.7197  0.6308  1.0639
  112MOL   H27831580   3.716   0.469   4.536  1.9251  0.1083 -1.3850
  112MOL   H27931581   3.832   0.204   4.632 -0.1207 -0.2109  0.3893
  112MOL   H28031582   3.664   0.139   4.733  0.6610  0.5754 -1.7686
  112MOL   H28131583   3.534   0.128   4.942 -3.0815 -1.0491 -1.7865
  112MOL   H28231584   3.899   0.306   4.498  0.6043  0.1068  0.9064
  113MOL     C131585   2.417   0.304   7.235  0.5254 -0.1789 -0.1821
  113MOL     C231586   2.313   0.216   7.266  0.0800  0.4253 -0.7522
  113MOL     C331587   2.267   0.113   7.167 -0.0653  0.0536 -0.0930
  113MOL     C431588   2.336   0.101   7.046  0.0741  0.3277 -0.0301
  113MOL     C531589   2.302   8.131   6.958  0.4465 -0.5129 -0.1549
  113MOL     C631590   2.199   8.042   6.971 -0.4198 -0.2645  0.6836
  113MOL     C731591   2.440   0.199   7.017  1.1892 -0.2877  1.0754
  113MOL     C831592   2.483   0.290   7.115  0.4203 -0.1683  0.2818
  113MOL     H931593   2.265   0.221   7.362 -2.0255 -0.8777 -1.6926
  113MOL    H1031594   2.185   0.051   7.201 -0.5634 -0.0691 -1.5065
  113MOL    H1131595   2.371   8.127   6.875 -0.1227  0.6646 -0.6885
  113MOL    H1231596   2.131   8.045   7.055 -0.7169  0.0655  0.4364
  113MOL    H1331597   2.485   0.193   6.919 -1.7815  3.2798 -0.6240
  113MOL    H1431598   2.558   0.364   7.094 -0.5234  1.2576  1.7518
  113MOL    H1531599   2.452   0.379   7.305  0.3255 -0.8035  0.5905
  113MOL    C1631600   2.169   7.931   6.880 -0.4225 -0.5081 -0.1968
  113MOL    C1731601   2.245   7.896   6.771 -0.0645  0.1674  0.0308
  113MOL    C1831602   2.216   7.782   6.693  0.4366 -0.2761 -0.1977
  113MOL    C1931603   2.120   7.692   6.733  0.0142 -0.8681  0.1487
  113MOL    C2031604   2.083   7.569   6.660 -0.0200  0.8365  0.7853
  113MOL    C2131605   2.159   7.504   6.572 -0.4343  0.0878 -0.0651
  113MOL    C2231606   2.037   7.729   6.846  0.2970 -0.2878 -0.5279
  113MOL    C2331607   2.065   7.845   6.918 -0.2886 -0.1801 -0.2367
  113MOL    H2431608   2.320   7.968   6.741 -0.7841  1.3211  0.9638
  113MOL    H2531609   2.281   7.749   6.613 -0.7472 -0.8417 -0.9378
  113MOL    H2631610   1.984   7.532   6.684 -0.8104  2.5363  0.2477
  113MOL    H2731611   2.262   7.534   6.559 -0.1102  0.1261  2.3675
  113MOL    H2831612   1.949   7.675   6.877 -0.5311  1.7316  0.7253
  113MOL    H2931613   1.999   7.869   7.000  0.7496 -2.9186  1.4772
  113MOL    C3031614   2.121   7.384   6.502 -0.2118  0.2721  0.4350
  113MOL    C3131615   2.215   7.319   6.417 -0.4348 -0.0760 -0.2565
  113MOL    C3231616   2.189   7.195   6.363 -0.1612 -0.1966  0.1150
  113MOL    C3331617   2.068   7.130   6.378  0.3112 -0.3250  0.1384
  113MOL    C3431618   2.041   6.988   6.336 -0.1762 -0.2742  0.0264
  113MOL    C3531619   2.134   6.894   6.317 -0.2322  0.0818  0.4546
  113MOL    C3631620   1.976   7.185   6.464  0.3175 -0.4989 -0.2166
  113MOL    C3731621   2.001   7.312   6.526  0.1087  0.1294 -0.1085
  113MOL    H3831622   2.314   7.361   6.411 -0.1272 -0.6020  0.8497
  113MOL    H3931623   2.266   7.143   6.308  1.6680  3.8318 -1.2694
  113MOL    H4031624   1.935   6.975   6.315 -0.8532  2.2625  1.7556
  113MOL    H4131625   2.236   6.925   6.333 -0.5383  0.2751  2.0307
  113MOL    H4231626   1.878   7.143   6.480 -0.1667 -0.1219 -2.0048
  113MOL    H4331627   1.926   7.362   6.585  0.3960  0.8879 -0.3838
  113MOL    C4431628   2.110   6.762   6.269  0.1951 -0.5704 -1.2847
  113MOL    C4531629   1.991   6.719   6.210  1.1357  0.0910 -0.3041
  113MOL    C4631630   1.965   6.589   6.164 -0.5908 -0.0393 -0.9303
  113MOL    C4731631   2.065   6.491   6.186 -0.6726 -0.2942 -0.5582
  113MOL    C4831632   2.041   6.353   6.144  0.0731  0.1548 -0.2034
  113MOL    C4931633   2.128   6.253   6.126  0.3412  0.4596  0.5517
  113MOL    C5031634   2.191   6.531   6.243  0.4776 -0.1742 -0.5145
  113MOL    C5131635   2.212   6.665   6.285  0.1131  0.4910 -0.1287
  113MOL    H5231636   1.905   6.783   6.195  0.4965 -0.5520  0.5459
  113MOL    H5331637   1.872   6.562   6.116 -1.5186 -0.3983  0.9830
  113MOL    H5431638   1.937   6.329   6.124  0.2625 -1.9063  1.0950
  113MOL    H5531639   2.233   6.256   6.148  0.5880  0.5026 -0.5881
  113MOL    H5631640   2.270   6.461   6.262  0.5920 -0.0794 -0.6355
  113MOL    H5731641   2.310   6.682   6.327  0.2266 -1.9020  0.6142
  113MOL    C5831642   2.084   6.120   6.075 -0.2726  0.0449 -0.3297
  113MOL    C5931643   2.146   6.003   6.111 -1.0152 -0.3876  0.1488
  113MOL    C6031644   2.093   5.876   6.090  0.1225  0.1685  0.4481
  113MOL    C6131645   1.967   5.858   6.026 -0.3882  0.0165  0.0178
  113MOL    C6231646   1.897   5.734   6.006 -0.0208  0.5263 -0.4554
  113MOL    C6331647   1.925   5.613   6.065 -0.0767  1.0035  0.3078
  113MOL    C6431648   1.906   5.977   5.975 -0.2037  0.6131 -0.5334
  113MOL    C6531649   1.960   6.106   5.998 -0.4801 -0.3701 -0.7907
  113MOL    H6631650   2.240   6.002   6.165 -0.9985 -0.0581  0.1294
  113MOL    H6731651   2.155   5.798   6.131  0.3146  1.1264  2.0040
  113MOL    H6831652   1.816   5.741   5.935  1.6596  0.4846 -2.3858
  113MOL    H6931653   2.004   5.604   6.138  1.0792  2.7429 -0.6936
  113MOL    H7031654   1.822   5.973   5.908  0.7708  3.0640 -1.9564
  113MOL    H7131655   1.908   6.190   5.955 -0.7333  0.5580  1.2731
  113MOL    C7231656   1.833   5.493   6.048 -0.4794  0.2246  0.2855
  113MOL    C7331657   1.874   5.365   6.106  0.1960 -0.4098  0.2337
  113MOL    C7431658   1.808   5.243   6.086  0.2978 -0.9118  0.3821
  113MOL    C7531659   1.697   5.247   6.003  0.0380 -0.7193  0.4278
  113MOL    C7631660   1.606   5.126   5.973 -0.1818 -0.2700 -0.3052
  113MOL    C7731661   1.641   4.996   6.001  0.0793  0.8591 -0.4895
  113MOL    C7831662   1.649   5.368   5.951 -0.0975 -0.3802 -0.4561
  113MOL    C7931663   1.717   5.489   5.966 -0.2156 -0.4097  0.0441
  113MOL    H8031664   1.962   5.362   6.168  0.0204 -1.5501  0.4468
  113MOL    H8131665   1.833   5.156   6.146 -0.3296 -1.6325 -0.3797
  113MOL    H8231666   1.512   5.163   5.935 -1.0706  0.8893  2.8723
  113MOL    H8331667   1.742   4.986   6.039 -1.0387  0.3493  2.5449
  113MOL    H8431668   1.569   5.365   5.879 -0.6750 -0.2447  0.1747
  113MOL    H8531669   1.687   5.578   5.914 -1.1636 -0.8394 -0.1392
  113MOL    C8631670   1.574   4.870   5.984  0.7929  0.2375  0.0022
  113MOL    C8731671   1.481   4.857   5.882  0.6255  0.1480 -0.1650
  113MOL    C8831672   1.415   4.731   5.863 -0.7062 -0.2162  1.1137
  113MOL    C8931673   1.440   4.620   5.945 -0.0510  1.0519 -0.3891
  113MOL    C9031674   1.367   4.497   5.925  0.2531  0.9175 -0.6310
  113MOL    C9131675   1.343   4.407   6.021 -0.3885  0.0808 -0.4395
  113MOL    C9231676   1.531   4.635   6.055  0.2610 -0.5288  0.0594
  113MOL    C9331677   1.598   4.759   6.069 -0.3383  0.7107 -0.2078
  113MOL    H9431678   1.478   4.942   5.816  2.4961 -0.6010 -1.2610
  113MOL    H9531679   1.358   4.715   5.773  0.5315  0.0451  0.2693
  113MOL    H9631680   1.326   4.470   5.829  1.3511 -1.8668 -0.3538
  113MOL    H9731681   1.385   4.424   6.119  1.5554 -1.5106 -0.9598
  113MOL    H9831682   1.559   4.556   6.124  0.1581  1.5359  2.5254
  113MOL    H9931683   1.659   4.784   6.154  0.2394  0.1580 -0.4478
  113MOL   C10031684   1.254   4.298   6.005 -0.0085 -0.4090 -0.3690
  113MOL   C10131685   1.267   4.188   6.091  0.4576 -0.2494 -0.2334
  113MOL   C10231686   1.179   4.078   6.069 -0.4563  0.0132  0.0641
  113MOL   C10331687   1.077   4.072   5.971 -0.3954 -0.7507  0.0148
  113MOL   C10431688   0.963   3.973   5.978 -0.3629  0.3836 -0.4658
  113MOL   C10531689   0.943   3.883   6.078  0.5745  0.3543  0.0331
  113MOL   C10631690   1.066   4.186   5.891  0.1828  0.1485 -0.0963
  113MOL   C10731691   1.157   4.299   5.904  0.1511  0.0957  0.9728
  113MOL   H10831692   1.338   4.188   6.172 -0.4291  0.1629  0.5655
  113MOL   H10931693   1.199   3.987   6.124  0.2660  0.5423  0.6905
  113MOL   H11031694   0.895   3.978   5.894 -1.7064  0.2213  0.5982
  113MOL   H11131695   1.018   3.878   6.155 -0.1464 -3.0586  0.5996
  113MOL   H11231696   0.986   4.200   5.820  2.9383  3.7597 -2.6614
  113MOL   H11331697   1.148   4.382   5.837  0.3472 -0.1211  0.6767
  113MOL   C11431698   0.833   3.783   6.091 -0.2440  0.6876 -0.1858
  113MOL   C11531699   0.838   3.699   6.202  0.3280  0.2609  0.3742
  113MOL   C11631700   0.743   3.597   6.214 -0.2134  0.5041  0.2957
  113MOL   C11731701   0.632   3.588   6.127  0.6192  0.0260  0.3966
  113MOL   C11831702   0.518   3.495   6.141  0.4363 -0.5557  0.0253
  113MOL   C11931703   0.504   3.400   6.236  0.2832 -0.8910 -0.5841
  113MOL   C12031704   0.629   3.671   6.016  0.1491 -0.4967 -0.5230
  113MOL   C12131705   0.727   3.772   5.998 -0.5832  0.1077  0.0020
  113MOL   H12231706   0.913   3.702   6.280  1.2602 -0.4178 -0.4711
  113MOL   H12331707   0.754   3.525   6.294 -0.0627 -1.0818 -1.1420
  113MOL   H12431708   0.432   3.513   6.078  0.2434 -1.8613 -0.0969
  113MOL   H12531709   0.582   3.387   6.311  0.1401  2.1491  0.1650
  113MOL   H12631710   0.547   3.664   5.947 -1.6538 -1.3086  1.6726
  113MOL   H12731711   0.714   3.824   5.904  0.6256  1.0614  0.3496
  113MOL   C12831712   0.393   3.310   6.248 -0.4753  0.0037  0.6201
  113MOL   C12931713   0.289   3.295   6.157 -0.5406  0.3951  0.0524
  113MOL   C13031714   0.186   3.201   6.171  0.1026  0.5302 -0.0230
  113MOL   C13131715   0.177   3.123   6.286 -0.3834 -0.4449 -0.3053
  113MOL   C13231716   0.081   3.017   6.297  0.0565  0.4490  0.6678
  113MOL   C13331717   0.082   2.905   6.374 -0.4368  0.2489  0.1542
  113MOL   C13431718   0.283   3.137   6.375 -0.6907  0.3301 -0.1132
  113MOL   C13531719   0.390   3.223   6.360  0.3392  0.0515  0.0036
  113MOL   H13631720   0.297   3.344   6.061  3.7829  0.7911  0.5164
  113MOL   H13731721   0.109   3.182   6.098  0.7767  0.1242 -0.6271
  113MOL   H13831722   8.142   3.021   6.229  0.4884  0.6816  0.1493
  113MOL   H13931723   0.170   2.878   6.431  0.6133  0.9285 -1.1102
  113MOL   H14031724   0.269   3.083   6.468  0.1092  1.5861  0.7513
  113MOL   H14131725   0.453   3.233   6.447  1.9772 -1.9883 -0.9023
  113MOL   C14231726   8.108   2.811   6.388 -0.2779 -0.6406 -0.6617
  113MOL   C14331727   8.124   2.702   6.473  0.3586 -0.6575  0.1376
  113MOL   C14431728   8.023   2.610   6.504 -0.0542  0.6120 -0.6890
  113MOL   C14531729   7.894   2.638   6.456  0.1324  0.2851 -0.0159
  113MOL   C14631730   7.779   2.551   6.485 -0.3784 -0.2779 -0.6867
  113MOL   C14731731   7.770   2.472   6.592 -0.6238 -0.2582 -0.1751
  113MOL   C14831732   7.871   2.756   6.378 -0.7545  0.1950  0.3551
  113MOL   C14931733   7.978   2.847   6.343 -0.3863  0.7618  0.1293
  113MOL   H15031734   0.078   2.686   6.515  0.1293 -1.6928  0.3045
  113MOL   H15131735   8.042   2.523   6.564  2.2641  0.5721 -1.4136
  113MOL   H15231736   7.701   2.550   6.411 -0.1121 -2.4698 -0.9578
  113MOL   H15331737   7.843   2.479   6.672 -0.9967 -0.0935  0.1599
  113MOL   H15431738   7.771   2.780   6.346 -1.4296 -2.4205  0.4015
  113MOL   H15531739   7.948   2.925   6.275  0.6085 -1.8673 -3.4897
  113MOL   C15631740   7.661   2.371   6.615 -0.0257 -0.0179  0.5715
  113MOL   C15731741   7.578   2.326   6.512  0.2480 -0.5094 -0.2555
  113MOL   C15831742   7.480   2.229   6.532 -0.1988 -0.4466  0.1639
  113MOL   C15931743   7.455   2.179   6.666 -0.0673  0.1605 -0.1416
  113MOL   C16031744   7.336   2.091   6.687 -0.2012 -0.4176  0.5696
  113MOL   C16131745   7.278   2.039   6.792  0.2758 -0.0941 -0.5523
  113MOL   C16231746   7.542   2.224   6.772  0.0757  0.6188 -0.1057
  113MOL   C16331747   7.646   2.321   6.746  0.1149  0.3307 -0.2141
  113MOL   H16431748   7.576   2.369   6.413  0.3431  1.2950  0.5124
  113MOL   H16531749   7.423   2.188   6.450 -1.7049 -0.2917  1.1226
  113MOL   H16631750   7.295   2.071   6.589  0.7647 -0.0655  0.0905
  113MOL   H16731751   7.319   2.066   6.888 -1.1189  0.7529 -0.1842
  113MOL   H16831752   7.541   2.183   6.872  0.8191  1.8161  0.4043
  113MOL   H16931753   7.708   2.355   6.827 -2.2100  2.0053  0.9200
  113MOL   C17031754   7.152   1.960   6.794 -0.1708  0.0549 -0.9250
  113MOL   C17131755   7.083   1.962   6.914  0.9129 -0.7686 -0.4744
  113MOL   C17231756   6.949   1.916   6.921 -0.5999  0.0937  0.3756
  113MOL   C17331757   6.886   1.861   6.808 -0.5571 -0.3247  0.2055
  113MOL   C17431758   6.745   1.818   6.805 -0.1212  0.3879  0.0470
  113MOL   C17531759   6.661   1.797   6.910  0.4014  0.8100  0.6263
  113MOL   C17631760   6.958   1.857   6.689  0.8995  0.3793 -0.0558
  113MOL   C17731761   7.092   1.905   6.682 -0.1246 -0.3895  0.4370
  113MOL   H17831762   7.123   2.009   7.003  1.0798 -1.3852 -0.2190
  113MOL   H17931763   6.899   1.939   7.013  1.1056  1.0030  1.1067
  113MOL   H18031764   6.707   1.788   6.709 -0.4280  1.8272 -0.2876
  113MOL   H18131765   6.691   1.831   7.008 -0.1156 -0.3067  1.1789
  113MOL   H18231766   6.913   1.807   6.604 -0.7414  0.0346  1.0000
  113MOL   H18331767   7.147   1.898   6.589 -0.4717 -1.2238  0.2845
  113MOL   C18431768   6.535   1.738   6.903  0.4380 -0.1384 -0.7561
  113MOL   C18531769   6.490   1.671   7.019 -0.2453  0.1231  0.1865
  113MOL   C18631770   6.368   1.602   7.016  0.3156 -0.7012 -0.4942
  113MOL   C18731771   6.283   1.616   6.906 -0.5348 -0.7282  0.7237
  113MOL   C18831772   6.156   1.542   6.906  0.4608 -0.1315  0.3889
  113MOL   C18931773   6.055   1.550   6.821  0.4764  0.7343  0.3770
  113MOL   C19031774   6.324   1.693   6.792 -0.8403 -0.7585  0.0916
  113MOL   C19131775   6.450   1.753   6.790 -0.7264  0.4778 -0.0833
  113MOL   H19231776   6.556   1.655   7.102 -2.0754  0.3262  1.7114
  113MOL   H19331777   6.359   1.539   7.103  1.3867 -0.1274  0.0455
  113MOL   H19431778   6.147   1.470   6.986 -1.4608 -3.5962 -2.7745
  113MOL   H19531779   6.061   1.619   6.738 -0.4568 -1.2422 -1.3790
  113MOL   H19631780   6.258   1.710   6.708 -0.7226  2.4032  0.5811
  113MOL   H19731781   6.481   1.791   6.694 -0.4363 -0.5829 -0.4259
  113MOL   C19831782   5.932   1.468   6.819  0.0153 -0.3911 -0.4259
  113MOL   C19931783   5.874   1.446   6.690 -0.2564  0.7057  0.0167
  113MOL   C20031784   5.760   1.364   6.674  0.1515  0.2146  0.1819
  113MOL   C20131785   5.704   1.300   6.781  0.3808  0.5254  0.0605
  113MOL   C20231786   5.578   1.227   6.781 -0.4092  0.4657 -0.1238
  113MOL   C20331787   5.479   1.233   6.686 -0.4720 -0.5175  0.2018
  113MOL   C20431788   5.768   1.308   6.909  0.2027 -0.0627  0.1476
  113MOL   C20531789   5.880   1.391   6.922 -0.1593  0.3440 -0.6742
  113MOL   H20631790   5.909   1.490   6.597  1.8466 -2.5020 -0.7811
  113MOL   H20731791   5.715   1.345   6.577  1.2431 -2.6882  0.2032
  113MOL   H20831792   5.574   1.157   6.863 -0.8806  1.1776  0.4659
  113MOL   H20931793   5.481   1.306   6.606  0.4515  1.0565  1.6065
  113MOL   H21031794   5.723   1.260   6.994 -1.8829  1.2968 -0.1487
  113MOL   H21131795   5.944   1.395   7.009  0.5003  0.4651 -1.1602
  113MOL   C21231796   5.353   1.158   6.693 -0.2854  0.5953 -0.8248
  113MOL   C21331797   5.296   1.117   6.813 -0.1726 -0.1030  0.3626
  113MOL   C21431798   5.168   1.055   6.815  0.7726  0.2044 -0.5319
  113MOL   C21531799   5.100   1.017   6.696  0.4398 -0.4928  0.0790
  113MOL   C21631800   4.966   0.948   6.695 -0.5007 -0.0377  0.3572
  113MOL   C21731801   4.896   0.916   6.802 -0.6116 -0.4458 -0.1617
  113MOL   C21831802   5.167   1.045   6.574 -0.0119 -0.2168 -0.0054
  113MOL   C21931803   5.284   1.123   6.577 -0.1828 -0.5289  0.2163
  113MOL   H22031804   5.344   1.139   6.907  1.2282 -2.4538  0.2344
  113MOL   H22131805   5.135   1.016   6.910  0.1382 -0.3665 -0.9761
  113MOL   H22231806   4.926   0.929   6.596 -0.3136  1.4806 -0.0232
  113MOL   H22331807   4.937   0.921   6.902  1.7053  2.2409 -1.1669
  113MOL   H22431808   5.129   1.023   6.475  0.4186 -0.4785 -0.1132
  113MOL   H22531809   5.317   1.165   6.483 -1.1016 -1.0138 -0.3326
  113MOL   C22631810   4.763   0.860   6.801  0.4555  0.7314 -0.7979
  113MOL   C22731811   4.696   0.855   6.929  0.0020  0.2649  0.3573
  113MOL   C22831812   4.572   0.788   6.944 -0.5805  0.4023 -0.1824
  113MOL   C22931813   4.499   0.748   6.830  0.1294  0.2050 -0.0435
  113MOL   C23031814   4.373   0.681   6.854  0.1011  0.1147  0.3689
  113MOL   C23131815   4.313   0.591   6.774  0.6261  0.2215 -0.2030
  113MOL   C23231816   4.559   0.764   6.705 -0.2716  0.1192 -1.1540
  113MOL   C23331817   4.691   0.817   6.683 -0.0343 -0.7069 -0.4183
  113MOL   H23431818   4.758   0.891   7.010  1.2263  0.5585 -0.6806
  113MOL   H23531819   4.528   0.779   7.042 -0.0020  0.9553  0.1368
  113MOL   H23631820   4.319   0.717   6.941  0.1101  1.7158 -0.2707
  113MOL   H23731821   4.361   0.559   6.683  0.5311 -0.3005 -0.0745
  113MOL   H23831822   4.508   0.718   6.622  1.0942  0.0109 -1.9361
  113MOL   H23931823   4.726   0.841   6.583 -1.5904  0.4751 -0.6995
  113MOL   C24031824   4.184   0.523   6.802  0.0655  0.0183 -1.2486
  113MOL   C24131825   4.160   0.407   6.725  0.0644 -0.0177 -0.4747
  113MOL   C24231826   4.039   0.342   6.746 -0.1298  0.1745  0.0335
  113MOL   C24331827   3.945   0.386   6.843  0.1548 -0.4065  0.2663
  113MOL   C24431828   3.823   0.300   6.871  0.4472  0.1097 -0.5981
  113MOL   C24531829   3.756   0.296   6.985 -0.2318 -1.0726 -1.5601
  113MOL   C24631830   3.966   0.505   6.912  0.1349  0.1314  0.1578
  113MOL   C24731831   4.086   0.576   6.894  0.8067 -1.4606 -0.2260
  113MOL   H24831832   4.232   0.369   6.654  0.4658  0.8611 -0.5432
  113MOL   H24931833   4.013   0.252   6.693  1.4455  0.3041 -0.9870
  113MOL   H25031834   3.790   0.240   6.787 -0.7841 -1.0974  0.7247
  113MOL   H25131835   3.795   0.361   7.062 -1.0445 -0.6299 -1.5139
  113MOL   H25231836   3.887   0.541   6.977  0.4886  1.1731  0.0189
  113MOL   H25331837   4.095   0.665   6.954  0.7849  0.2963 -2.7555
  113MOL   C25431838   3.635   0.214   7.022  0.2736  0.0395 -0.1515
  113MOL   C25531839   3.574   0.256   7.140  0.5258 -0.2956 -0.7670
  113MOL   C25631840   3.444   0.200   7.176  0.1017  0.5848 -0.6387
  113MOL   C25731841   3.384   0.100   7.091  0.4128 -0.1544 -0.0564
  113MOL   C25831842   3.261   0.022   7.123  0.4080  0.7652 -0.2576
  113MOL   C25931843   3.204   0.001   7.244 -0.1709  0.6790  0.3302
  113MOL   C26031844   3.446   0.062   6.971  0.2365 -0.0919  0.4547
  113MOL   C26131845   3.569   0.124   6.934  0.2594  0.0991 -0.5273
  113MOL   H26231846   3.618   0.333   7.203  0.0455 -0.2823 -0.4418
  113MOL   H26331847   3.396   0.240   7.265 -2.9296  0.3669 -2.1252
  113MOL   H26431848   3.217   8.115   7.039  1.9964 -1.1792  0.0555
  113MOL   H26531849   3.119   8.081   7.259  0.4166 -0.1105  0.3126
  113MOL   H26631850   3.407   8.119   6.921  2.1427 -0.3596 -0.5830
  113MOL   H26731851   3.616   0.099   6.840  0.4775 -1.7717  0.0603
  113MOL   C26831852   3.251   0.058   7.375 -0.3494  0.2733  0.9359
  113MOL   C26931853   3.371   0.018   7.437  0.4465 -0.5578  0.3606
  113MOL   C27031854   3.410   0.067   7.560  0.3213  0.1200 -0.7646
  113MOL   C27131855   3.333   0.164   7.628 -0.1764  0.5017 -0.0945
  113MOL   C27231856   3.378   0.222   7.754  0.2299  1.0622  0.2978
  113MOL   C27331857   3.310   0.308   7.833  0.1808  0.5286 -0.8619
  113MOL   C27431858   3.209   0.200   7.572  0.3452  0.1256  0.4653
  113MOL   C27531859   3.171   0.151   7.441 -0.0616  0.2447  0.0867
  113MOL   H27631860   3.428   8.089   7.381 -0.2842 -0.1196 -0.9919
  113MOL   H27731861   3.505   0.046   7.608 -0.0268  3.0649  1.3768
  113MOL   H27831862   3.477   0.193   7.786  1.1453  2.4989 -1.1245
  113MOL   H27931863   3.218   0.360   7.807 -0.5494 -0.4313 -0.2160
  113MOL   H28031864   3.140   0.270   7.617 -1.0585 -0.3736 -0.8629
  113MOL   H28131865   3.079   0.175   7.390 -2.8784 -3.5113  3.1927
  113MOL   H28231866   3.345   0.327   7.933 -1.2909 -0.8766 -0.0561
  114MOL     C131867   4.143   2.126   0.952  0.6054 -1.0980 -0.3685
  114MOL     C231868   4.130   2.138   1.091 -0.4628 -0.9345  0.4471
  114MOL     C331869   4.162   2.260   1.154 -0.4427  0.7151 -0.2660
  114MOL     C431870   4.192   2.378   1.075  0.4802  0.0607  0.2363
  114MOL     C531871   4.240   2.501   1.131  0.0599 -0.9781 -0.1826
  114MOL     C631872   4.262   2.616   1.065  0.0004  0.2119 -0.4201
  114MOL     C731873   4.184   2.366   0.937  0.2474 -0.1078 -0.2048
  114MOL     C831874   4.174   2.240   0.876  0.0536 -0.2991 -0.5241
  114MOL     H931875   4.118   2.047   1.148 -1.6352 -0.6615  0.6439
  114MOL    H1031876   4.163   2.253   1.262  1.2227 -1.1116 -0.3757
  114MOL    H1131877   4.262   2.506   1.236  0.8592 -0.0369 -0.3797
  114MOL    H1231878   4.247   2.623   0.959  1.1430 -0.9999 -0.6757
  114MOL    H1331879   4.198   2.457   0.881  2.0907 -1.1592 -1.5039
  114MOL    H1431880   4.182   2.237   0.768 -0.9964  1.6229 -0.6808
  114MOL    H1531881   4.144   2.032   0.899  0.5238 -0.2672 -1.8853
  114MOL    C1631882   4.311   2.742   1.121  0.1509  0.6701 -0.4447
  114MOL    C1731883   4.272   2.865   1.067 -0.8450  0.4335  0.3192
  114MOL    C1831884   4.310   2.988   1.116 -0.6971 -0.0999  0.1975
  114MOL    C1931885   4.400   2.991   1.228 -0.1921  0.2714 -0.2558
  114MOL    C2031886   4.434   3.130   1.286 -0.5381  0.1559 -0.1153
  114MOL    C2131887   4.519   3.162   1.379  0.2650 -0.8940  1.5306
  114MOL    C2231888   4.441   2.871   1.287  0.3684 -0.2329  0.0425
  114MOL    C2331889   4.400   2.753   1.233  0.2705 -0.2795 -0.2429
  114MOL    H2431890   4.216   2.864   0.975  0.0920 -0.0712 -0.2501
  114MOL    H2531891   4.281   3.082   1.072 -0.9279 -0.8583 -1.2865
  114MOL    H2631892   4.363   3.205   1.252 -0.5752 -0.5453 -1.6550
  114MOL    H2731893   4.593   3.090   1.411  0.1712 -1.3933  0.6329
  114MOL    H2831894   4.491   2.878   1.383 -0.9668  2.0453  0.6170
  114MOL    H2931895   4.425   2.667   1.293 -0.2496 -0.0933  0.2468
  114MOL    C3031896   4.500   3.294   1.454  0.1412  0.0385  0.2348
  114MOL    C3131897   4.364   3.344   1.470  0.0607  0.5966 -0.6999
  114MOL    C3231898   4.342   3.461   1.542 -0.1398  0.1220  0.3622
  114MOL    C3331899   4.448   3.533   1.593 -0.0654  0.5499  0.8676
  114MOL    C3431900   4.418   3.663   1.653  0.2446 -0.1129  0.1641
  114MOL    C3531901   4.498   3.746   1.720  0.7022  0.3521  0.5950
  114MOL    C3631902   4.580   3.486   1.585  0.0560  0.1602  0.2654
  114MOL    C3731903   4.606   3.369   1.511  0.0164 -0.4349 -0.2038
  114MOL    H3831904   4.273   3.296   1.436 -0.7748  0.9458  0.9825
  114MOL    H3931905   4.240   3.497   1.552  0.2656  0.9040  1.8066
  114MOL    H4031906   4.312   3.684   1.647  0.0622 -0.7448  1.0490
  114MOL    H4131907   4.601   3.716   1.733  0.8126 -0.2160 -1.4158
  114MOL    H4231908   4.667   3.542   1.616  0.4049 -0.8344  1.1113
  114MOL    H4331909   4.708   3.336   1.500  0.0317 -0.5303  0.2256
  114MOL    C4431910   4.447   3.872   1.784 -0.4606  0.2294 -0.4566
  114MOL    C4531911   4.540   3.970   1.834 -0.4421  0.2645 -0.4531
  114MOL    C4631912   4.494   4.081   1.914 -0.4159  0.0897  0.1457
  114MOL    C4731913   4.354   4.093   1.931  0.2934  0.0905  0.3733
  114MOL    C4831914   4.292   4.203   2.003 -0.4072  0.3546 -0.7714
  114MOL    C4931915   4.176   4.258   1.959 -0.6927 -0.5327  0.2791
  114MOL    C5031916   4.268   4.001   1.874 -0.2791 -0.6273 -0.0985
  114MOL    C5131917   4.310   3.887   1.807 -0.2258 -0.3037  0.2105
  114MOL    H5231918   4.645   3.951   1.818  0.0157  1.4853  1.0843
  114MOL    H5331919   4.558   4.159   1.954  0.4098 -0.8033  0.5824
  114MOL    H5431920   4.341   4.223   2.098  0.5175  0.8307 -1.3352
  114MOL    H5531921   4.132   4.230   1.864 -0.6154 -0.0161  0.0890
  114MOL    H5631922   4.160   4.010   1.877 -0.2485  0.0157 -0.8535
  114MOL    H5731923   4.237   3.822   1.760  1.4368 -0.4162 -2.3438
  114MOL    C5831924   4.092   4.358   2.031  0.4910  0.0748 -0.8618
  114MOL    C5931925   3.985   4.416   1.961 -0.2178 -0.1932 -0.3340
  114MOL    C6031926   3.890   4.491   2.035 -0.3994  0.0756 -0.1946
  114MOL    C6131927   3.904   4.520   2.169  0.3488 -0.4350 -0.2212
  114MOL    C6231928   3.813   4.622   2.220  0.0539 -0.4700 -0.5589
  114MOL    C6331929   3.841   4.723   2.306  0.2292 -0.7001  0.0121
  114MOL    C6431930   4.014   4.466   2.239  0.0727 -0.2552  0.4948
  114MOL    C6531931   4.109   4.382   2.175  0.6655  0.0086  0.6621
  114MOL    H6631932   3.967   4.406   1.855  0.9346  1.5167 -0.7124
  114MOL    H6731933   3.812   4.535   1.975 -2.8572  0.2016  2.9484
  114MOL    H6831934   3.712   4.605   2.186  0.7084 -3.7905 -0.9796
  114MOL    H6931935   3.944   4.728   2.337  0.0204 -3.0348  1.2862
  114MOL    H7031936   4.042   4.494   2.339  0.4898 -1.7895  0.8178
  114MOL    H7131937   4.188   4.347   2.240 -0.7624 -0.8306  1.9758
  114MOL    C7231938   3.739   4.819   2.358 -0.4159  0.1843 -0.2229
  114MOL    C7331939   3.766   4.958   2.371  0.1742  0.1921 -0.2900
  114MOL    C7431940   3.666   5.042   2.421  0.2920  0.5863  0.5539
  114MOL    C7531941   3.531   4.992   2.440 -0.5895 -0.5735 -0.4756
  114MOL    C7631942   3.422   5.086   2.477 -0.2759 -0.1780  0.0905
  114MOL    C7731943   3.290   5.061   2.501  0.2552  0.5136 -0.1999
  114MOL    C7831944   3.509   4.854   2.425  0.1613 -0.3663 -0.4387
  114MOL    C7931945   3.609   4.770   2.387  0.2340  0.2153 -0.0548
  114MOL    H8031946   3.864   4.998   2.346  0.8201 -0.6615  0.8386
  114MOL    H8131947   3.684   5.148   2.418 -1.1861  0.9233  2.7440
  114MOL    H8231948   3.465   5.185   2.485 -1.6503  0.4928 -0.7374
  114MOL    H8331949   3.247   4.962   2.492  1.5033 -0.1247  0.6783
  114MOL    H8431950   3.414   4.814   2.457 -0.5173  1.1338 -0.5388
  114MOL    H8531951   3.594   4.664   2.372 -0.6876  0.2361  0.7159
  114MOL    C8631952   3.189   5.170   2.526 -0.6017  0.0283  0.0739
  114MOL    C8731953   3.066   5.121   2.570 -0.4475  0.0103 -0.3523
  114MOL    C8831954   2.963   5.210   2.588  0.0070 -0.0608  0.5350
  114MOL    C8931955   2.978   5.345   2.569 -0.4775 -0.4269 -0.1527
  114MOL    C9031956   2.861   5.436   2.581  0.1549 -0.0239 -0.2836
  114MOL    C9131957   2.753   5.423   2.663 -0.5453  0.1772  0.9631
  114MOL    C9231958   3.106   5.397   2.533 -0.1693  0.3656 -0.4323
  114MOL    C9331959   3.213   5.306   2.511  0.2066 -0.3452  0.1339
  114MOL    H9431960   3.058   5.016   2.595 -0.3484  0.1498  0.2791
  114MOL    H9531961   2.872   5.173   2.632  0.4931 -2.6310 -0.5897
  114MOL    H9631962   2.874   5.516   2.510  1.3878 -0.6207 -0.7403
  114MOL    H9731963   2.748   5.343   2.735 -2.6192  0.3469  1.0264
  114MOL    H9831964   3.119   5.503   2.514  1.1166 -0.2833 -3.5455
  114MOL    H9931965   3.313   5.329   2.479  0.0106  0.8392  0.3556
  114MOL   C10031966   2.635   5.507   2.674 -0.9576  0.0479  0.4488
  114MOL   C10131967   2.537   5.482   2.776  0.1939  0.8231 -0.6215
  114MOL   C10231968   2.413   5.556   2.777 -0.3142 -0.8003  0.0110
  114MOL   C10331969   2.385   5.655   2.676 -0.3598 -0.5672  0.1020
  114MOL   C10431970   2.252   5.711   2.665 -0.8266  0.2057  0.1180
  114MOL   C10531971   2.204   5.778   2.554  0.7451  0.2337  0.0562
  114MOL   C10631972   2.489   5.689   2.586  0.2336 -1.0183  0.0858
  114MOL   C10731973   2.614   5.618   2.588 -0.0209  1.2716 -0.0927
  114MOL   H10831974   2.554   5.406   2.850 -0.5715  1.3514  0.1015
  114MOL   H10931975   2.352   5.526   2.861  0.9036  1.0770  1.6225
  114MOL   H11031976   2.203   5.695   2.760  0.9854 -0.1085  1.0201
  114MOL   H11131977   2.258   5.775   2.461 -1.4289  0.3898 -1.2335
  114MOL   H11231978   2.472   5.772   2.519 -0.5426 -0.8067  0.5368
  114MOL   H11331979   2.696   5.640   2.521  0.5489 -3.1205 -1.0160
  114MOL   C11431980   2.075   5.860   2.544  0.6042  0.3684  0.1694
  114MOL   C11531981   1.998   5.879   2.659  1.0773 -0.7930 -0.0268
  114MOL   C11631982   1.882   5.951   2.651 -0.6868 -0.1936 -0.2052
  114MOL   C11731983   1.834   5.999   2.528  0.1059 -1.1511 -0.2195
  114MOL   C11831984   1.693   6.049   2.516 -0.0501  0.0200 -0.1285
  114MOL   C11931985   1.634   6.094   2.405  0.1675 -0.7059  0.3318
  114MOL   C12031986   1.905   5.972   2.416  0.2227 -0.2135  0.2757
  114MOL   C12131987   2.026   5.900   2.423  0.2705 -0.2148  0.2259
  114MOL   H12231988   2.032   5.843   2.755  3.4570  0.9201 -0.1965
  114MOL   H12331989   1.813   5.954   2.733 -2.5239 -0.9180 -1.6811
  114MOL   H12431990   1.648   6.051   2.614  0.6964  2.6959  0.1945
  114MOL   H12531991   1.689   6.092   2.313  3.5508  0.1170  2.2640
  114MOL   H12631992   1.879   6.000   2.315  0.7762 -1.7104 -0.3098
  114MOL   H12731993   2.084   5.874   2.335  1.1265  0.9099  0.4392
  114MOL   C12831994   1.497   6.144   2.396 -0.1327  0.0090 -0.0274
  114MOL   C12931995   1.418   6.166   2.513  0.3946  0.4923 -0.5417
  114MOL   C13031996   1.290   6.210   2.505 -0.5013 -0.5632 -0.1277
  114MOL   C13131997   1.237   6.247   2.382  1.1914  0.3845  0.5474
  114MOL   C13231998   1.101   6.295   2.361  0.2511 -0.2277 -0.7714
  114MOL   C13331999   1.049   6.353   2.250 -0.1702 -0.0280  0.1028
  114MOL   C13432000   1.319   6.240   2.267  0.2763 -0.1299  0.4140
  114MOL   C13532001   1.449   6.181   2.269 -0.2040  0.4760  0.1728
  114MOL   H13632002   1.453   6.142   2.612  0.3065  1.9567 -0.1425
  114MOL   H13732003   1.228   6.227   2.592 -1.2591 -1.2041 -0.5467
  114MOL   H13832004   1.043   6.280   2.451  1.6071  0.8390  0.2895
  114MOL   H13932005   1.097   6.361   2.154  0.0898 -0.0679  0.2286
  114MOL   H14032006   1.283   6.258   2.167  1.7272  0.2780 -0.0547
  114MOL   H14132007   1.510   6.185   2.180  1.0612  1.6739  1.0571
  114MOL   C14232008   0.907   6.394   2.241  0.2498 -0.8613 -0.0631
  114MOL   C14332009   0.818   6.386   2.351  0.4124 -0.4715  0.6818
  114MOL   C14432010   0.680   6.410   2.333  0.0744 -0.1654 -0.4700
  114MOL   C14532011   0.627   6.461   2.212 -0.1641  0.4328 -0.3588
  114MOL   C14632012   0.482   6.502   2.202 -0.0499 -0.2161 -0.1923
  114MOL   C14732013   0.420   6.572   2.100  0.2040  0.9014  0.4514
  114MOL   C14832014   0.722   6.477   2.105  0.1525 -0.0813  0.0933
  114MOL   C14932015   0.861   6.448   2.122 -0.5260 -0.2723 -0.2885
  114MOL   H15032016   0.858   6.356   2.446  1.4894  2.5815  1.2565
  114MOL   H15132017   0.613   6.396   2.417  1.3557 -0.8662  0.4526
  114MOL   H15232018   0.428   6.464   2.288  1.1105  0.2442  0.7548
  114MOL   H15332019   0.478   6.605   2.015  2.1685 -0.1746  1.3249
  114MOL   H15432020   0.686   6.517   2.011 -0.5443 -1.0007 -0.0416
  114MOL   H15532021   0.933   6.472   2.045  1.6468 -4.0609  0.4266
  114MOL   C15632022   0.284   6.608   2.082  0.5914 -0.2938  0.5175
  114MOL   C15732023   0.196   6.598   2.193  0.0474  0.0858 -0.3073
  114MOL   C15832024   0.063   6.652   2.187 -0.0077 -0.1122 -0.4282
  114MOL   C15932025   0.015   6.702   2.063  0.1011 -0.4391 -0.1100
  114MOL   C16032026   8.021   6.757   2.055  0.1328 -0.5465 -0.9949
  114MOL   C16132027   7.964   6.819   1.949 -0.7703 -0.1947 -0.3475
  114MOL   C16232028   0.099   6.703   1.952  0.0931 -0.2679 -0.6099
  114MOL   C16332029   0.233   6.657   1.961  0.3733 -0.3320  0.5516
  114MOL   H16432030   0.241   6.569   2.286 -0.8898 -0.4572 -0.0203
  114MOL   H16532031   0.008   6.667   2.278  0.3052  0.8339 -0.3930
  114MOL   H16632032   7.962   6.738   2.144  0.7823 -1.1566 -0.6974
  114MOL   H16732033   8.026   6.846   1.864  0.9570 -3.7668 -0.3060
  114MOL   H16832034   0.053   6.733   1.859 -0.9243  1.8263  0.5332
  114MOL   H16932035   0.299   6.651   1.875 -0.3253  0.0942 -0.0113
  114MOL   C17032036   7.825   6.862   1.931  0.9515  0.0081 -0.4768
  114MOL   C17132037   7.783   6.925   1.810  0.1092  0.3917  0.2450
  114MOL   C17232038   7.653   6.967   1.795  0.4708 -0.3343  0.4612
  114MOL   C17332039   7.557   6.943   1.899 -0.0430  0.6951  0.7476
  114MOL   C17432040   7.412   6.971   1.873 -0.2507 -0.9158 -0.3649
  114MOL   C17532041   7.361   6.986   1.745 -0.3635  0.0698  0.2384
  114MOL   C17632042   7.593   6.876   2.015  0.0993 -0.4137  0.2981
  114MOL   C17732043   7.726   6.839   2.030 -0.3757  0.0907 -0.1479
  114MOL   H17832044   7.861   6.943   1.738 -0.4706 -1.1498 -0.7922
  114MOL   H17932045   7.619   7.019   1.707 -2.4284  0.1760  1.8069
  114MOL   H18032046   7.358   6.976   1.966  1.5000 -1.0110  0.6901
  114MOL   H18132047   7.436   6.971   1.669 -0.6208 -0.4521  0.0847
  114MOL   H18232048   7.516   6.855   2.088 -3.9260  0.3461 -3.5332
  114MOL   H18332049   7.745   6.803   2.131 -0.4742  4.6507  1.6063
  114MOL   C18432050   7.225   7.004   1.705  0.9126  0.3314  0.0587
  114MOL   C18532051   7.117   7.007   1.802 -0.0520 -0.0594  0.0453
  114MOL   C18632052   6.985   7.035   1.754  0.0771 -0.1089  0.2265
  114MOL   C18732053   6.959   7.063   1.618 -0.8037 -1.5168  1.0207
  114MOL   C18832054   6.827   7.099   1.566  0.6791 -0.0369 -0.7069
  114MOL   C18932055   6.707   7.075   1.629 -0.6346 -0.6136  0.1941
  114MOL   C19032056   7.068   7.074   1.533 -0.0763 -0.3145  0.1448
  114MOL   C19132057   7.192   7.041   1.570  0.0821  0.6018  0.2249
  114MOL   H19232058   7.137   6.992   1.907 -2.4133  0.2871  0.5744
  114MOL   H19332059   6.896   7.036   1.815 -0.6375  0.2002 -0.8029
  114MOL   H19432060   6.810   7.157   1.476  0.8120 -0.4810 -1.0211
  114MOL   H19532061   6.707   7.020   1.722 -0.8216 -1.7745 -0.4828
  114MOL   H19632062   7.057   7.103   1.429  1.9689  0.6870  0.1761
  114MOL   H19732063   7.274   7.034   1.500 -1.3151 -1.9591 -1.2565
  114MOL   C19832064   6.571   7.106   1.582  0.3750  0.7617  0.5337
  114MOL   C19932065   6.471   7.101   1.682 -0.2195  0.3287  0.6299
  114MOL   C20032066   6.338   7.142   1.647  0.9380  0.1751  0.6544
  114MOL   C20132067   6.310   7.175   1.512  0.7188 -0.5853 -0.3289
  114MOL   C20232068   6.170   7.213   1.485 -0.2610  0.5128  0.1724
  114MOL   C20332069   6.111   7.222   1.359 -0.1752  0.0417  0.6886
  114MOL   C20432070   6.411   7.178   1.413  0.9245  0.4215  0.3965
  114MOL   C20532071   6.543   7.146   1.449 -0.1222 -0.1981  0.0337
  114MOL   H20632072   6.487   7.065   1.782  1.6753  1.5172  0.7927
  114MOL   H20732073   6.264   7.133   1.725  0.5369  1.9432  0.4952
  114MOL   H20832074   6.116   7.226   1.578  1.0870 -1.3540  1.2456
  114MOL   H20932075   6.172   7.212   1.270 -0.6603 -5.3462  0.8339
  114MOL   H21032076   6.396   7.208   1.310 -0.6093  2.5482  1.1852
  114MOL   H21132077   6.619   7.151   1.373 -1.1344  0.5026 -0.9440
  114MOL   C21232078   5.964   7.238   1.336 -0.1453 -0.1699 -0.2116
  114MOL   C21332079   5.916   7.297   1.221  0.3640 -0.5930 -0.2661
  114MOL   C21432080   5.779   7.314   1.201  0.4824  0.5675  0.1083
  114MOL   C21532081   5.686   7.295   1.306 -0.0638 -0.1172  0.2656
  114MOL   C21632082   5.544   7.336   1.307 -0.2825 -0.1451  0.2390
  114MOL   C21732083   5.479   7.382   1.199 -0.5314  0.3384 -0.1612
  114MOL   C21832084   5.733   7.245   1.428 -0.7682  0.6889 -0.0535
  114MOL   C21932085   5.870   7.214   1.440 -0.3749 -0.1251 -0.1181
  114MOL   H22032086   5.977   7.322   1.135 -0.8879 -0.6580 -1.1819
  114MOL   H22132087   5.742   7.353   1.107 -0.0709 -0.5353 -0.1467
  114MOL   H22232088   5.489   7.316   1.398 -0.2043 -0.4627  0.2146
  114MOL   H22332089   5.540   7.395   1.110  3.0821  0.5401  2.2141
  114MOL   H22432090   5.677   7.235   1.520 -0.3620 -2.6776 -0.0897
  114MOL   H22532091   5.910   7.174   1.532 -0.8559  0.3915  0.3219
  114MOL   C22632092   5.338   7.419   1.190  0.4524 -0.1218 -0.0046
  114MOL   C22732093   5.249   7.412   1.302  1.4497  0.4345 -0.6143
  114MOL   C22832094   5.112   7.438   1.289  0.1204 -0.6846 -0.2646
  114MOL   C22932095   5.062   7.451   1.156  0.5556  0.6406 -0.3213
  114MOL   C23032096   4.922   7.451   1.134  0.2213  0.8289  1.3588
  114MOL   C23132097   4.859   7.489   1.022  0.5512 -0.8712  0.2815
  114MOL   C23232098   5.149   7.469   1.046  0.0542  0.5173  0.8877
  114MOL   C23332099   5.286   7.450   1.061 -0.2733 -0.1707 -0.8425
  114MOL   H23432100   5.282   7.385   1.402 -1.4418 -0.0255  0.2573
  114MOL   H23532101   5.059   7.435   1.383 -1.8507  1.2852 -1.2605
  114MOL   H23632102   4.865   7.410   1.216 -0.4031 -0.6239  0.2391
  114MOL   H23732103   4.914   7.523   0.935  1.2594 -2.5352  0.0532
  114MOL   H23832104   5.118   7.480   0.943  1.4100 -0.6313  0.3350
  114MOL   H23932105   5.343   7.452   0.970  0.1935  1.9456 -0.5180
  114MOL   C24032106   4.716   7.489   1.004 -0.5868 -0.4052 -0.6249
  114MOL   C24132107   4.635   7.407   1.091 -0.5438 -0.0656  0.5970
  114MOL   C24232108   4.494   7.413   1.088  0.4444 -0.6499 -0.4092
  114MOL   C24332109   4.434   7.504   0.998  0.4111 -0.6718  0.0422
  114MOL   C24432110   4.294   7.520   0.990  0.2102 -0.7843 -0.2487
  114MOL   C24532111   4.200   7.430   1.014  0.9423  0.4388  0.5773
  114MOL   C24632112   4.512   7.585   0.906  0.5533 -0.4829 -0.5300
  114MOL   C24732113   4.653   7.568   0.904 -0.5084  1.3483 -0.3547
  114MOL   H24832114   4.676   7.350   1.173 -1.7710  0.2087  1.4223
  114MOL   H24932115   4.434   7.355   1.157  1.3355 -1.5917 -0.4043
  114MOL   H25032116   4.269   7.615   0.945 -0.0801 -0.5961  0.3123
  114MOL   H25132117   4.231   7.333   1.050 -1.3418  0.0869  1.7313
  114MOL   H25232118   4.475   7.646   0.826  2.2098  0.4794 -0.5759
  114MOL   H25332119   4.710   7.618   0.827  2.1255 -0.7827  0.1203
  114MOL   C25432120   4.051   7.437   1.009  0.0136 -0.8821 -0.1539
  114MOL   C25532121   3.966   7.327   1.002  0.1839 -0.0002 -0.1625
  114MOL   C25632122   3.823   7.339   0.998 -0.2794 -0.3836  0.3698
  114MOL   C25732123   3.772   7.473   1.011 -0.5797  1.2157 -0.0358
  114MOL   C25832124   3.629   7.477   1.012 -1.2121 -0.3549  0.1680
  114MOL   C25932125   3.545   7.546   1.094 -0.5640 -0.1928  0.5531
  114MOL   C26032126   3.854   7.582   1.020  0.5164 -0.1274 -0.1270
  114MOL   C26132127   3.996   7.567   1.009 -0.3698  0.1746  0.1344
  114MOL   H26232128   4.007   7.228   0.999  1.8370  0.7048 -2.2420
  114MOL   H26332129   3.754   7.256   0.995 -1.1993  0.2226  3.0629
  114MOL   H26432130   3.578   7.418   0.938 -0.6277  0.7368 -1.1414
  114MOL   H26532131   3.439   7.529   1.081 -1.2538  3.9628  0.0276
  114MOL   H26632132   3.812   7.682   1.025  0.8759  0.0375 -0.3609
  114MOL   H26732133   4.064   7.652   1.013  1.4669 -1.1136 -2.4788
  114MOL   C26832134   3.575   7.632   1.205 -0.8239 -0.6922 -0.4029
  114MOL   C26932135   3.675   7.601   1.303 -0.1753  0.0519  0.5305
  114MOL   C27032136   3.707   7.697   1.404 -0.4182 -0.0603  0.4279
  114MOL   C27132137   3.639   7.823   1.407 -0.3112 -0.1027 -0.0980
  114MOL   C27232138   3.665   7.922   1.514 -0.8030  0.5278 -0.2233
  114MOL   C27332139   3.761   7.923   1.611 -0.6577 -0.1144  0.6349
  114MOL   C27432140   3.529   7.840   1.318 -0.0831  0.0318  0.8832
  114MOL   C27532141   3.500   7.746   1.225 -0.2438 -0.0816  0.0581
  114MOL   H27632142   3.733   7.511   1.285  0.8229  0.4766  1.5246
  114MOL   H27732143   3.791   7.686   1.471 -0.5369  2.5346  1.0746
  114MOL   H27832144   3.602   8.009   1.521  0.1685  1.3552 -1.4882
  114MOL   H27932145   3.829   7.839   1.616 -2.2763 -1.5610 -0.6488
  114MOL   H28032146   3.471   7.931   1.329  1.9282  1.4491  0.0345
  114MOL   H28132147   3.428   7.781   1.153 -0.9934  0.4856  1.0590
  114MOL   H28232148   3.767   8.003   1.683  3.4230  0.9314 -0.7691
  115MOL     C132149   0.648   1.873   5.126 -0.3590 -0.8841 -0.1538
  115MOL     C232150   0.607   1.752   5.081  0.7355 -0.3160 -0.4386
  115MOL     C332151   0.469   1.732   5.045  0.7272  0.2057 -0.5899
  115MOL     C432152   0.382   1.849   5.039 -0.5306  0.6118  0.4861
  115MOL     C532153   0.245   1.837   4.998  0.8407 -0.3241  0.9439
  115MOL     C632154   0.186   1.724   4.965  0.5094  0.7491 -0.0213
  115MOL     C732155   0.430   1.974   5.081  0.5377 -0.1534 -0.8801
  115MOL     C832156   0.562   1.986   5.123 -0.1110 -0.0740 -0.0201
  115MOL     H932157   0.677   1.674   5.054  0.0500 -1.7380  1.7669
  115MOL    H1032158   0.450   1.631   5.011  1.1429 -0.1924  0.3620
  115MOL    H1132159   0.192   1.930   4.988  1.8954  0.0965 -0.8710
  115MOL    H1232160   0.238   1.629   4.959  1.8484  1.5821 -1.9810
  115MOL    H1332161   0.365   2.060   5.083 -1.1663 -1.4013 -0.8068
  115MOL    H1432162   0.599   2.086   5.141 -0.3374 -0.1571  0.9372
  115MOL    H1532163   0.750   1.887   5.160 -0.1611 -2.5891 -0.0377
  115MOL    C1632164   0.042   1.720   4.929 -0.5750  0.4747  0.0260
  115MOL    C1732165   8.129   1.604   4.872 -0.2057 -0.2827 -0.0248
  115MOL    C1832166   7.990   1.598   4.833  0.1494 -0.0017 -0.0760
  115MOL    C1932167   7.909   1.710   4.851 -0.3514  0.3248 -0.0331
  115MOL    C2032168   7.767   1.706   4.795 -0.5681  0.3443  0.2767
  115MOL    C2132169   7.672   1.800   4.814  0.3170 -0.1389  0.6965
  115MOL    C2232170   7.970   1.826   4.905  0.4487  0.4999 -0.4671
  115MOL    C2332171   8.102   1.832   4.947  0.2117  0.1279 -0.1592
  115MOL    H2432172   0.042   1.514   4.856  0.1095  0.1636 -1.5317
  115MOL    H2532173   7.951   1.511   4.783 -1.2328  1.1667 -1.0391
  115MOL    H2632174   7.750   1.616   4.738  0.8426  1.4149 -1.8879
  115MOL    H2732175   7.692   1.890   4.871 -0.7036  1.2060 -1.0191
  115MOL    H2832176   7.914   1.918   4.917  2.9953  1.9033  1.1340
  115MOL    H2932177   8.135   1.924   4.993 -3.4604  1.6270 -0.3918
  115MOL    C3032178   7.536   1.789   4.745 -0.1117 -0.7040 -0.2797
  115MOL    C3132179   7.528   1.716   4.627  0.5092  1.2381 -0.5914
  115MOL    C3232180   7.410   1.702   4.561  0.1285 -0.5725  0.3150
  115MOL    C3332181   7.292   1.761   4.611 -0.1540  0.4026  0.0984
  115MOL    C3432182   7.171   1.760   4.517  0.9539 -0.1171  0.5616
  115MOL    C3532183   7.048   1.781   4.559  0.0644 -0.6150 -0.4596
  115MOL    C3632184   7.302   1.850   4.722  0.8267  0.2552  0.3671
  115MOL    C3732185   7.423   1.858   4.792 -0.4022 -0.0965 -0.2303
  115MOL    H3832186   7.619   1.674   4.585  1.1904 -1.0803  2.9057
  115MOL    H3932187   7.414   1.636   4.476 -0.9499 -2.0953  1.4208
  115MOL    H4032188   7.192   1.725   4.417  2.1380 -0.8334  1.0537
  115MOL    H4132189   7.034   1.810   4.662 -2.4448 -1.3166 -0.5831
  115MOL    H4232190   7.224   1.922   4.741  0.5647  1.2128 -3.8160
  115MOL    H4332191   7.436   1.926   4.875 -0.7765 -1.6828  1.1378
  115MOL    C4432192   6.932   1.774   4.473  0.7313 -0.1404  0.9111
  115MOL    C4532193   6.806   1.727   4.521  0.3453 -0.1650 -0.6903
  115MOL    C4632194   6.687   1.722   4.449 -0.1591 -0.8246 -0.9214
  115MOL    C4732195   6.693   1.772   4.317  0.1185  0.0735  0.5975
  115MOL    C4832196   6.563   1.773   4.249  0.0181  0.1732 -0.0491
  115MOL    C4932197   6.530   1.840   4.139  0.3530 -0.7299 -0.5973
  115MOL    C5032198   6.817   1.817   4.260  0.6189  0.3386 -1.1072
  115MOL    C5132199   6.934   1.811   4.337 -0.1794 -0.3488  0.3650
  115MOL    H5232200   6.802   1.690   4.623 -1.3726  1.3879 -0.1639
  115MOL    H5332201   6.599   1.688   4.501  0.4128 -2.3228 -0.9006
  115MOL    H5432202   6.485   1.713   4.293  0.5285 -0.1368  0.4395
  115MOL    H5532203   6.609   1.902   4.100  0.7121 -1.0555 -0.3893
  115MOL    H5632204   6.816   1.860   4.161 -0.3533  0.9269 -0.8478
  115MOL    H5732205   7.023   1.851   4.291 -0.2348  0.0241  0.5781
  115MOL    C5832206   6.397   1.844   4.074  0.1246 -0.4689  0.1717
  115MOL    C5932207   6.381   1.929   3.957  0.3480 -0.0210 -0.4881
  115MOL    C6032208   6.260   1.933   3.888 -0.1423  0.0557  0.3066
  115MOL    C6132209   6.146   1.860   3.934  0.5780 -0.0405 -0.5166
  115MOL    C6232210   6.012   1.881   3.875 -0.7779  0.0332 -0.1295
  115MOL    C6332211   5.967   1.980   3.787  0.3680  0.3324 -0.1384
  115MOL    C6432212   6.161   1.789   4.057 -0.1753  0.0676 -0.4896
  115MOL    C6532213   6.284   1.773   4.122 -0.2945  0.0613 -0.4053
  115MOL    H6632214   6.470   1.973   3.915 -0.9677  2.9730 -0.2838
  115MOL    H6732215   6.261   1.984   3.793 -1.9070  0.3239  0.4136
  115MOL    H6832216   5.937   1.809   3.905  0.6335 -0.2573  2.8987
  115MOL    H6932217   6.037   2.055   3.754  0.9312  0.8096  2.0588
  115MOL    H7032218   6.084   1.720   4.088  0.5633 -1.4364 -1.9521
  115MOL    H7132219   6.290   1.708   4.207 -0.6125 -1.2494 -1.3796
  115MOL    C7232220   5.825   1.991   3.750  0.1933  0.4144 -0.3989
  115MOL    C7332221   5.738   1.880   3.729 -0.4256 -0.3266  0.7678
  115MOL    C7432222   5.601   1.899   3.716 -0.4171  0.2071  0.1700
  115MOL    C7532223   5.546   2.028   3.721  0.4841 -0.0655  0.4820
  115MOL    C7632224   5.399   2.034   3.710 -0.0586 -0.0914  0.3996
  115MOL    C7732225   5.321   2.128   3.776  0.0437 -0.1916 -0.0829
  115MOL    C7832226   5.630   2.141   3.729 -0.6794  0.0858 -0.2736
  115MOL    C7932227   5.765   2.121   3.742  0.3771 -0.2122  0.3834
  115MOL    H8032228   5.781   1.782   3.736 -1.1708 -0.8366 -1.4926
  115MOL    H8132229   5.539   1.811   3.709 -0.3510  0.2925 -1.6622
  115MOL    H8232230   5.350   1.959   3.650 -0.0389  0.3979 -0.2275
  115MOL    H8332231   5.366   2.193   3.850 -0.7289 -1.4218  1.5135
  115MOL    H8432232   5.582   2.238   3.736 -0.7526 -0.0073  0.5921
  115MOL    H8532233   5.830   2.207   3.750  0.6227 -0.5820  2.5211
  115MOL    C8632234   5.174   2.136   3.749 -0.0815  0.0049  0.3169
  115MOL    C8732235   5.091   2.157   3.862  1.0674 -0.4344  0.0173
  115MOL    C8832236   4.952   2.170   3.847  0.7020 -0.2905  0.1335
  115MOL    C8932237   4.893   2.162   3.713 -0.3404  0.7620  0.5854
  115MOL    C9032238   4.749   2.156   3.689  0.1435 -0.8177  0.4796
  115MOL    C9132239   4.646   2.127   3.773  0.0085 -0.0201 -0.2504
  115MOL    C9232240   4.982   2.142   3.602 -0.2288 -0.6161  0.1065
  115MOL    C9332241   5.119   2.120   3.622  0.4382 -0.6691  0.4649
  115MOL    H9432242   5.126   2.156   3.964  1.0281 -0.1969  0.0336
  115MOL    H9532243   4.895   2.179   3.938  1.1889 -1.9732  0.6240
  115MOL    H9632244   4.723   2.177   3.586  1.3487  0.7043  0.4768
  115MOL    H9732245   4.655   2.099   3.877 -0.8988 -3.2902 -1.0074
  115MOL    H9832246   4.933   2.125   3.507 -0.6192 -1.4266  0.4511
  115MOL    H9932247   5.195   2.103   3.547 -0.7094  1.5864 -1.2558
  115MOL   C10032248   4.503   2.146   3.728 -0.1195 -0.6195  0.2283
  115MOL   C10132249   4.408   2.058   3.789 -0.1876  0.0301  0.0031
  115MOL   C10232250   4.284   2.043   3.723 -0.1897 -0.2206  0.2721
  115MOL   C10332251   4.245   2.124   3.615  0.3304 -0.1600  0.1541
  115MOL   C10432252   4.108   2.108   3.561 -0.2989  0.3486 -0.3067
  115MOL   C10532253   4.068   2.158   3.442  0.1237 -0.5140 -0.0576
  115MOL   C10632254   4.341   2.218   3.565  0.7435  0.4663 -0.1992
  115MOL   C10732255   4.464   2.234   3.626  0.2349 -0.5228  0.2070
  115MOL   H10832256   4.447   1.987   3.860 -1.3684 -1.8954 -1.2080
  115MOL   H10932257   4.208   1.975   3.760 -0.3017  0.3687  1.1284
  115MOL   H11032258   4.037   2.054   3.623 -0.1903 -0.9078 -1.2459
  115MOL   H11132259   4.137   2.213   3.380 -0.7064  0.0453 -0.4973
  115MOL   H11232260   4.313   2.289   3.489  1.6670  2.1623  1.0157
  115MOL   H11332261   4.533   2.308   3.590  0.1994 -1.3950 -1.7599
  115MOL   C11432262   3.932   2.158   3.384 -0.3835 -0.0662 -0.0458
  115MOL   C11532263   3.816   2.096   3.447  0.7501  0.0051  0.4673
  115MOL   C11632264   3.693   2.113   3.385  0.1185  0.4764  0.3586
  115MOL   C11732265   3.677   2.188   3.262  0.4415  0.0755 -0.5744
  115MOL   C11832266   3.553   2.173   3.185 -0.0536 -0.2840  0.3179
  115MOL   C11932267   3.539   2.172   3.048 -0.4729 -0.7932 -0.2442
  115MOL   C12032268   3.789   2.251   3.209 -0.0219 -0.2182  0.0065
  115MOL   C12132269   3.910   2.239   3.272 -0.3665  0.1647  0.0997
  115MOL   H12232270   3.830   2.021   3.524 -1.4401 -1.5526 -0.5968
  115MOL   H12332271   3.612   2.049   3.416  1.8031 -1.9628 -0.1563
  115MOL   H12432272   3.458   2.164   3.234 -2.1352 -0.3886 -3.5600
  115MOL   H12532273   3.626   2.181   2.986  1.2452 -0.3949  2.1659
  115MOL   H12632274   3.785   2.299   3.112  2.6676 -3.3982 -1.7696
  115MOL   H12732275   3.995   2.296   3.234  0.0747  1.3884  2.8060
  115MOL   C12832276   3.414   2.142   2.976 -0.6392 -0.4876 -0.0994
  115MOL   C12932277   3.423   2.092   2.844 -0.0396  0.1093  1.0593
  115MOL   C13032278   3.311   2.053   2.772  0.2549 -0.3222  0.4756
  115MOL   C13132279   3.185   2.055   2.832  0.1530  0.5592 -0.2107
  115MOL   C13232280   3.070   2.005   2.744  1.1715 -0.2495 -0.1235
  115MOL   C13332281   2.941   2.016   2.773 -0.4311 -0.2109 -0.1104
  115MOL   C13432282   3.174   2.110   2.963  0.7923  0.1862 -0.0564
  115MOL   C13532283   3.286   2.147   3.040 -0.3993  0.5712  0.5774
  115MOL   H13632284   3.527   2.091   2.817  0.2526 -2.1357  2.1426
  115MOL   H13732285   3.316   2.015   2.671  0.6542 -2.2629  1.2032
  115MOL   H13832286   3.098   1.958   2.651  1.1770 -0.6183  0.0637
  115MOL   H13932287   2.916   2.055   2.871 -1.1123  1.6410 -0.9992
  115MOL   H14032288   3.077   2.108   3.012  1.4469  0.3302  1.2647
  115MOL   H14132289   3.270   2.194   3.136 -1.7696 -0.5747  0.9171
  115MOL   C14232290   2.825   1.965   2.692 -0.4803  0.3668  0.1133
  115MOL   C14332291   2.696   2.004   2.724  0.5007 -0.0431 -0.7085
  115MOL   C14432292   2.580   1.952   2.655 -0.0366 -0.0917 -0.6897
  115MOL   C14532293   2.602   1.882   2.537 -0.8329 -0.3731 -0.5308
  115MOL   C14632294   2.490   1.837   2.455 -0.4394 -0.1892  0.3703
  115MOL   C14732295   2.359   1.847   2.484 -0.5376  0.7702  0.7844
  115MOL   C14832296   2.730   1.843   2.499  0.0077 -0.1128 -0.6526
  115MOL   C14932297   2.837   1.881   2.582  0.3364  0.2156 -0.5240
  115MOL   H15032298   2.685   2.072   2.807  0.9799 -2.4228  1.3956
  115MOL   H15132299   2.481   1.991   2.669  0.4072  0.8188 -0.0419
  115MOL   H15232300   2.506   1.795   2.357  0.0124 -0.5962  0.6211
  115MOL   H15332301   2.329   1.871   2.584  0.4273 -0.3157  1.3604
  115MOL   H15432302   2.751   1.781   2.413 -1.2860 -1.7826  0.2232
  115MOL   H15532303   2.933   1.836   2.562 -0.2699 -0.7040 -1.4106
  115MOL   C15632304   2.250   1.788   2.400  0.5789 -0.0715  1.2368
  115MOL   C15732305   2.270   1.697   2.292 -0.2027 -0.7267 -0.2560
  115MOL   C15832306   2.150   1.640   2.233 -0.0080  0.1187  0.2726
  115MOL   C15932307   2.017   1.688   2.263 -0.2243 -0.1220 -0.2504
  115MOL   C16032308   1.899   1.635   2.193  0.8514 -0.6388  0.1497
  115MOL   C16132309   1.770   1.667   2.198 -0.4273 -1.2160 -0.8050
  115MOL   C16232310   2.007   1.777   2.371  0.0118 -0.7362 -0.1991
  115MOL   C16332311   2.119   1.821   2.443  0.1224 -0.2192 -0.2503
  115MOL   H16432312   2.370   1.680   2.253 -1.0585 -2.6026 -1.6838
  115MOL   H16532313   2.175   1.571   2.153  1.2129  1.1326 -0.2624
  115MOL   H16632314   1.921   1.555   2.124 -0.0159 -0.2138 -0.6240
  115MOL   H16732315   1.742   1.748   2.264 -0.3120 -3.1772  1.7317
  115MOL   H16832316   1.909   1.821   2.381 -0.5010 -1.5056 -1.7487
  115MOL   H16932317   2.101   1.886   2.527  2.4421 -2.6268  2.2313
  115MOL   C17032318   1.653   1.607   2.134 -0.3267 -0.0367  0.5453
  115MOL   C17132319   1.665   1.514   2.027 -0.0042 -0.2241 -0.1843
  115MOL   C17232320   1.542   1.474   1.962 -0.6922  0.0320  0.0684
  115MOL   C17332321   1.417   1.539   1.984  0.4148  0.4516 -0.3271
  115MOL   C17432322   1.302   1.512   1.906 -0.1861  0.4730 -0.0606
  115MOL   C17532323   1.178   1.520   1.952  0.2282 -0.7414  0.3105
  115MOL   C17632324   1.412   1.636   2.088  0.0154  0.5349  0.6083
  115MOL   C17732325   1.531   1.667   2.162 -0.1727 -0.1386 -0.0540
  115MOL   H17832326   1.757   1.466   1.997 -0.1802  0.5230 -1.9609
  115MOL   H17932327   1.559   1.415   1.874  0.5231 -2.1924  1.7451
  115MOL   H18032328   1.323   1.496   1.801 -0.1013 -0.0423  0.0350
  115MOL   H18132329   1.179   1.536   2.059 -0.9207 -0.2584  0.2476
  115MOL   H18232330   1.323   1.694   2.109 -0.7202 -0.2263 -0.3607
  115MOL   H18332331   1.514   1.755   2.222 -0.2846 -1.2450  1.5918
  115MOL   C18432332   1.056   1.515   1.870 -1.1720  0.0470 -0.5927
  115MOL   C18532333   0.939   1.577   1.920  0.2143  0.6563 -0.2739
  115MOL   C18632334   0.824   1.553   1.845  0.1099  0.1169 -0.0172
  115MOL   C18732335   0.818   1.486   1.721  0.3482 -0.1141  0.1203
  115MOL   C18832336   0.696   1.469   1.645 -0.9612  0.3909  0.4550
  115MOL   C18932337   0.574   1.491   1.695  0.3277  0.3989 -0.0373
  115MOL   C19032338   0.941   1.447   1.667  0.8719 -0.4017  0.7638
  115MOL   C19132339   1.065   1.461   1.737 -0.1258  1.1360  0.4363
  115MOL   H19232340   0.935   1.630   2.014  0.0122 -0.4452  0.3381
  115MOL   H19332341   0.727   1.584   1.883  0.4375 -1.4379  2.1644
  115MOL   H19432342   0.710   1.443   1.541  1.5298 -2.7188  1.4864
  115MOL   H19532343   0.556   1.526   1.795  0.2394 -1.4677  0.6112
  115MOL   H19632344   0.941   1.394   1.573 -1.0334 -0.2340  0.6409
  115MOL   H19732345   1.155   1.414   1.701 -0.8232  1.1233 -1.2978
  115MOL   C19832346   0.449   1.479   1.616 -0.7691  0.0490  0.3753
  115MOL   C19932347   0.330   1.522   1.675  0.1495 -0.3595 -0.1024
  115MOL   C20032348   0.215   1.528   1.600  0.0898 -0.2777 -0.4433
  115MOL   C20132349   0.215   1.479   1.467  0.8154  0.1447  0.6175
  115MOL   C20232350   0.090   1.480   1.390  0.5627 -0.5131  0.3416
  115MOL   C20332351   8.108   1.508   1.431  0.3497  0.8499 -0.1821
  115MOL   C20432352   0.334   1.432   1.404 -0.6179 -0.4633 -0.4373
  115MOL   C20532353   0.448   1.428   1.482  0.1816  0.4303  0.4423
  115MOL   H20632354   0.336   1.566   1.773  0.7567 -3.0580  1.0965
  115MOL   H20732355   0.125   1.562   1.648 -1.0348 -1.3835 -1.6901
  115MOL   H20832356   0.104   1.457   1.286  0.8334  1.6824 -0.1282
  115MOL   H20932357   8.093   1.533   1.535  1.1280 -0.1516  0.1764
  115MOL   H21032358   0.343   1.389   1.306  2.1441 -4.1589  1.2931
  115MOL   H21132359   0.540   1.391   1.440  0.8365  0.2466  1.9958
  115MOL   C21232360   7.986   1.515   1.349  0.6362  0.1056  0.3499
  115MOL   C21332361   7.996   1.505   1.208 -0.3094 -0.6912  0.2255
  115MOL   C21432362   7.875   1.505   1.135  0.2258 -0.2595 -0.1168
  115MOL   C21532363   7.750   1.501   1.201 -0.6865 -0.5776  0.0195
  115MOL   C21632364   7.634   1.482   1.113  0.5753 -0.6198 -0.3198
  115MOL   C21732365   7.642   1.440   0.981 -0.2332 -0.0272 -0.0986
  115MOL   C21832366   7.741   1.511   1.340  0.1575  0.1153 -0.3693
  115MOL   C21932367   7.860   1.518   1.413  0.7527  0.5346  0.5188
  115MOL   H22032368   8.090   1.509   1.155 -0.1406 -1.0045  0.4986
  115MOL   H22132369   7.889   1.502   1.028 -2.3573  1.1708 -0.5453
  115MOL   H22232370   7.539   1.510   1.155 -0.3531 -1.5703 -1.7357
  115MOL   H22332371   7.734   1.408   0.936 -1.3895 -1.4349 -1.5545
  115MOL   H22432372   7.652   1.519   1.400  0.2623  1.4353 -0.3616
  115MOL   H22532373   7.853   1.518   1.521  0.6102 -1.5464  0.5315
  115MOL   C22632374   7.526   1.430   0.894  0.4221 -0.2983  0.4847
  115MOL   C22732375   7.527   1.346   0.785 -0.3406  0.5623 -0.3267
  115MOL   C22832376   7.408   1.337   0.713 -0.0054  0.2422 -0.9533
  115MOL   C22932377   7.288   1.405   0.739  0.3155 -0.3923 -0.1610
  115MOL   C23032378   7.166   1.383   0.659  0.0501 -0.5405 -1.1088
  115MOL   C23132379   7.156   1.292   0.560  0.2448  0.4069  0.5525
  115MOL   C23232380   7.285   1.482   0.858  0.3438 -0.0688  0.0606
  115MOL   C23332381   7.406   1.496   0.929 -0.1751 -0.8582  0.3968
  115MOL   H23432382   7.611   1.283   0.761  1.7950  3.0127  0.4084
  115MOL   H23532383   7.406   1.256   0.641  2.7504 -0.8320  0.1132
  115MOL   H23632384   7.081   1.443   0.687 -0.1338 -0.8981 -0.8944
  115MOL   H23732385   7.244   1.239   0.528  0.1972  1.6851 -1.7909
  115MOL   H23832386   7.192   1.516   0.901 -0.2096 -1.1096 -0.2909
  115MOL   H23932387   7.395   1.557   1.018 -2.0534 -1.4443  0.6002
  115MOL   C24032388   7.032   1.249   0.488  0.9609 -0.0881  0.1229
  115MOL   C24132389   7.044   1.138   0.397  0.1612  0.6212  0.3772
  115MOL   C24232390   6.933   1.097   0.314  0.4946 -0.5333  0.5169
  115MOL   C24332391   6.804   1.153   0.342  0.1633  0.6817  0.4324
  115MOL   C24432392   6.679   1.107   0.275 -0.6175 -0.6360  0.5454
  115MOL   C24532393   6.667   1.019   0.173  0.8147 -0.2167 -0.5255
  115MOL   C24632394   6.798   1.262   0.429  0.1390 -0.2035 -0.0138
  115MOL   C24732395   6.905   1.314   0.504  0.0793 -0.0400 -0.2523
  115MOL   H24832396   7.142   1.095   0.382 -0.4924  0.2130 -3.3453
  115MOL   H24932397   6.953   1.018   0.244  0.1002  1.7691 -2.2635
  115MOL   H25032398   6.586   1.150   0.311 -0.1052  1.6303 -0.7665
  115MOL   H25132399   6.755   0.963   0.147 -0.2024 -2.0474 -0.1186
  115MOL   H25232400   6.711   1.325   0.442  0.4945  0.4577 -0.7868
  115MOL   H25332401   6.888   1.403   0.562 -3.1328 -0.4218 -0.5136
  115MOL   C25432402   6.541   0.971   0.110  0.3577  0.4099 -0.4744
  115MOL   C25532403   6.414   1.020   0.144 -0.3195  0.3827 -0.1263
  115MOL   C25632404   6.301   0.957   0.094  0.4612  0.4410  0.0079
  115MOL   C25732405   6.308   0.859   8.140 -0.5928  0.8975 -0.0896
  115MOL   C25832406   6.182   0.781   8.109 -0.4455  0.0694 -0.0068
  115MOL   C25932407   6.163   0.653   8.069 -0.2415 -0.4808  0.0704
  115MOL   C26032408   6.441   0.835   8.089  0.4054  0.5682 -0.0346
  115MOL   C26132409   6.558   0.873   0.009  0.5645 -0.5716 -0.0568
  115MOL   H26232410   6.412   1.103   0.213 -0.0768  1.0869 -0.9546
  115MOL   H26332411   6.203   0.991   0.125  0.2619  1.2575 -1.5056
  115MOL   H26432412   6.088   0.835   8.111 -0.1804  0.5630 -0.7190
  115MOL   H26532413   6.065   0.611   8.055 -0.2848 -0.6078  0.7388
  115MOL   H26632414   6.453   0.757   8.015  1.9675  3.0218 -2.4853
  115MOL   H26732415   6.650   0.823   8.126  0.3078 -0.5954 -0.8971
  115MOL   C26832416   6.268   0.554   8.060 -0.0970  0.3851 -0.0411
  115MOL   C26932417   6.301   0.480   7.942 -0.3183  0.2019 -0.7389
  115MOL   C27032418   6.407   0.393   7.942 -0.1359 -0.2833  0.6357
  115MOL   C27132419   6.482   0.366   8.061  0.3117  0.5730 -0.3543
  115MOL   C27232420   6.603   0.269   8.067 -0.4024  0.1141 -0.2639
  115MOL   C27332421   6.650   0.203   7.958  0.2797 -1.2330 -0.0382
  115MOL   C27432422   6.447   0.431   0.034  0.1480  0.4896 -0.0277
  115MOL   C27532423   6.347   0.530   0.034  1.1473  0.5643  0.0751
  115MOL   H27632424   6.241   0.503   7.855 -0.8866 -0.5689 -0.5573
  115MOL   H27732425   6.415   0.323   7.860 -0.9003  0.6996 -0.2883
  115MOL   H27832426   6.649   0.254   0.019  0.5088  1.0441 -0.5511
  115MOL   H27932427   6.610   0.223   7.860  0.6790  1.4011  0.3084
  115MOL   H28032428   6.493   0.410   0.130 -0.2549 -0.1770  0.0203
  115MOL   H28132429   6.323   0.587   0.122 -1.1809 -0.3386  0.0748
  115MOL   H28232430   6.737   0.139   7.969  0.0560 -1.2977  1.5262
  116MOL     C132431   7.120   5.176   1.637 -0.1221  0.4027 -0.1758
  116MOL     C232432   7.035   5.224   1.736  0.6501 -0.4470 -0.1753
  116MOL     C332433   6.896   5.216   1.736  0.1840 -0.2991  0.4411
  116MOL     C432434   6.835   5.154   1.622 -0.3650 -0.3385 -0.0491
  116MOL     C532435   6.681   5.166   1.606 -0.6252  0.4143 -0.1993
  116MOL     C632436   6.606   5.149   1.495  0.3086  0.1310  0.0937
  116MOL     C732437   6.921   5.099   1.526 -0.1857 -0.1258 -0.2333
  116MOL     C832438   7.057   5.111   1.532 -0.6086 -0.0170  0.3951
  116MOL     H932439   7.089   5.271   1.817 -0.2848  0.1019  0.1269
  116MOL    H1032440   6.844   5.262   1.818  0.3889  2.2672 -0.8242
  116MOL    H1132441   6.628   5.190   1.697  0.3168 -0.3138  0.5624
  116MOL    H1232442   6.647   5.136   1.397 -0.6182 -3.2744  0.0758
  116MOL    H1332443   6.873   5.052   1.441 -1.0780 -0.5747  0.5216
  116MOL    H1432444   7.106   5.068   1.446 -0.2918  1.7438 -0.3224
  116MOL    H1532445   7.227   5.195   1.640  0.2206 -1.0708 -2.1751
  116MOL    C1632446   6.460   5.165   1.489  0.2751 -0.2580  0.2730
  116MOL    C1732447   6.398   5.226   1.372  0.1805 -0.4098 -0.1285
  116MOL    C1832448   6.262   5.261   1.379  0.2958 -0.4348 -0.6876
  116MOL    C1932449   6.186   5.235   1.496  0.3189  0.1095  0.5765
  116MOL    C2032450   6.039   5.258   1.496 -0.3539 -0.3334 -0.2001
  116MOL    C2132451   5.951   5.236   1.396 -0.7935 -0.0156  0.5594
  116MOL    C2232452   6.247   5.178   1.604 -0.1935 -0.0711 -0.2555
  116MOL    C2332453   6.385   5.142   1.602  0.0665 -0.1964 -0.1920
  116MOL    H2432454   6.460   5.259   1.291  1.2075  1.9799  1.5811
  116MOL    H2532455   6.215   5.317   1.299  0.1647 -0.5820 -0.7130
  116MOL    H2632456   5.995   5.292   1.588 -0.2599 -2.1299  0.5239
  116MOL    H2732457   5.993   5.205   1.301 -0.4410  1.6015  0.1751
  116MOL    H2832458   6.193   5.161   1.697  0.5300  0.5999  0.2952
  116MOL    H2932459   6.415   5.097   1.695  2.0023 -2.6408 -1.9269
  116MOL    C3032460   5.804   5.264   1.402  0.3298  0.1547  0.3339
  116MOL    C3132461   5.733   5.241   1.281  0.3595 -0.7260  0.1272
  116MOL    C3232462   5.596   5.270   1.279 -1.6413  0.6223  0.5615
  116MOL    C3332463   5.529   5.327   1.383 -0.6269  0.5764  0.3557
  116MOL    C3432464   5.383   5.352   1.359 -0.3733 -0.0978 -0.8201
  116MOL    C3532465   5.296   5.391   1.455  0.5841 -0.7168  0.4636
  116MOL    C3632466   5.602   5.358   1.502  0.3058 -0.1022  0.4797
  116MOL    C3732467   5.741   5.324   1.510 -0.0677  0.6135 -0.0780
  116MOL    H3832468   5.774   5.209   1.186 -1.1198 -2.2204 -0.0350
  116MOL    H3932469   5.542   5.249   1.188  0.6509 -2.0750 -0.2339
  116MOL    H4032470   5.363   5.335   1.254 -0.4384  0.8932 -0.9698
  116MOL    H4132471   5.334   5.403   1.555 -0.9873 -0.4663  1.0367
  116MOL    H4232472   5.547   5.384   1.591  0.3630 -3.9095  1.7270
  116MOL    H4332473   5.800   5.335   1.600 -0.2058  0.3503  0.0440
  116MOL    C4432474   5.154   5.430   1.455 -0.1763  0.8432  0.0228
  116MOL    C4532475   5.104   5.475   1.579 -0.3949 -0.0755 -0.2402
  116MOL    C4632476   4.974   5.515   1.584  0.3549  0.1791 -0.0363
  116MOL    C4732477   4.885   5.513   1.475  0.0454  0.9163  0.3966
  116MOL    C4832478   4.748   5.554   1.485 -0.2673 -0.0927  0.0246
  116MOL    C4932479   4.669   5.600   1.388 -0.3641 -0.3748 -0.4520
  116MOL    C5032480   4.940   5.462   1.354 -0.1500 -0.6286 -0.0781
  116MOL    C5132481   5.075   5.418   1.344  0.2959 -0.6476  0.1835
  116MOL    H5232482   5.169   5.480   1.665 -1.3318  1.6767  0.3970
  116MOL    H5332483   4.936   5.547   1.680 -0.2829  1.5550 -0.7189
  116MOL    H5432484   4.709   5.547   1.586  2.3718  1.6576  1.2211
  116MOL    H5532485   4.710   5.596   1.288 -2.6618  0.5604 -1.4514
  116MOL    H5632486   4.880   5.472   1.264  1.3776 -0.7161 -1.1166
  116MOL    H5732487   5.114   5.382   1.250 -0.1978 -2.0827  0.5055
  116MOL    C5832488   4.530   5.646   1.410 -0.1069  0.3662  0.1772
  116MOL    C5932489   4.457   5.626   1.529  0.1059  0.9182 -0.5458
  116MOL    C6032490   4.327   5.677   1.540  0.2544  0.3755  0.2088
  116MOL    C6132491   4.266   5.742   1.432 -0.2593 -0.0500 -0.4817
  116MOL    C6232492   4.128   5.799   1.445  0.1980 -0.4630 -0.7898
  116MOL    C6332493   4.068   5.824   1.564 -0.7260 -0.2106 -1.0396
  116MOL    C6432494   4.343   5.764   1.316  0.7285 -0.2648  1.4133
  116MOL    C6532495   4.472   5.719   1.304 -0.3331 -0.0143 -0.3153
  116MOL    H6632496   4.497   5.576   1.617  0.3485 -1.6953 -2.0779
  116MOL    H6732497   4.272   5.669   1.633  2.0850  0.8274  1.3482
  116MOL    H6832498   4.079   5.825   1.352 -1.3189 -0.5153 -0.0006
  116MOL    H6932499   4.130   5.797   1.649  1.4718  1.9901 -1.8860
  116MOL    H7032500   4.303   5.835   1.245  2.3387 -0.2843  0.4581
  116MOL    H7132501   4.519   5.743   1.210  0.3862 -0.4253 -0.0629
  116MOL    C7232502   3.949   5.897   1.582  0.4623  0.9653 -1.7343
  116MOL    C7332503   3.903   5.918   1.710 -0.1430  0.5156 -0.1444
  116MOL    C7432504   3.777   5.979   1.738 -0.8711 -0.2145 -0.0779
  116MOL    C7532505   3.704   6.043   1.633 -0.6598  0.5203  0.0642
  116MOL    C7632506   3.576   6.113   1.661  0.3723  0.5583  0.0469
  116MOL    C7732507   3.477   6.135   1.570  0.5348  0.4551 -0.2644
  116MOL    C7832508   3.752   6.024   1.503 -0.4105 -0.0552  0.6983
  116MOL    C7932509   3.870   5.954   1.477 -0.0547  0.0020 -0.9167
  116MOL    H8032510   3.965   5.893   1.795 -0.4812 -1.9179 -0.5579
  116MOL    H8132511   3.741   5.968   1.839 -0.9272  0.3452 -0.0354
  116MOL    H8232512   3.558   6.150   1.761  0.7616 -1.1940  0.8025
  116MOL    H8332513   3.483   6.097   1.469  0.9183 -0.1932 -0.0019
  116MOL    H8432514   3.693   6.064   1.422  0.2841 -1.0700 -0.3259
  116MOL    H8532515   3.899   5.937   1.374 -1.3948 -1.1888 -1.0987
  116MOL    C8632516   3.354   6.207   1.593 -0.2002 -0.2093 -0.4568
  116MOL    C8732517   3.262   6.209   1.486 -0.1419  0.5480  0.2856
  116MOL    C8832518   3.143   6.282   1.499 -0.5038  0.4251 -0.0297
  116MOL    C8932519   3.117   6.350   1.618  0.1934 -0.5395 -0.0547
  116MOL    C9032520   2.991   6.434   1.625 -0.8421 -0.0191 -0.1400
  116MOL    C9132521   2.893   6.447   1.534  0.5540 -0.7184 -0.5587
  116MOL    C9232522   3.205   6.343   1.726 -0.4815  0.3239  0.1137
  116MOL    C9332523   3.327   6.278   1.709 -0.1452  0.8236 -0.0612
  116MOL    H9432524   3.291   6.152   1.399 -0.6658 -0.5732  0.8359
  116MOL    H9532525   3.069   6.277   1.420  1.3317 -1.2622 -1.6738
  116MOL    H9632526   2.993   6.485   1.720  0.9811 -0.2881 -0.0223
  116MOL    H9732527   2.903   6.394   1.441 -1.7557 -0.6505 -0.8790
  116MOL    H9832528   3.194   6.400   1.817 -1.6599 -1.2217  0.9528
  116MOL    H9932529   3.396   6.282   1.792  0.0205  2.2066 -0.2548
  116MOL   C10032530   2.771   6.534   1.550 -0.6366 -0.3506 -0.1013
  116MOL   C10132531   2.761   6.635   1.650  0.0920  0.1736  0.7899
  116MOL   C10232532   2.648   6.718   1.650 -0.0405  0.2909  0.1111
  116MOL   C10332533   2.542   6.701   1.558  0.1101  0.5183 -0.2588
  116MOL   C10432534   2.423   6.778   1.558 -0.3905 -0.2285  0.4616
  116MOL   C10532535   2.321   6.756   1.476  0.1457 -0.4740  0.9597
  116MOL   C10632536   2.562   6.608   1.453 -0.0689  0.6486  0.0179
  116MOL   C10732537   2.670   6.516   1.455  0.2490 -0.5555  0.0297
  116MOL   H10832538   2.829   6.649   1.733 -1.3095  2.6213  1.5600
  116MOL   H10932539   2.637   6.794   1.725  0.0301 -1.1445  1.6126
  116MOL   H11032540   2.432   6.858   1.630  1.7917  0.4374 -0.4699
  116MOL   H11132541   2.319   6.670   1.412 -1.2786  0.1752  0.1050
  116MOL   H11232542   2.503   6.607   1.362  0.6006 -0.0266 -0.4140
  116MOL   H11332543   2.668   6.440   1.379 -2.0351  1.4057 -1.9493
  116MOL   C11432544   2.197   6.830   1.466 -0.3468 -0.1929 -0.1227
  116MOL   C11532545   2.124   6.812   1.350 -0.0206 -0.4363  0.3040
  116MOL   C11632546   2.007   6.892   1.327  0.0602  0.9971  0.9404
  116MOL   C11732547   1.957   6.977   1.430  0.3045 -0.1514 -0.5423
  116MOL   C11832548   1.827   7.043   1.419  0.5155 -0.1461 -1.0422
  116MOL   C11932549   1.746   7.042   1.310  0.2188  0.5479  0.0117
  116MOL   C12032550   2.044   7.003   1.542 -0.2389  0.2432 -0.4257
  116MOL   C12132551   2.164   6.923   1.566 -0.2479 -0.1161 -0.0831
  116MOL   H12232552   2.162   6.738   1.281  0.4193 -0.3020  0.4004
  116MOL   H12332553   1.959   6.870   1.233  0.9981  0.2830  0.6078
  116MOL   H12432554   1.803   7.095   1.511 -0.4136 -3.1478  0.4594
  116MOL   H12532555   1.779   6.984   1.225 -0.3286 -0.6788  0.6181
  116MOL   H12632556   2.012   7.071   1.620 -1.1418  0.6963 -1.1810
  116MOL   H12732557   2.227   6.938   1.652 -0.7113  3.1136 -0.2273
  116MOL   C12832558   1.619   7.112   1.298 -0.7361 -0.6020 -0.5774
  116MOL   C12932559   1.539   7.077   1.189  0.6842  0.3248 -0.2214
  116MOL   C13032560   1.414   7.130   1.166 -0.8197  0.2800 -0.3808
  116MOL   C13132561   1.362   7.224   1.258  0.3732  0.9463 -0.2333
  116MOL   C13232562   1.226   7.284   1.237  0.3864  0.3620 -0.5555
  116MOL   C13332563   1.146   7.260   1.131  0.0234  0.1880  0.3593
  116MOL   C13432564   1.438   7.266   1.367 -1.0439 -1.0383 -0.1142
  116MOL   C13532565   1.574   7.220   1.379  0.1803 -0.0166  0.6313
  116MOL   H13632566   1.577   7.008   1.115 -1.9107 -0.9965 -0.4028
  116MOL   H13732567   1.361   7.102   1.077 -2.3943 -1.3215  1.0321
  116MOL   H13832568   1.194   7.347   1.319 -0.8388 -2.0933  0.9133
  116MOL   H13932569   1.183   7.188   1.059  0.3490 -0.8780  1.5898
  116MOL   H14032570   1.399   7.336   1.439 -0.4556  1.6063 -2.2988
  116MOL   H14132571   1.638   7.268   1.452  1.4282 -1.0066  0.2030
  116MOL   C14232572   1.017   7.328   1.101 -0.5535  0.2304 -0.5768
  116MOL   C14332573   0.954   7.434   1.176  0.1436 -0.7518  0.0019
  116MOL   C14432574   0.823   7.474   1.149  1.5757 -1.1334 -0.2420
  116MOL   C14532575   0.747   7.407   1.046  0.0819 -0.4105 -0.3988
  116MOL   C14632576   0.620   7.460   0.995 -0.1398  0.0789 -0.6279
  116MOL   C14732577   0.561   7.574   1.037 -0.4609 -0.8652  0.1400
  116MOL   C14832578   0.807   7.300   0.973 -0.7281  0.5273  0.4681
  116MOL   C14932579   0.939   7.266   1.004  0.3514  0.1448  0.6419
  116MOL   H15032580   1.011   7.481   1.254 -1.2440  1.1953 -0.1257
  116MOL   H15132581   0.786   7.553   1.213  0.5022  0.6387 -2.9469
  116MOL   H15232582   0.584   7.401   0.912 -0.6403  1.9255 -1.7532
  116MOL   H15332583   0.592   7.640   1.118  0.1735  0.8258 -1.4452
  116MOL   H15432584   0.753   7.236   0.905  1.4016 -1.3134  0.4201
  116MOL   H15532585   0.978   7.179   0.955  0.5100  0.9859 -0.7391
  116MOL   C15632586   0.434   7.626   0.986  0.5690  0.1986 -0.0985
  116MOL   C15732587   0.367   7.552   0.879  0.0349  0.3511 -0.0122
  116MOL   C15832588   0.244   7.604   0.840  0.1156  0.1439  0.5510
  116MOL   C15932589   0.195   7.727   0.883 -0.3360 -0.1366  0.4477
  116MOL   C16032590   0.079   7.789   0.823  0.2584  0.1325 -0.3121
  116MOL   C16132591   8.133   7.725   0.742 -0.4558  0.2639 -0.0446
  116MOL   C16232592   0.265   7.799   0.980 -0.2162  0.5521  0.1811
  116MOL   C16332593   0.386   7.753   1.032 -0.1094 -0.5514  0.2421
  116MOL   H16432594   0.407   7.463   0.833  0.9026  1.5466 -1.6305
  116MOL   H16532595   0.184   7.548   0.770 -1.4904  2.6117 -0.1068
  116MOL   H16632596   0.059   7.891   0.852  0.1528 -0.1770  0.7355
  116MOL   H16732597   0.004   7.620   0.720 -0.1700 -0.0747  1.7537
  116MOL   H16832598   0.223   7.893   1.013 -2.2531  0.1786 -1.2766
  116MOL   H16932599   0.435   7.811   1.109 -2.2944 -1.1348  2.1402
  116MOL   C17032600   8.013   7.789   0.689 -0.2309 -0.3685 -0.3367
  116MOL   C17132601   7.909   7.699   0.645 -0.1396  0.0285  0.1211
  116MOL   C17232602   7.788   7.745   0.599  0.0862 -0.0688 -0.0356
  116MOL   C17332603   7.766   7.883   0.596 -0.5339  0.4601  0.2517
  116MOL   C17432604   7.634   7.934   0.548 -0.2862 -0.1683 -0.3425
  116MOL   C17532605   7.537   7.864   0.482 -0.1132 -0.4397  0.5687
  116MOL   C17632606   7.860   7.979   0.637  0.0437 -0.8101 -0.6349
  116MOL   C17732607   7.986   7.927   0.684 -0.2491  0.2403  0.7548
  116MOL   H17832608   7.922   7.592   0.653 -2.0058 -0.1729  0.4953
  116MOL   H17932609   7.729   7.671   0.547  2.0655 -0.0037 -2.4377
  116MOL   H18032610   7.611   8.039   0.558  0.6921  0.1236 -1.0085
  116MOL   H18132611   7.549   7.757   0.475 -0.7764 -0.5109  0.5147
  116MOL   H18232612   7.834   8.083   0.646  2.3293 -0.0421 -2.4299
  116MOL   H18332613   8.060   7.992   0.727 -1.0944  1.3714  0.5315
  116MOL   C18432614   7.417   7.918   0.422  1.0068 -0.0169 -0.1663
  116MOL   C18532615   7.292   7.865   0.445  0.4391 -0.6228  0.6089
  116MOL   C18632616   7.178   7.897   0.366 -0.4414  0.4490  0.0573
  116MOL   C18732617   7.190   7.985   0.258 -0.3076 -0.1692 -0.4319
  116MOL   C18832618   7.073   8.001   0.170 -0.9199 -0.2899  0.0521
  116MOL   C18932619   7.080   8.000   0.035 -0.5403 -0.3449 -0.3128
  116MOL   C19032620   7.321   8.038   0.224  0.0701  0.5285  0.2199
  116MOL   C19132621   7.431   8.004   0.305  0.3141 -0.0825 -0.4132
  116MOL   H19232622   7.279   7.794   0.525 -0.7081 -0.9833  0.1231
  116MOL   H19332623   7.085   7.844   0.377 -0.7818  0.8441 -0.9121
  116MOL   H19432624   6.979   8.008   0.223 -1.4056  1.2247 -0.9463
  116MOL   H19532625   7.181   7.992   8.142  0.1106 -0.5777  1.4497
  116MOL   H19632626   7.331   8.084   0.127 -2.3691  1.5677  0.4396
  116MOL   H19732627   7.528   8.038   0.272  0.0308 -0.6526 -1.8905
  116MOL   C19832628   6.980   8.016   8.075  0.6746  0.8106  0.3250
  116MOL   C19932629   7.022   8.001   7.943  0.2405  0.5239 -0.0458
  116MOL   C20032630   6.927   7.990   7.837 -0.3464 -0.2041  0.7652
  116MOL   C20132631   6.791   8.006   7.867  0.0976 -0.0618  0.1592
  116MOL   C20232632   6.695   7.998   7.760 -0.2990  0.0290  0.1276
  116MOL   C20332633   6.570   7.946   7.761 -0.5682 -0.2504  0.0063
  116MOL   C20432634   6.748   8.039   7.999 -0.0483  0.2696 -0.3875
  116MOL   C20532635   6.841   8.038   8.102 -0.0665 -0.1251 -0.9099
  116MOL   H20632636   7.126   7.994   7.914  0.4621 -0.9698  1.0058
  116MOL   H20732637   6.965   7.968   7.738 -1.8292 -0.8757  0.3232
  116MOL   H20832638   6.737   8.020   7.663  0.3531 -1.6947 -0.0099
  116MOL   H20932639   6.531   7.911   7.855  0.6284  0.8698  0.9346
  116MOL   H21032640   6.645   8.061   8.022 -0.2318  0.0162 -0.9540
  116MOL   H21132641   6.801   8.039   0.058  1.1681 -0.0710 -0.4026
  116MOL   C21232642   6.476   7.932   7.650  0.0309  0.6049  1.2161
  116MOL   C21332643   6.494   8.030   7.550  0.1526  0.1073  0.4017
  116MOL   C21432644   6.429   8.010   7.427 -0.0373  0.1771  0.0715
  116MOL   C21532645   6.340   7.907   7.402 -0.2349  0.1928 -0.5333
  116MOL   C21632646   6.280   7.902   7.269  0.0334 -0.1408 -0.4409
  116MOL   C21732647   6.171   7.831   7.236  0.0525 -0.6226  0.2265
  116MOL   C21832648   6.320   7.813   7.504 -0.4077  0.5194 -0.3794
  116MOL   C21932649   6.387   7.824   7.625  0.1361  0.2638  0.5263
  116MOL   H22032650   6.553   8.117   7.571  0.4694  0.2146 -0.8641
  116MOL   H22132651   6.458   8.077   7.348 -1.9384  1.7769  0.7052
  116MOL   H22232652   6.333   7.947   7.187 -0.0797  0.1838 -0.3362
  116MOL   H22332653   6.114   7.783   7.314  0.6579  1.5363  2.0566
  116MOL   H22432654   6.262   7.723   7.489  1.2833 -0.6635  0.0043
  116MOL   H22532655   6.389   7.743   7.696 -0.6853  1.6452  2.1776
  116MOL   C22632656   6.117   7.819   7.097 -0.9048  0.4776  0.1749
  116MOL   C22732657   6.208   7.826   6.986 -0.3817 -0.4450 -0.3661
  116MOL   C22832658   6.163   7.827   6.852 -0.1879  0.2179 -0.6560
  116MOL   C22932659   6.030   7.822   6.819 -0.7600  0.4378 -0.5545
  116MOL   C23032660   5.990   7.841   6.680  0.2290 -0.2150  0.3000
  116MOL   C23132661   5.871   7.888   6.638 -0.1025  0.0792 -0.3118
  116MOL   C23232662   5.935   7.833   6.925  0.9396  0.4205  0.4635
  116MOL   C23332663   5.978   7.823   7.062 -1.1997 -0.3171  0.9394
  116MOL   H23432664   6.314   7.834   6.999 -0.2657 -3.9375  1.4852
  116MOL   H23532665   6.239   7.825   6.775 -0.5043 -0.4736 -0.9500
  116MOL   H23632666   6.054   7.817   6.596  0.2252 -1.5409  0.6656
  116MOL   H23732667   5.799   7.927   6.709 -0.4908  2.6183 -2.0634
  116MOL   H23832668   5.834   7.859   6.899  0.5886 -1.1498  0.2437
  116MOL   H23932669   5.901   7.824   7.137 -0.5808  1.1078  1.5695
  116MOL   C24032670   5.820   7.897   6.497  0.7430  1.3430 -0.1016
  116MOL   C24132671   5.686   7.939   6.479 -0.5584  0.9445 -0.7154
  116MOL   C24232672   5.628   7.938   6.355  1.1409  0.0755  0.1811
  116MOL   C24332673   5.691   7.901   6.240 -0.3883 -0.4908  0.0887
  116MOL   C24432674   5.629   7.905   6.107 -0.2400  0.2236 -0.2720
  116MOL   C24532675   5.697   7.879   5.994  0.4833  0.0123 -0.0722
  116MOL   C24632676   5.829   7.880   6.253  0.8800  0.7535 -0.3746
  116MOL   C24732677   5.890   7.870   6.380 -0.9253  0.0820  0.1184
  116MOL   H24832678   5.636   7.971   6.569 -0.2002 -0.9461  0.1851
  116MOL   H24932679   5.525   7.968   6.348  1.0971  0.7258  3.1223
  116MOL   H25032680   5.525   7.929   6.117 -0.0036  0.8422  0.7562
  116MOL   H25132681   5.803   7.858   5.993  0.2786 -1.0991  1.2240
  116MOL   H25232682   5.890   7.848   6.169  1.3918  0.5670  0.0640
  116MOL   H25332683   5.991   7.832   6.384 -1.1378 -0.6114 -0.9686
  116MOL   C25432684   5.640   7.879   5.855 -0.4228 -0.2697 -0.5961
  116MOL   C25532685   5.724   7.839   5.747  0.7697  0.2205  0.0837
  116MOL   C25632686   5.673   7.832   5.613 -0.2516 -0.1822  0.2639
  116MOL   C25732687   5.531   7.854   5.593  0.2111 -0.2790 -0.0731
  116MOL   C25832688   5.470   7.844   5.460 -0.2629  0.2052 -0.0441
  116MOL   C25932689   5.503   7.893   5.336 -0.3124 -0.0525  0.0549
  116MOL   C26032690   5.454   7.897   5.700  0.4583  0.0142  0.3608
  116MOL   C26132691   5.503   7.910   5.829  0.0072 -0.3568 -0.1557
  116MOL   H26232692   5.826   7.820   5.777  0.2798 -2.2624  0.2525
  116MOL   H26332693   5.748   7.806   5.540  0.5695  1.1537  0.6256
  116MOL   H26432694   5.378   7.789   5.455 -0.9874  1.5190 -1.7369
  116MOL   H26532695   5.438   7.866   5.255 -0.9668  1.0148  0.2057
  116MOL   H26632696   5.350   7.907   5.673  0.7627  0.6201 -0.5906
  116MOL   H26732697   5.434   7.938   5.908 -0.0180 -5.0394  1.6434
  116MOL   C26832698   5.610   7.985   5.293  0.1908 -0.9668 -0.1756
  116MOL   C26932699   5.687   8.071   5.379 -0.2596 -0.0958 -0.5461
  116MOL   C27032700   5.778   0.024   5.338 -0.1939 -0.1682  0.4376
  116MOL   C27132701   5.806   0.036   5.198  0.5854  0.0833  0.2720
  116MOL   C27232702   5.887   0.141   5.141  0.3073  0.5565  0.1706
  116MOL   C27332703   5.940   0.250   5.201 -0.0146 -0.3304  0.0918
  116MOL   C27432704   5.731   8.099   5.114  1.3625 -1.1090  0.7245
  116MOL   C27532705   5.638   8.005   5.162 -0.5264  0.4882 -0.5291
  116MOL   H27632706   5.654   8.064   5.482 -1.6229 -0.6802 -1.0092
  116MOL   H27732707   5.818   0.093   5.411 -0.9555  1.4661 -0.6488
  116MOL   H27832708   5.903   0.127   5.035  0.0122  2.2837 -0.1156
  116MOL   H27932709   5.941   0.263   5.308  2.7942 -1.0027  0.1967
  116MOL   H28032710   5.737   8.096   5.006 -2.0605  0.6963  0.4172
  116MOL   H28132711   5.578   7.950   5.092 -1.0147  1.1553 -0.6382
  116MOL   H28232712   6.002   0.318   5.145 -1.1781  1.2604  0.7077
  117MOL     C132713   4.468   3.628   3.117 -1.0299  0.5922 -0.2851
  117MOL     C232714   4.374   3.700   3.040  0.3775 -0.5209 -0.3335
  117MOL     C332715   4.264   3.640   2.985  0.5515  0.7007 -0.1458
  117MOL     C432716   4.244   3.499   3.012  0.2927 -0.3940  0.1698
  117MOL     C532717   4.120   3.450   2.954 -0.6566 -0.4521 -0.2101
  117MOL     C632718   4.078   3.324   2.969  0.5482 -0.6896 -0.0061
  117MOL     C732719   4.343   3.425   3.081  0.2515 -0.3012 -0.2111
  117MOL     C832720   4.455   3.487   3.137 -0.2823  0.6391  0.5350
  117MOL     H932721   4.384   3.805   3.016 -1.1589 -0.4122 -0.4947
  117MOL    H1032722   4.195   3.697   2.925  1.2717  1.1094 -0.6035
  117MOL    H1132723   4.063   3.514   2.890  2.0643  0.7497 -1.4990
  117MOL    H1232724   4.133   3.255   3.032 -1.7158 -0.9481  1.7678
  117MOL    H1332725   4.332   3.318   3.086 -1.3993 -0.1581 -0.3786
  117MOL    H1432726   4.531   3.439   3.198  1.0402 -0.1574 -1.6817
  117MOL    H1532727   4.540   3.688   3.170  1.1168 -1.6738 -0.5486
  117MOL    C1632728   3.963   3.263   2.907  0.0353  0.1457  0.2137
  117MOL    C1732729   3.848   3.336   2.875 -0.7019 -0.3253 -0.0001
  117MOL    C1832730   3.731   3.276   2.818 -0.3009 -0.3224 -0.5787
  117MOL    C1932731   3.729   3.141   2.788  0.1982  0.7039  0.2148
  117MOL    C2032732   3.621   3.066   2.731  0.1925 -0.7214 -1.3094
  117MOL    C2132733   3.497   3.107   2.694 -0.1309  0.1617  0.2810
  117MOL    C2232734   3.851   3.069   2.813  0.1550 -0.4139  0.8192
  117MOL    C2332735   3.967   3.127   2.873 -0.0459  0.1989 -0.1484
  117MOL    H2432736   3.847   3.442   2.896  3.7436 -0.2624  0.4772
  117MOL    H2532737   3.643   3.336   2.797  2.1053  3.1409 -1.2736
  117MOL    H2632738   3.639   2.959   2.727 -0.9824 -1.0388  0.7813
  117MOL    H2732739   3.474   3.212   2.704  2.4066  0.9620 -1.6938
  117MOL    H2832740   3.851   2.963   2.792  1.0128 -0.2968  0.1955
  117MOL    H2932741   4.052   3.065   2.895 -1.7703 -1.4670  1.9850
  117MOL    C3032742   3.386   3.028   2.635 -0.4379 -0.5654  0.1437
  117MOL    C3132743   3.251   3.066   2.646  0.4328  0.5468  0.2485
  117MOL    C3232744   3.151   2.990   2.589  1.1823  0.7620  0.1826
  117MOL    C3332745   3.181   2.868   2.523  0.0807 -0.1225 -0.5798
  117MOL    C3432746   3.069   2.799   2.456  0.3507  0.2284 -0.2734
  117MOL    C3532747   3.080   2.694   2.380 -0.7501  0.1705  0.1727
  117MOL    C3632748   3.317   2.822   2.518 -0.2022  1.1845 -1.3092
  117MOL    C3732749   3.417   2.904   2.573 -0.1687 -0.6048 -0.2178
  117MOL    H3832750   3.219   3.155   2.697 -0.8560  0.2219  0.0199
  117MOL    H3932751   3.048   3.022   2.580  0.5989 -1.4127 -1.2090
  117MOL    H4032752   2.972   2.839   2.482  0.7617  1.3184 -0.3859
  117MOL    H4132753   3.180   2.662   2.354 -0.6822 -0.0363  0.6753
  117MOL    H4232754   3.347   2.733   2.464 -1.3319 -0.1760  0.2662
  117MOL    H4332755   3.517   2.865   2.576 -0.5913 -1.6863  0.0593
  117MOL    C4432756   2.969   2.621   2.310 -0.5409  0.0443  0.0491
  117MOL    C4532757   3.005   2.502   2.236  0.4397 -0.2010  0.2979
  117MOL    C4632758   2.900   2.434   2.172 -0.1893 -0.1579  0.1188
  117MOL    C4732759   2.766   2.482   2.175 -0.2637  0.2616  0.1889
  117MOL    C4832760   2.664   2.406   2.106 -0.2067 -0.0205  0.5684
  117MOL    C4932761   2.528   2.432   2.091  0.1186 -0.3753  0.4479
  117MOL    C5032762   2.738   2.601   2.248  0.5661 -0.4411  0.1670
  117MOL    C5132763   2.835   2.667   2.325 -0.4001  0.2335  0.0579
  117MOL    H5232764   3.109   2.474   2.237  0.8267  1.1503 -0.5809
  117MOL    H5332765   2.930   2.346   2.118  1.7194 -0.0826  1.0298
  117MOL    H5432766   2.693   2.316   2.054  1.6242  1.5580 -1.2213
  117MOL    H5532767   2.479   2.519   2.133  0.3680  0.3441 -0.7333
  117MOL    H5632768   2.635   2.633   2.254 -0.2450 -3.1614  2.0712
  117MOL    H5732769   2.804   2.760   2.369  0.8119  0.7955 -0.2458
  117MOL    C5832770   2.434   2.353   2.004  0.1485  0.2774  0.5332
  117MOL    C5932771   2.461   2.309   1.872 -0.8255  0.1838 -0.1943
  117MOL    C6032772   2.362   2.253   1.789  0.3126 -0.0564  0.0674
  117MOL    C6132773   2.238   2.228   1.845  0.2678 -0.0564  0.1633
  117MOL    C6232774   2.122   2.173   1.774  0.4742  0.5349  0.2300
  117MOL    C6332775   2.101   2.171   1.642  0.7572  0.3461  0.5153
  117MOL    C6432776   2.209   2.273   1.981 -0.1227 -0.3596  0.1053
  117MOL    C6532777   2.311   2.330   2.060 -0.5589 -0.1929  0.0384
  117MOL    H6632778   2.558   2.326   1.828  0.5295 -0.9931  2.2439
  117MOL    H6732779   2.382   2.235   1.685  0.5141  2.1281 -0.2930
  117MOL    H6832780   2.046   2.137   1.842  1.8088 -2.7166  0.0862
  117MOL    H6932781   2.175   2.195   1.567 -0.7296  0.1599 -1.0660
  117MOL    H7032782   2.113   2.267   2.031 -0.8070  3.0408 -0.6532
  117MOL    H7132783   2.289   2.353   2.163 -1.1544  0.3330 -0.1984
  117MOL    C7232784   1.980   2.131   1.566  0.0015 -0.0977  0.1758
  117MOL    C7332785   1.859   2.111   1.634 -0.0008  0.1112 -1.1041
  117MOL    C7432786   1.747   2.067   1.563  0.1477  0.0506  0.4350
  117MOL    C7532787   1.753   2.032   1.422  0.3720 -0.2674 -0.8300
  117MOL    C7632788   1.635   1.971   1.365  0.0446 -0.1870 -0.1747
  117MOL    C7732789   1.624   1.937   1.236  0.7019 -0.6473  0.1240
  117MOL    C7832790   1.877   2.060   1.353  0.0551  0.1788 -0.5324
  117MOL    C7932791   1.984   2.123   1.422 -0.2294  0.1348 -0.6226
  117MOL    H8032792   1.845   2.118   1.741  1.5361 -0.1251 -0.8771
  117MOL    H8132793   1.652   2.078   1.612 -1.1413  0.4775 -2.0990
  117MOL    H8232794   1.559   1.953   1.439  0.7313  2.1917  1.1636
  117MOL    H8332795   1.700   1.965   1.165 -0.6912 -0.8428 -1.4522
  117MOL    H8432796   1.879   2.042   1.247  2.6105 -1.0047 -0.3120
  117MOL    H8532797   2.075   2.143   1.367  0.8914  2.3191  1.9222
  117MOL    C8632798   1.516   1.877   1.163  0.0537 -0.8470 -0.1901
  117MOL    C8732799   1.404   1.833   1.234 -0.0038  0.3326  0.0105
  117MOL    C8832800   1.290   1.776   1.164 -0.0958 -0.5925 -0.2902
  117MOL    C8932801   1.294   1.763   1.022 -0.3228  0.0860  0.1516
  117MOL    C9032802   1.178   1.701   0.946  0.5769  0.4924  0.6723
  117MOL    C9132803   1.171   1.680   0.816 -0.3237  0.6012  0.3833
  117MOL    C9232804   1.410   1.800   0.950 -0.4575  0.1219  0.5262
  117MOL    C9332805   1.518   1.863   1.017  0.1568  0.0001 -0.2860
  117MOL    H9432806   1.393   1.833   1.341 -0.2862 -1.2127  0.0041
  117MOL    H9532807   1.202   1.744   1.217 -0.0276  0.6720  0.5949
  117MOL    H9632808   1.099   1.666   1.010  0.9694 -1.9017 -0.0823
  117MOL    H9732809   1.254   1.720   0.760 -0.4901 -1.9362 -1.7740
  117MOL    H9832810   1.417   1.780   0.844 -0.1174  0.0165  0.5694
  117MOL    H9932811   1.604   1.898   0.961  0.2207 -0.0567 -0.2226
  117MOL   C10032812   1.059   1.614   0.749 -0.4982 -0.2141  0.6118
  117MOL   C10132813   0.939   1.583   0.810 -0.9657  0.4718 -0.3817
  117MOL   C10232814   0.837   1.509   0.746 -0.6855 -0.7476 -0.3431
  117MOL   C10332815   0.859   1.461   0.615  0.1589 -0.7688 -0.0830
  117MOL   C10432816   0.766   1.372   0.547 -0.0652 -0.3306  0.3851
  117MOL   C10532817   0.635   1.362   0.576  0.4845 -0.1322 -0.3492
  117MOL   C10632818   0.977   1.486   0.549  0.2250  0.3908  0.0666
  117MOL   C10732819   1.073   1.560   0.617  0.4117 -0.0650  0.2837
  117MOL   H10832820   0.926   1.610   0.914  0.5185  0.2161 -0.1119
  117MOL   H10932821   0.746   1.486   0.799 -0.7495 -2.7772 -1.2894
  117MOL   H11032822   0.812   1.315   0.468 -1.5504 -0.0764 -0.6833
  117MOL   H11132823   0.599   1.439   0.643  0.1839 -1.4656  1.0545
  117MOL   H11232824   0.990   1.439   0.453 -1.9638 -1.3555  0.5733
  117MOL   H11332825   1.164   1.582   0.563 -0.3411  0.2861 -0.8723
  117MOL   C11432826   0.540   1.262   0.515 -0.0168  0.1039 -0.8416
  117MOL   C11532827   0.586   1.171   0.421 -0.1491  0.4396 -0.7608
  117MOL   C11632828   0.530   1.041   0.419  0.4432  0.7307 -0.4133
  117MOL   C11732829   0.411   1.009   0.489  0.5352  0.4432 -0.4726
  117MOL   C11832830   0.370   0.869   0.499  0.1900 -1.0527 -0.2109
  117MOL   C11932831   0.288   0.818   0.593 -0.1640  0.0688  0.3096
  117MOL   C12032832   0.352   1.116   0.559  0.0380  0.1062 -0.6885
  117MOL   C12132833   0.414   1.240   0.577  0.1331  0.0632 -0.6341
  117MOL   H12232834   0.679   1.175   0.365  1.7316 -0.1721  2.2283
  117MOL   H12332835   0.575   0.965   0.358 -1.4815 -0.1607 -0.7831
  117MOL   H12432836   0.420   0.798   0.435  0.3088  0.2615 -1.5914
  117MOL   H12532837   0.232   0.883   0.659  2.0773  3.2128 -0.7825
  117MOL   H12632838   0.270   1.088   0.623 -0.7993  0.1283 -1.7490
  117MOL   H12732839   0.375   1.314   0.646 -2.2953 -0.6360 -1.2224
  117MOL   C12832840   0.267   0.674   0.619  0.5440 -0.5373 -0.4567
  117MOL   C12932841   0.310   0.579   0.524  1.6876  0.0873  0.2356
  117MOL   C13032842   0.332   0.447   0.569  0.0538  0.1460 -0.0503
  117MOL   C13132843   0.312   0.408   0.702  0.4883  0.1811  0.0673
  117MOL   C13232844   0.373   0.282   0.747 -0.0129  0.5288  0.1607
  117MOL   C13332845   0.370   0.226   0.876  0.3003  0.2128  0.6296
  117MOL   C13432846   0.242   0.495   0.788 -0.1031 -0.0759 -0.2594
  117MOL   C13532847   0.229   0.625   0.749  0.2020 -0.3185  0.0549
  117MOL   H13632848   0.336   0.610   0.424  0.2035  5.1724  1.2723
  117MOL   H13732849   0.384   0.377   0.505  1.4750  2.1146 -1.1222
  117MOL   H13832850   0.427   0.226   0.672 -1.1943  0.0162 -0.3191
  117MOL   H13932851   0.308   0.268   0.953 -0.7624 -1.3376  0.6525
  117MOL   H14032852   0.223   0.468   0.890 -0.0190  2.6954  0.5203
  117MOL   H14132853   0.199   0.698   0.822 -1.6653 -1.4669  0.4443
  117MOL   C14232854   0.443   0.104   0.910  0.0887 -0.3845  0.0828
  117MOL   C14332855   0.429   0.059   1.044 -0.9505 -0.1797  0.0015
  117MOL   C14432856   0.520   8.101   1.093 -0.0481  0.1176 -0.1222
  117MOL   C14532857   0.625   8.055   1.006 -0.1355  0.3830 -0.4581
  117MOL   C14632858   0.741   7.977   1.058  0.3369  0.4341  0.0094
  117MOL   C14732859   0.779   7.942   1.186  0.6360 -0.0894 -0.4080
  117MOL   C14832860   0.631   8.098   0.873  0.1587 -0.5266  0.0629
  117MOL   C14932861   0.534   0.045   0.827 -0.4828 -0.2122  0.3642
  117MOL   H15032862   0.359   0.100   1.115 -0.8010  1.6129 -0.8552
  117MOL   H15132863   0.513   8.061   1.193  2.6581 -1.1288 -0.3920
  117MOL   H15232864   0.807   7.942   0.980  0.0453 -0.2452  0.0577
  117MOL   H15332865   0.717   7.975   1.269 -1.0027 -2.4983 -0.6242
  117MOL   H15432866   0.719   8.070   0.817 -1.2782 -3.0649 -1.0051
  117MOL   H15532867   0.535   0.081   0.725 -3.1359 -1.8063 -0.2450
  117MOL   C15632868   0.904   7.874   1.228  0.4856 -0.0210  0.0875
  117MOL   C15732869   0.930   7.844   1.364 -0.5589 -0.6233  0.0058
  117MOL   C15832870   1.040   7.772   1.407 -0.2677 -0.1400  1.0723
  117MOL   C15932871   1.141   7.744   1.310 -0.1770  0.2510 -0.3278
  117MOL   C16032872   1.276   7.690   1.338  0.4111 -0.2588  0.2866
  117MOL   C16132873   1.327   7.663   1.457 -0.0317  0.5639  0.1557
  117MOL   C16232874   1.128   7.781   1.175  0.6484 -0.1172 -0.1341
  117MOL   C16332875   1.007   7.847   1.136 -0.1961  0.2089 -0.1853
  117MOL   H16432876   0.844   7.866   1.425 -0.8648 -0.7075 -0.3882
  117MOL   H16532877   1.052   7.749   1.512  0.4841  1.2367  1.2877
  117MOL   H16632878   1.344   7.671   1.256 -0.3624 -3.2237  0.2697
  117MOL   H16732879   1.263   7.684   1.541 -2.0318 -2.8214 -0.4108
  117MOL   H16832880   1.215   7.773   1.111  1.0810 -2.3905  0.6710
  117MOL   H16932881   1.002   7.876   1.032 -0.8898 -0.1512 -0.2479
  117MOL   C17032882   1.462   7.610   1.486 -0.0240 -0.2186 -0.2401
  117MOL   C17132883   1.496   7.568   1.612  0.9729 -0.9965  0.3034
  117MOL   C17232884   1.622   7.511   1.644 -0.1852 -0.1359 -0.3283
  117MOL   C17332885   1.723   7.507   1.548  0.3753  0.3466  0.6168
  117MOL   C17432886   1.849   7.444   1.589  0.1600 -0.6804  0.2470
  117MOL   C17532887   1.966   7.451   1.525 -1.2687 -0.2959  0.4288
  117MOL   C17632888   1.694   7.551   1.417 -0.2881 -0.1170  0.3720
  117MOL   C17732889   1.566   7.605   1.386  0.4082  0.0652 -0.2709
  117MOL   H17832890   1.419   7.587   1.686  2.1704 -0.9410  1.5609
  117MOL   H17932891   1.646   7.485   1.746 -1.2232 -1.0532 -0.3156
  117MOL   H18032892   1.841   7.387   1.680 -0.7266  0.5710  0.9645
  117MOL   H18132893   1.954   7.502   1.430  0.2629  0.2400  0.5051
  117MOL   H18232894   1.757   7.545   1.329 -0.5362  0.8408  0.1229
  117MOL   H18332895   1.543   7.622   1.282  0.3919  2.4706  0.0908
  117MOL   C18432896   2.092   7.390   1.558 -0.1319  0.1173 -0.7153
  117MOL   C18532897   2.114   7.351   1.693  0.4194  0.1562  0.2228
  117MOL   C18632898   2.238   7.292   1.722 -0.6294 -1.0875 -0.2773
  117MOL   C18732899   2.335   7.269   1.620  0.0157 -0.0213 -1.2716
  117MOL   C18832900   2.465   7.224   1.679  0.3960  0.2193  0.7928
  117MOL   C18932901   2.573   7.208   1.601 -0.6218  0.1472  0.1019
  117MOL   C19032902   2.309   7.298   1.488 -0.7308 -0.7492 -0.4575
  117MOL   C19132903   2.190   7.356   1.454  0.8487  0.4465  0.3142
  117MOL   H19232904   2.033   7.356   1.764  0.2359  0.3298  0.0028
  117MOL   H19332905   2.258   7.277   1.827  0.0412 -1.4519 -0.4556
  117MOL   H19432906   2.468   7.205   1.786  1.4559 -0.0576  0.7196
  117MOL   H19532907   2.570   7.226   1.495 -0.3351 -2.1642 -0.3338
  117MOL   H19632908   2.384   7.289   1.410 -0.7035 -1.4173 -0.3607
  117MOL   H19732909   2.178   7.385   1.350 -2.8537  0.9973  0.8514
  117MOL   C19832910   2.694   7.147   1.661 -0.3901  0.4596 -0.5615
  117MOL   C19932911   2.816   7.144   1.587  0.6692  0.3541 -0.1587
  117MOL   C20032912   2.922   7.064   1.642  0.7068  0.1762  0.4249
  117MOL   C20132913   2.916   7.002   1.766  0.6743 -0.1507 -0.7594
  117MOL   C20232914   3.013   6.903   1.817 -0.2707  0.3488 -0.8369
  117MOL   C20332915   2.980   6.793   1.892  0.3244 -0.3039 -0.3269
  117MOL   C20432916   2.803   7.019   1.842  0.4098 -0.3387  0.4268
  117MOL   C20532917   2.689   7.078   1.786  0.0891  0.4314  0.1198
  117MOL   H20632918   2.829   7.189   1.490  1.1076 -0.4059 -0.4570
  117MOL   H20732919   3.009   7.044   1.581  0.4365  0.1410  0.0475
  117MOL   H20832920   3.116   6.929   1.796  0.0648  0.3860  0.8008
  117MOL   H20932921   2.875   6.771   1.902  0.3606 -0.5308 -0.4530
  117MOL   H21032922   2.797   6.974   1.940 -4.6039  1.7868  1.2381
  117MOL   H21132923   2.596   7.072   1.841 -1.1800  0.2645 -1.9684
  117MOL   C21232924   3.069   6.699   1.962  0.3467 -0.2165 -0.1560
  117MOL   C21332925   3.026   6.573   2.002 -0.0518 -1.3476 -0.3919
  117MOL   C21432926   3.111   6.470   2.049 -0.2413  0.2188  0.5802
  117MOL   C21532927   3.250   6.493   2.055  0.6386  0.2173 -0.2393
  117MOL   C21632928   3.353   6.388   2.089  0.4027 -0.5339  0.5412
  117MOL   C21732929   3.481   6.416   2.117 -0.0510 -0.3507  0.8302
  117MOL   C21832930   3.297   6.619   2.009  0.1033  0.5807  0.4706
  117MOL   C21932931   3.212   6.725   1.970 -0.3420 -0.4366 -0.6044
  117MOL   H22032932   2.923   6.549   1.982 -0.0632 -0.0387 -2.0055
  117MOL   H22132933   3.059   6.384   2.089 -0.9201 -0.1999 -1.1486
  117MOL   H22232934   3.311   6.289   2.085 -2.2285  0.4732  2.0683
  117MOL   H22332935   3.513   6.518   2.129  0.4610 -0.6607  2.2310
  117MOL   H22432936   3.403   6.639   2.012  0.1830  0.0046  4.9522
  117MOL   H22532937   3.254   6.821   1.943  1.6093 -0.9932  0.3615
  117MOL   C22632938   3.586   6.316   2.132  0.1594  0.0386 -0.7983
  117MOL   C22732939   3.575   6.189   2.080  0.6058 -0.1636  0.3734
  117MOL   C22832940   3.675   6.096   2.092  0.0003 -0.2237  0.0058
  117MOL   C22932941   3.794   6.127   2.164 -0.0206 -0.2078  0.5909
  117MOL   C23032942   3.894   6.019   2.178  0.9562 -0.5257 -0.3894
  117MOL   C23132943   4.010   6.037   2.242 -0.1726  0.0593  0.5364
  117MOL   C23232944   3.809   6.257   2.227 -0.4381  0.6942 -0.4013
  117MOL   C23332945   3.702   6.349   2.212  0.1448 -0.2842 -0.4776
  117MOL   H23432946   3.485   6.166   2.025  0.3455  3.3102 -0.7492
  117MOL   H23532947   3.664   6.005   2.035 -2.5375  1.5913 -2.5215
  117MOL   H23632948   3.865   5.922   2.138  0.4359 -0.6272  0.2332
  117MOL   H23732949   4.037   6.131   2.286 -1.5560  0.7984 -0.1622
  117MOL   H23832950   3.904   6.278   2.274  0.2108 -2.5777 -0.1599
  117MOL   H23932951   3.711   6.450   2.251 -1.5613 -1.0722  2.1248
  117MOL   C24032952   4.112   5.932   2.262 -0.1520  0.2261 -0.0561
  117MOL   C24132953   4.246   5.965   2.288 -0.1298 -0.3850  0.2803
  117MOL   C24232954   4.344   5.865   2.317 -0.6904  0.3762 -0.1748
  117MOL   C24332955   4.306   5.726   2.318  0.1330 -0.4498  0.3052
  117MOL   C24432956   4.393   5.611   2.341  0.4496  0.1577 -0.3363
  117MOL   C24532957   4.527   5.625   2.365  0.1139  0.3863 -0.6582
  117MOL   C24632958   4.172   5.698   2.282 -0.5406  0.0002  0.8059
  117MOL   C24732959   4.077   5.792   2.255  0.0027  0.3669 -0.4813
  117MOL   H24832960   4.276   6.069   2.288  0.8426 -0.6557 -0.4049
  117MOL   H24932961   4.444   5.905   2.329 -0.0849 -0.7089 -1.5087
  117MOL   H25032962   4.348   5.513   2.336 -2.5831  1.2214  3.8278
  117MOL   H25132963   4.565   5.726   2.367 -0.7597  0.7041  0.2386
  117MOL   H25232964   4.143   5.595   2.275  1.4249 -0.4022 -2.5246
  117MOL   H25332965   3.973   5.766   2.243 -0.2954  1.4844 -0.3865
  117MOL   C25432966   4.623   5.511   2.376 -0.9774 -0.2390  0.3730
  117MOL   C25532967   4.587   5.376   2.353 -0.4836  0.8185 -0.3110
  117MOL   C25632968   4.670   5.270   2.388  0.2478  0.9545 -0.2161
  117MOL   C25732969   4.793   5.296   2.452 -0.3280 -0.1154  0.8741
  117MOL   C25832970   4.879   5.201   2.515  0.6999  0.5587 -0.0630
  117MOL   C25932971   4.861   5.070   2.547  1.0543 -0.0076 -0.1495
  117MOL   C26032972   4.839   5.427   2.453 -0.0798 -0.3855 -0.0875
  117MOL   C26132973   4.753   5.533   2.422 -0.1226 -0.5029 -0.4014
  117MOL   H26232974   4.490   5.345   2.318  0.1580  0.8359 -2.1603
  117MOL   H26332975   4.632   5.171   2.368  1.1883  0.7429 -0.9845
  117MOL   H26432976   4.977   5.236   2.545  1.0208 -1.0154  0.8036
  117MOL   H26532977   4.939   5.017   2.600 -0.5677 -1.6636  0.6337
  117MOL   H26632978   4.936   5.460   2.488 -0.1951  0.5118 -0.5781
  117MOL   H26732979   4.784   5.636   2.428 -3.4876  0.4650  1.6461
  117MOL   C26832980   4.742   4.983   2.511 -0.3304  1.0617  0.0353
  117MOL   C26932981   4.616   4.993   2.579  0.2873  0.8146 -0.1677
  117MOL   C27032982   4.510   4.907   2.548 -0.3660 -1.0994 -0.4110
  117MOL   C27132983   4.515   4.818   2.446  0.1342  0.2594 -0.1470
  117MOL   C27232984   4.398   4.741   2.393  0.0239 -0.2191 -0.7364
  117MOL   C27332985   4.273   4.752   2.431 -0.1486 -0.2494 -0.3364
  117MOL   C27432986   4.637   4.811   2.374  0.8332  0.1233  0.0851
  117MOL   C27532987   4.748   4.887   2.409 -0.1397  0.3980  0.1582
  117MOL   H27632988   4.599   5.068   2.655 -0.6058  0.2082  0.2317
  117MOL   H27732989   4.411   4.931   2.584  0.0314  2.3234 -1.3825
  117MOL   H27832990   4.425   4.668   2.319  1.8927  1.4644 -1.7759
  117MOL   H27932991   4.250   4.830   2.502 -3.1412 -0.5986 -0.8625
  117MOL   H28032992   4.650   4.760   2.280 -1.4375 -0.4637  0.0472
  117MOL   H28132993   4.837   4.877   2.349 -0.1737 -2.9997  0.5630
  117MOL   H28232994   4.190   4.702   2.385 -0.1193  0.1494 -0.8296
  118MOL     C132995   7.445   0.142   7.533 -0.0464  0.1007 -0.4568
  118MOL     C232996   7.568   0.190   7.487 -0.0561  0.1720 -0.2561
  118MOL     C332997   7.691   0.155   7.548 -0.6952 -0.1122  0.8623
  118MOL     C432998   7.698   0.068   7.661 -0.3751  0.0045 -0.5113
  118MOL     C532999   7.829   0.032   7.719 -0.1092  0.0353  0.4906
  118MOL     C633000   7.839   8.103   7.832  0.2556 -0.9504 -0.4739
  118MOL     C733001   7.576   0.032   7.713 -0.1606 -0.4092 -0.3825
  118MOL     C833002   7.451   0.058   7.645 -0.0477  0.3801 -0.5709
  118MOL     H933003   7.578   0.264   7.409  3.3712 -1.1876 -1.2131
  118MOL    H1033004   7.779   0.206   7.511 -2.7030  2.9704  0.1479
  118MOL    H1133005   7.921   0.075   7.683  1.5166 -2.6905  1.2161
  118MOL    H1233006   7.747   8.068   7.876 -0.5571  0.8887 -0.6729
  118MOL    H1333007   7.580   8.111   7.799  0.6619 -0.2086 -0.2596
  118MOL    H1433008   7.362   0.027   7.697  0.1488  2.1958  0.8974
  118MOL    H1533009   7.355   0.190   7.498  0.8917  0.5689 -2.2700
  118MOL    C1633010   7.969   8.075   7.907 -0.4424  0.3122 -0.2285
  118MOL    C1733011   8.095   8.140   7.888 -0.3597 -0.4403  0.6543
  118MOL    C1833012   0.066   8.087   7.945  0.0442 -0.6044  0.1430
  118MOL    C1933013   0.054   7.994   8.047 -0.4154 -0.0274 -0.5561
  118MOL    C2033014   0.168   7.940   8.119  0.5404  0.0182 -0.1288
  118MOL    C2133015   0.294   7.982   8.106  0.1779  0.7126 -0.8296
  118MOL    C2233016   8.073   7.925   8.065  0.2380 -0.2222  0.6948
  118MOL    C2333017   7.959   7.968   7.995 -0.1471 -0.5075 -0.0293
  118MOL    H2433018   8.106   0.079   7.821  1.5138 -0.6785  0.6565
  118MOL    H2533019   0.162   8.131   7.922 -1.5911  1.7491 -2.4923
  118MOL    H2633020   0.135   7.863   0.042  1.6510 -1.9578 -1.8070
  118MOL    H2733021   0.319   8.064   8.040  0.4094  1.0211 -0.3631
  118MOL    H2833022   8.064   7.842   8.133 -1.0516  0.4179  1.3226
  118MOL    H2933023   7.862   7.922   8.005  0.2461 -0.6244  4.0508
  118MOL    C3033024   0.411   7.924   0.037 -0.3632  0.2493  0.9045
  118MOL    C3133025   0.532   7.993   0.040  0.0797  0.1104 -0.0532
  118MOL    C3233026   0.644   7.939   0.097  0.4812  0.2572 -0.8391
  118MOL    C3333027   0.640   7.822   0.176 -0.1248 -0.1412 -0.0920
  118MOL    C3433028   0.754   7.769   0.254 -0.6342  0.5006 -0.9889
  118MOL    C3533029   0.884   7.783   0.221 -0.4173  0.3189  0.3452
  118MOL    C3633030   0.516   7.746   0.179 -0.0732 -0.3596 -0.4336
  118MOL    C3733031   0.405   7.799   0.106  0.5977  0.0515  0.7479
  118MOL    H3833032   0.548   8.095   0.007 -1.1675  0.7029  1.1150
  118MOL    H3933033   0.737   7.994   0.096  1.9916 -2.2523 -2.7570
  118MOL    H4033034   0.716   7.716   0.340 -1.2851  2.2278 -0.1913
  118MOL    H4133035   0.907   7.831   0.127 -1.3376 -1.9522 -1.0785
  118MOL    H4233036   0.514   7.662   0.247 -1.5826 -0.5984 -0.7769
  118MOL    H4333037   0.307   7.753   0.099  0.7454 -0.3004  0.9845
  118MOL    C4433038   1.005   7.740   0.289 -0.0093  0.1796 -0.6609
  118MOL    C4533039   1.129   7.815   0.280  0.8719  0.6339  0.3854
  118MOL    C4633040   1.248   7.757   0.327  0.2777  0.0862 -1.0994
  118MOL    C4733041   1.244   7.633   0.399 -0.4240 -0.2279  0.3245
  118MOL    C4833042   1.359   7.560   0.453 -0.4631  1.3972 -0.1209
  118MOL    C4933043   1.489   7.599   0.443 -0.0138  0.0822 -0.3701
  118MOL    C5033044   1.116   7.569   0.422 -0.0979  0.6361 -0.1636
  118MOL    C5133045   1.004   7.624   0.371  0.2401 -0.3685  0.2084
  118MOL    H5233046   1.142   7.902   0.218 -1.1140  1.7230  1.4550
  118MOL    H5333047   1.346   7.796   0.300 -0.1841  1.1130 -1.3129
  118MOL    H5433048   1.340   7.462   0.495 -2.3413  0.3759 -3.2387
  118MOL    H5533049   1.516   7.683   0.381 -1.1809  0.7037 -0.0600
  118MOL    H5633050   1.110   7.473   0.472 -1.4403  1.4378  1.2502
  118MOL    H5733051   0.912   7.570   0.392  0.7339 -1.1131  0.4934
  118MOL    C5833052   1.602   7.529   0.505  0.1145 -0.5478  0.1918
  118MOL    C5933053   1.608   7.389   0.525 -0.3713 -0.4669 -0.0300
  118MOL    C6033054   1.730   7.325   0.559  0.1693  1.2994 -0.3434
  118MOL    C6133055   1.847   7.400   0.569  0.2638  0.5727  0.2499
  118MOL    C6233056   1.978   7.332   0.594  0.0547 -0.0033  0.0037
  118MOL    C6333057   1.996   7.200   0.624 -0.5034  0.4319  0.2394
  118MOL    C6433058   1.837   7.541   0.572  0.8312  0.5995 -0.0849
  118MOL    C6533059   1.715   7.603   0.542  0.7974 -0.4794 -0.1016
  118MOL    H6633060   1.519   7.328   0.516 -0.7625  0.1057 -0.0241
  118MOL    H6733061   1.728   7.217   0.547  2.5554  0.9019  2.3441
  118MOL    H6833062   2.065   7.391   0.571 -0.0419  1.3193  2.8414
  118MOL    H6933063   1.911   7.139   0.652 -1.2543  1.3088 -0.1119
  118MOL    H7033064   1.931   7.595   0.578  0.7076  0.9949 -1.4405
  118MOL    H7133065   1.713   7.710   0.527  0.1428 -0.6413 -1.2127
  118MOL    C7233066   2.138   7.148   0.635 -0.1042  0.1883 -0.5168
  118MOL    C7333067   2.158   7.009   0.632 -0.6067  0.7042  0.3231
  118MOL    C7433068   2.285   6.947   0.653  0.2000  0.2355  0.1314
  118MOL    C7533069   2.399   7.026   0.650 -0.5080  0.2094 -0.2317
  118MOL    C7633070   2.539   6.969   0.657 -0.2148  0.7823  0.2108
  118MOL    C7733071   2.646   7.043   0.646  0.0888 -0.2728 -0.9930
  118MOL    C7833072   2.385   7.165   0.652 -0.0486 -0.4502  0.0849
  118MOL    C7933073   2.256   7.223   0.648  0.0852  0.1964  0.1324
  118MOL    H8033074   2.064   6.956   0.628  0.3456 -1.1617  1.6681
  118MOL    H8133075   2.291   6.840   0.662 -2.1096  0.1119  0.4840
  118MOL    H8233076   2.535   6.861   0.662 -0.3265  0.8635  2.2408
  118MOL    H8333077   2.649   7.150   0.629 -0.0699 -0.3556 -1.5497
  118MOL    H8433078   2.470   7.231   0.647 -0.8650  0.5972 -0.2364
  118MOL    H8533079   2.244   7.330   0.657 -2.6462  0.0779 -1.4682
  118MOL    C8633080   2.785   6.991   0.650 -0.5171 -0.0451  0.0195
  118MOL    C8733081   2.815   6.855   0.662  0.5731 -0.1965 -0.0381
  118MOL    C8833082   2.948   6.801   0.654 -0.5472  0.4035 -0.1930
  118MOL    C8933083   3.045   6.894   0.614  0.0277  0.6745 -0.3888
  118MOL    C9033084   3.176   6.856   0.567  0.5277  0.3370 -0.0451
  118MOL    C9133085   3.232   6.736   0.556  0.5384  0.1489 -0.1004
  118MOL    C9233086   3.019   7.028   0.608  0.5790 -0.3475  0.3213
  118MOL    C9333087   2.888   7.080   0.627 -0.1676 -0.3123 -0.2501
  118MOL    H9433088   2.732   6.788   0.671  0.9272 -0.6566 -0.2032
  118MOL    H9533089   2.960   6.693   0.660  0.9708  0.6205  1.0027
  118MOL    H9633090   3.241   6.930   0.522 -1.2714  0.9579 -1.7120
  118MOL    H9733091   3.181   6.645   0.588  0.9171 -0.4906 -1.2813
  118MOL    H9833092   3.090   7.100   0.568  1.8150 -0.7705  1.7144
  118MOL    H9933093   2.872   7.187   0.625 -0.1255 -0.3077 -0.3498
  118MOL   C10033094   3.365   6.694   0.497 -0.5610  0.1461 -0.2583
  118MOL   C10133095   3.466   6.791   0.460 -0.0182 -0.5072 -1.0058
  118MOL   C10233096   3.599   6.751   0.420  0.6275 -0.0741 -0.1037
  118MOL   C10333097   3.619   6.610   0.408  0.1499  0.5219  0.9834
  118MOL   C10433098   3.757   6.565   0.369 -0.3540  0.3191  0.3688
  118MOL   C10533099   3.808   6.440   0.374 -0.3244 -0.1200  0.7476
  118MOL   C10633100   3.520   6.515   0.436 -0.0373 -0.0773 -0.5442
  118MOL   C10733101   3.391   6.554   0.481 -0.2958  0.3069  0.4372
  118MOL   H10833102   3.441   6.891   0.492 -1.0374 -0.5480 -1.6769
  118MOL   H10933103   3.675   6.827   0.421  1.4933 -0.9011 -1.9562
  118MOL   H11033104   3.823   6.638   0.326 -0.7884  1.0937  0.9968
  118MOL   H11133105   3.751   6.357   0.415 -0.6822  0.2127  0.9274
  118MOL   H11233106   3.535   6.408   0.447 -2.2954 -0.2043  1.9454
  118MOL   H11333107   3.319   6.483   0.521  1.0346 -0.5714  1.3083
  118MOL   C11433108   3.940   6.385   0.332 -0.4158  0.1895 -0.1833
  118MOL   C11533109   3.971   6.249   0.354 -0.3525 -0.2344 -0.8966
  118MOL   C11633110   4.098   6.196   0.320  0.3191 -0.7714 -0.3911
  118MOL   C11733111   4.184   6.277   0.244  0.2175 -0.0332  0.3279
  118MOL   C11833112   4.321   6.233   0.195  0.4759 -0.2717  0.2020
  118MOL   C11933113   4.385   6.117   0.217 -0.4427 -0.1342  0.0213
  118MOL   C12033114   4.149   6.406   0.204 -0.1697 -0.6086  0.1361
  118MOL   C12133115   4.030   6.462   0.254 -0.9400 -0.2198 -0.9077
  118MOL   H12233116   3.906   6.183   0.410  1.8305 -2.1172 -0.5141
  118MOL   H12333117   4.127   6.095   0.343  0.4414 -0.9201 -1.1817
  118MOL   H12433118   4.364   6.308   0.130 -1.9236  2.6468  1.8554
  118MOL   H12533119   4.350   6.037   0.282 -1.6401  0.4942  0.1618
  118MOL   H12633120   4.220   6.464   0.148 -0.6595  0.0230  0.1721
  118MOL   H12733121   4.017   6.566   0.225  1.8329  0.2785 -0.4884
  118MOL   C12833122   4.520   6.076   0.165  0.3779  0.1327 -0.0116
  118MOL   C12933123   4.596   6.165   0.089  0.4606  0.0528  0.8629
  118MOL   C13033124   4.717   6.122   0.024  0.0884 -0.3253  0.2803
  118MOL   C13133125   4.768   5.995   0.057 -0.1835  0.0597 -0.1553
  118MOL   C13233126   4.891   5.952   0.000  0.7161  0.6860 -0.4514
  118MOL   C13333127   4.942   5.823   8.139 -0.6656  0.9321  0.2816
  118MOL   C13433128   4.693   5.910   0.140  0.0126 -0.4052  0.3524
  118MOL   C13533129   4.574   5.951   0.195  0.0198  0.3704 -0.7289
  118MOL   H13633130   4.554   6.259   0.058  2.9904  0.2294 -2.2960
  118MOL   H13733131   4.772   6.187   8.101 -1.6327 -1.6232 -2.4907
  118MOL   H13833132   4.946   6.039   8.111  1.7727 -0.0352 -0.6247
  118MOL   H13933133   4.877   5.742   0.022 -2.1556  0.7954 -3.3814
  118MOL   H14033134   4.731   5.815   0.175  0.4669 -0.0371  0.8665
  118MOL   H14133135   4.527   5.885   0.266  1.6237  1.5301  1.4717
  118MOL   C14233136   5.073   5.789   8.092  0.9305  0.1809  0.4225
  118MOL   C14333137   5.153   5.886   8.023 -0.0492  0.2295 -0.0961
  118MOL   C14433138   5.275   5.845   7.975  0.5730 -0.2402 -0.2569
  118MOL   C14533139   5.333   5.719   8.001  0.4489 -0.3418 -0.0096
  118MOL   C14633140   5.463   5.688   7.942 -0.6600 -0.3263  0.4323
  118MOL   C14733141   5.528   5.571   7.950 -0.1008  0.1622  0.4894
  118MOL   C14833142   5.259   5.624   8.076 -0.2218  0.7538  0.7966
  118MOL   C14933143   5.132   5.665   8.120  0.0775 -0.3410  0.3363
  118MOL   H15033144   5.112   5.979   7.987 -0.2527  0.0290 -0.3912
  118MOL   H15133145   5.332   5.911   7.910  0.6987 -1.1880 -1.1193
  118MOL   H15233146   5.518   5.767   7.894  0.8262 -1.8091 -0.3590
  118MOL   H15333147   5.483   5.498   8.016  1.0709 -1.5232 -0.5287
  118MOL   H15433148   5.287   5.522   8.100  1.1128  0.9585  0.1474
  118MOL   H15533149   5.073   5.602   0.041  0.0342  0.2081  0.8343
  118MOL   C15633150   5.648   5.535   7.865  0.2388 -0.4176  0.1424
  118MOL   C15733151   5.727   5.423   7.898  0.1337 -0.0998 -0.7901
  118MOL   C15833152   5.840   5.390   7.823  0.2236 -0.1620 -0.2391
  118MOL   C15933153   5.876   5.471   7.713  0.1576 -0.4191 -0.1432
  118MOL   C16033154   6.001   5.453   7.641  0.3016 -0.1207  0.7933
  118MOL   C16133155   6.105   5.381   7.678 -0.0481 -0.0026  0.5163
  118MOL   C16233156   5.794   5.581   7.674 -0.2891  0.4848 -0.0297
  118MOL   C16333157   5.680   5.610   7.750 -0.2695 -0.5074 -0.1455
  118MOL   H16433158   5.703   5.359   7.982  1.7475 -0.9442 -0.9611
  118MOL   H16533159   5.894   5.302   7.853  0.2303  0.2362  0.9514
  118MOL   H16633160   6.002   5.501   7.544  1.1098  1.2063  1.4409
  118MOL   H16733161   6.089   5.318   7.765 -2.8740  0.7343  0.5929
  118MOL   H16833162   5.820   5.649   7.594 -0.5160  1.0912  0.4135
  118MOL   H16933163   5.626   5.699   7.722  1.5661  1.1548  1.4375
  118MOL   C17033164   6.229   5.389   7.600  0.4543 -0.6674 -0.4641
  118MOL   C17133165   6.312   5.273   7.587  0.3923  0.3878 -0.5635
  118MOL   C17233166   6.423   5.276   7.497  0.3390 -0.2519  0.3616
  118MOL   C17333167   6.460   5.398   7.430  0.1466 -0.0519 -0.6377
  118MOL   C17433168   6.564   5.387   7.318  0.5618  0.5440  0.2451
  118MOL   C17533169   6.635   5.495   7.279 -0.3612 -0.7288 -0.1744
  118MOL   C17633170   6.380   5.509   7.454  0.6292 -0.2848 -0.0910
  118MOL   C17733171   6.276   5.509   7.547 -0.6609 -0.1887  0.0058
  118MOL   H17833172   6.268   5.184   7.630  0.1762  0.2645 -1.0392
  118MOL   H17933173   6.486   5.189   7.480  2.3853  1.7393 -2.9463
  118MOL   H18033174   6.579   5.294   7.265 -1.2609  0.6262 -0.4611
  118MOL   H18133175   6.623   5.580   7.344  0.4436 -0.8970  0.1941
  118MOL   H18233176   6.389   5.599   7.395  3.4420 -1.7969 -2.1098
  118MOL   H18333177   6.223   5.601   7.564  1.8314  1.5703 -1.2822
  118MOL   C18433178   6.714   5.517   7.157  0.6460  0.4700  0.3060
  118MOL   C18533179   6.724   5.424   7.050  0.4150  0.6380  1.1921
  118MOL   C18633180   6.793   5.461   6.931  0.2515  0.6864 -0.1716
  118MOL   C18733181   6.850   5.583   6.911 -0.3026  1.1463  0.1054
  118MOL   C18833182   6.915   5.628   6.784 -0.7800 -0.5645 -0.1407
  118MOL   C18933183   6.937   5.544   6.686  0.6296  0.4921 -0.0294
  118MOL   C19033184   6.842   5.676   7.013 -0.3657 -0.2962 -0.6132
  118MOL   C19133185   6.780   5.639   7.138  0.1470 -0.1630 -0.0495
  118MOL   H19233186   6.672   5.330   7.059 -0.2986  0.8899 -0.2787
  118MOL   H19333187   6.792   5.385   6.854 -1.6046 -0.2345  0.7378
  118MOL   H19433188   6.937   5.734   6.783 -2.2313 -0.2409 -2.2382
  118MOL   H19533189   6.913   5.439   6.689 -0.0322  0.6752  2.3086
  118MOL   H19633190   6.875   5.778   7.005  0.6629 -0.5661  0.0270
  118MOL   H19733191   6.791   5.712   7.217 -1.1196 -0.2324  0.1985
  118MOL   C19833192   7.001   5.576   6.557  0.4457  0.5416 -0.2570
  118MOL   C19933193   7.064   5.469   6.487 -0.0640  0.3356  0.2245
  118MOL   C20033194   7.136   5.494   6.368  0.4729  0.9119  0.0273
  118MOL   C20133195   7.133   5.626   6.310 -0.4335  0.4932  0.7841
  118MOL   C20233196   7.187   5.654   6.172 -0.4768  0.1592  0.4583
  118MOL   C20333197   7.251   5.576   6.080 -0.5884  0.2687  0.2458
  118MOL   C20433198   7.055   5.720   6.369  0.4807  0.3972 -0.6673
  118MOL   C20533199   6.990   5.701   6.497 -1.2725  0.3485  0.2868
  118MOL   H20633200   7.055   5.366   6.520 -1.3431 -0.1034 -1.3918
  118MOL   H20733201   7.196   5.417   6.321 -0.4510 -1.2013  2.1909
  118MOL   H20833202   7.173   5.758   6.144 -2.5391 -0.0382  0.6691
  118MOL   H20933203   7.257   5.472   6.109 -2.7364  0.3926  1.1977
  118MOL   H21033204   7.039   5.815   6.319 -0.0678  0.5081 -0.2904
  118MOL   H21133205   6.938   5.786   6.539 -1.7792  0.2320 -0.0993
  118MOL   C21233206   7.311   5.610   5.954  0.5738 -0.2027  0.3493
  118MOL   C21333207   7.423   5.542   5.912  0.2862 -0.7200  0.4379
  118MOL   C21433208   7.490   5.577   5.787  0.1337 -0.7110 -0.1050
  118MOL   C21533209   7.428   5.670   5.697 -0.6045  0.6362  0.0174
  118MOL   C21633210   7.494   5.707   5.576  0.2706  0.1946  0.3534
  118MOL   C21733211   7.446   5.785   5.475  0.6668  0.3992  0.9945
  118MOL   C21833212   7.312   5.731   5.742  0.1374 -0.2535  0.3478
  118MOL   C21933213   7.252   5.699   5.862 -0.1405  0.7871  0.9459
  118MOL   H22033214   7.472   5.476   5.983  2.4761  0.5643  0.1465
  118MOL   H22133215   7.587   5.538   5.762  0.3987 -1.0245  1.3941
  118MOL   H22233216   7.589   5.657   5.565 -0.8684 -1.5455 -2.0433
  118MOL   H22333217   7.350   5.833   5.490  1.1034  1.9325 -0.8853
  118MOL   H22433218   7.258   5.794   5.674  1.7047  1.1649  0.3998
  118MOL   H22533219   7.160   5.749   5.889  0.0455  1.0309  1.1212
  118MOL   C22633220   7.509   5.818   5.338  0.5924 -1.2885  1.0528
  118MOL   C22733221   7.458   5.927   5.259  0.4737  0.3408 -0.4980
  118MOL   C22833222   7.511   5.954   5.131  0.3093 -0.7565 -0.5496
  118MOL   C22933223   7.612   5.873   5.082  0.0676 -0.1142 -0.7159
  118MOL   C23033224   7.674   5.906   4.951 -0.7704  0.8680  0.0760
  118MOL   C23133225   7.787   5.853   4.900 -0.7661  0.2705 -0.5514
  118MOL   C23233226   7.658   5.758   5.152 -0.0240  0.4603  0.2907
  118MOL   C23333227   7.611   5.733   5.280  0.2667  0.8928 -0.1269
  118MOL   H23433228   7.371   5.975   5.301 -0.7056 -1.0715 -1.2774
  118MOL   H23533229   7.459   6.028   5.071  1.0663 -0.3296 -0.6851
  118MOL   H23633230   7.621   5.976   4.889 -1.5926  1.3542  1.3140
  118MOL   H23733231   7.856   5.792   4.955 -1.3992 -0.0587 -0.1056
  118MOL   H23833232   7.726   5.690   5.102 -0.1345  0.1616  0.5443
  118MOL   H23933233   7.647   5.646   5.332 -2.1067 -1.6849 -2.6471
  118MOL   C24033234   7.838   5.878   4.765  1.1342  0.3691  0.0755
  118MOL   C24133235   7.974   5.889   4.743 -0.8687  0.0318  0.4798
  118MOL   C24233236   8.030   5.902   4.614  0.4973 -0.5349  0.2087
  118MOL   C24333237   7.942   5.906   4.503  0.6735  0.3217  0.6095
  118MOL   C24433238   8.014   5.899   4.373  0.2593  0.1513 -0.1854
  118MOL   C24533239   7.960   5.881   4.249 -0.5190  0.3985 -0.0201
  118MOL   C24633240   7.804   5.920   4.530 -0.4957  0.0289  0.4300
  118MOL   C24733241   7.748   5.902   4.656  0.3706 -0.3867  0.0654
  118MOL   H24833242   8.038   5.861   4.824 -1.4447 -0.3045  0.8214
  118MOL   H24933243   8.136   5.900   4.592  1.1210  0.3751  3.0446
  118MOL   H25033244   8.122   5.905   4.375  0.2615  1.1607 -2.3766
  118MOL   H25133245   7.853   5.871   4.238 -0.4520  0.5723 -0.8106
  118MOL   H25233246   7.736   5.934   4.447 -0.4041  1.7561  0.6190
  118MOL   H25333247   7.642   5.911   4.675 -0.0102 -0.6025 -1.8725
  118MOL   C25433248   8.032   5.872   4.123 -0.0236  0.0775 -0.4212
  118MOL   C25533249   0.024   5.833   4.125 -0.0687  0.8039 -0.3385
  118MOL   C25633250   0.093   5.842   4.002  0.4140  0.2801 -0.5365
  118MOL   C25733251   0.036   5.880   3.882 -0.1966 -0.7138  0.2208
  118MOL   C25833252   0.101   5.880   3.755 -0.1477  0.9812  0.1686
  118MOL   C25933253   0.223   5.910   3.709  0.0236 -0.4138  0.8187
  118MOL   C26033254   8.041   5.912   3.882  0.2950  0.0742  0.1950
  118MOL   C26133255   7.967   5.905   4.004  0.2072 -0.2847 -0.2515
  118MOL   H26233256   0.075   5.793   4.211 -2.1113 -3.8179 -1.1467
  118MOL   H26333257   0.198   5.817   3.998  0.6139  1.3529 -3.5422
  118MOL   H26433258   0.033   5.833   3.686 -1.2170  1.7820  0.6599
  118MOL   H26533259   0.238   5.902   3.603 -0.7552 -2.4817  0.8487
  118MOL   H26633260   7.990   5.939   3.791 -2.0044  2.5571  2.1384
  118MOL   H26733261   7.866   5.945   3.997  0.3904  0.3830  0.7640
  118MOL   C26833262   0.342   5.962   3.779 -0.6028  0.0599  0.5285
  118MOL   C26933263   0.335   6.030   3.903  0.1060  0.5298  0.2546
  118MOL   C27033264   0.450   6.083   3.967 -0.1684  0.1535  0.2144
  118MOL   C27133265   0.576   6.054   3.909 -0.4317  0.0536  0.7877
  118MOL   C27233266   0.695   6.092   3.981  0.0783  0.1419  0.2652
  118MOL   C27333267   0.821   6.068   3.937  0.7372 -0.4890  0.8323
  118MOL   C27433268   0.583   5.987   3.778  0.2478  0.9874 -0.0888
  118MOL   C27533269   0.466   5.944   3.710 -0.2881  0.3475 -0.0579
  118MOL   H27633270   0.234   6.044   3.939  0.0463 -2.1605  1.1970
  118MOL   H27733271   0.451   6.143   4.056 -1.2386  0.2528  0.1759
  118MOL   H27833272   0.677   6.145   4.074 -0.6642  0.6090 -0.1434
  118MOL   H27933273   0.845   6.011   3.848 -0.7388  1.3656 -0.7979
  118MOL   H28033274   0.683   5.975   3.739  0.7305  0.6499  1.2292
  118MOL   H28133275   0.471   5.902   3.611  2.0428  0.4289 -0.0112
  118MOL   H28233276   0.907   6.101   3.993  0.7373  0.8204  0.0660
  119MOL     C133277   1.438   0.059   3.452  0.2997 -0.3422  0.0729
  119MOL     C233278   1.530   0.088   3.555 -0.0082  0.0941  0.3672
  119MOL     C333279   1.655   0.016   3.546 -0.2599  0.2762  0.7190
  119MOL     C433280   1.687   8.085   3.431  0.3210 -0.4543 -0.0273
  119MOL     C533281   1.807   8.006   3.423 -1.0276  0.3493  0.1883
  119MOL     C633282   1.890   7.973   3.521  0.0175 -0.1692  0.4294
  119MOL     C733283   1.593   8.071   3.326  0.3393  0.0504  0.0738
  119MOL     C833284   1.469   8.122   3.345 -0.2437  0.4564  0.7126
  119MOL     H933285   1.522   0.149   3.644  2.1879  1.8903 -0.5880
  119MOL    H1033286   1.729   0.024   3.624  0.4550  0.2481  0.0446
  119MOL    H1133287   1.828   7.955   3.330 -0.9731  0.4076  0.1696
  119MOL    H1233288   1.866   8.016   3.617 -0.5930 -1.4886  0.8742
  119MOL    H1333289   1.629   8.009   3.245  1.7184  0.1417  0.6041
  119MOL    H1433290   1.403   8.101   3.262  0.8164 -1.0886  0.2506
  119MOL    H1533291   1.332   0.083   3.458  0.3810  0.2977 -0.8573
  119MOL    C1633292   2.008   7.886   3.506 -0.2881 -0.6179  0.0182
  119MOL    C1733293   2.069   7.849   3.385 -0.4033 -1.3496  0.0148
  119MOL    C1833294   2.186   7.765   3.380  1.1091  0.0291  0.5250
  119MOL    C1933295   2.240   7.721   3.501 -0.7175  0.2865  0.3926
  119MOL    C2033296   2.376   7.650   3.485  0.7181  0.5430  0.0878
  119MOL    C2133297   2.452   7.597   3.583  0.3374 -0.1240  0.4086
  119MOL    C2233298   2.170   7.742   3.620  0.1271  0.0174 -0.0439
  119MOL    C2333299   2.058   7.829   3.620 -1.0429 -0.3440 -0.1698
  119MOL    H2433300   2.026   7.887   3.293 -3.0677 -0.1760  1.6670
  119MOL    H2533301   2.226   7.734   3.284 -1.0323  0.9388 -0.7017
  119MOL    H2633302   2.414   7.649   3.383 -0.3410  0.0756 -0.3161
  119MOL    H2733303   2.408   7.613   3.681  0.9007  1.1282  0.4675
  119MOL    H2833304   2.211   7.702   3.713  1.9253  2.0326  0.0592
  119MOL    H2933305   2.001   7.860   3.706  1.0987  3.4737 -0.0096
  119MOL    C3033306   2.583   7.523   3.565 -0.2822  0.4797  0.1361
  119MOL    C3133307   2.662   7.517   3.442 -0.5868  0.0470 -0.9511
  119MOL    C3233308   2.784   7.446   3.432  0.9440 -0.2804  0.4907
  119MOL    C3333309   2.832   7.380   3.546  0.1349 -0.2256 -0.0450
  119MOL    C3433310   2.959   7.308   3.541  0.0524  0.4677  0.0364
  119MOL    C3533311   3.046   7.297   3.440 -0.5725 -0.5427 -0.2748
  119MOL    C3633312   2.760   7.395   3.670 -0.1024 -1.1128  0.2483
  119MOL    C3733313   2.640   7.465   3.681  0.4031  0.1566  0.4224
  119MOL    H3833314   2.617   7.562   3.355 -5.3038 -0.1849  1.1998
  119MOL    H3933315   2.832   7.438   3.335  0.6937  0.1911  0.3265
  119MOL    H4033316   2.981   7.257   3.634 -1.4198 -0.2435  0.0073
  119MOL    H4133317   3.024   7.358   3.354 -4.2391  1.6592  2.0815
  119MOL    H4233318   2.794   7.351   3.762 -0.6969  0.7011  1.3659
  119MOL    H4333319   2.591   7.460   3.777 -1.8345 -0.1109 -0.6813
  119MOL    C4433320   3.176   7.226   3.438 -0.0618  0.4566  0.4007
  119MOL    C4533321   3.254   7.222   3.322 -0.4829  0.2442  0.2603
  119MOL    C4633322   3.373   7.151   3.320  0.2744 -0.0100 -0.2296
  119MOL    C4733323   3.414   7.072   3.429  0.2477  0.0629  0.0324
  119MOL    C4833324   3.549   7.010   3.422  0.5692 -0.9207 -0.4651
  119MOL    C4933325   3.605   6.946   3.530  0.0262  0.2361  0.3821
  119MOL    C5033326   3.334   7.073   3.541 -0.0599 -0.1587 -0.3423
  119MOL    C5133327   3.218   7.144   3.546  0.4259  0.0751 -0.6439
  119MOL    H5233328   3.236   7.273   3.229 -1.6846  2.3053  1.5894
  119MOL    H5333329   3.423   7.161   3.225  0.6042  0.7726  0.0236
  119MOL    H5433330   3.602   7.021   3.328 -0.1747 -1.1733 -0.9197
  119MOL    H5533331   3.545   6.937   3.620 -0.7218 -2.8693 -0.3517
  119MOL    H5633332   3.353   7.010   3.626  0.8690 -0.7326 -0.9623
  119MOL    H5733333   3.163   7.126   3.637 -1.5582  0.4537 -1.7363
  119MOL    C5833334   3.737   6.883   3.543  0.4149 -0.7935  0.6045
  119MOL    C5933335   3.786   6.847   3.666 -0.4686 -0.5045 -0.3510
  119MOL    C6033336   3.917   6.794   3.673  0.5901  0.3111 -0.0982
  119MOL    C6133337   3.997   6.771   3.562  0.3724 -0.2753 -0.2534
  119MOL    C6233338   4.140   6.724   3.570 -0.1248  0.3598 -0.1997
  119MOL    C6333339   4.197   6.671   3.675 -0.3034 -0.4993  0.2948
  119MOL    C6433340   3.943   6.805   3.441 -0.1299  0.3588 -0.1180
  119MOL    C6533341   3.811   6.864   3.428  0.5563  0.7824  0.2050
  119MOL    H6633342   3.732   6.872   3.756  2.3169  0.5367  1.0993
  119MOL    H6733343   3.952   6.787   3.775 -0.0686 -0.1635  0.1023
  119MOL    H6833344   4.201   6.733   3.482  2.2543 -0.9081  1.2823
  119MOL    H6933345   4.144   6.671   3.770 -0.4648 -1.3786  0.2144
  119MOL    H7033346   3.997   6.797   3.348 -2.0767  0.5589 -1.2970
  119MOL    H7133347   3.767   6.883   3.330  0.5638  1.2603  0.2927
  119MOL    C7233348   4.331   6.611   3.679  0.1840 -0.2397  0.4926
  119MOL    C7333349   4.405   6.601   3.557  0.5227 -0.0969  0.1645
  119MOL    C7433350   4.533   6.545   3.570  0.3698  0.6221 -0.3896
  119MOL    C7533351   4.588   6.495   3.686  0.2940  0.5115  0.2591
  119MOL    C7633352   4.722   6.439   3.675 -0.1412  0.0679  1.5050
  119MOL    C7733353   4.798   6.381   3.769 -0.2926 -0.5060 -0.3836
  119MOL    C7833354   4.516   6.512   3.811 -0.5009  0.2667  0.2946
  119MOL    C7933355   4.386   6.566   3.804  0.0776  0.7854 -0.0304
  119MOL    H8033356   4.372   6.640   3.462 -1.0925  1.4964  1.3402
  119MOL    H8133357   4.595   6.540   3.481 -0.7292  0.4185 -1.1466
  119MOL    H8233358   4.771   6.438   3.579  1.5024 -0.4085  2.3335
  119MOL    H8333359   4.748   6.385   3.865 -1.6938  1.8168 -1.1543
  119MOL    H8433360   4.560   6.494   3.908  1.2630  1.4182 -0.2640
  119MOL    H8533361   4.327   6.576   3.894  1.7859  1.1027  1.0609
  119MOL    C8633362   4.935   6.331   3.757 -0.7827  0.0530 -0.1984
  119MOL    C8733363   5.019   6.354   3.649  0.2973  0.4883 -0.1097
  119MOL    C8833364   5.149   6.305   3.647 -0.1123 -0.2406  0.2236
  119MOL    C8933365   5.210   6.253   3.765  0.1786 -0.1479  0.6039
  119MOL    C9033366   5.354   6.216   3.765  0.6643 -0.2299  0.5699
  119MOL    C9133367   5.421   6.161   3.865 -0.6048  0.0646 -0.0816
  119MOL    C9233368   5.126   6.230   3.871  0.0036  0.0520 -0.2151
  119MOL    C9333369   4.987   6.252   3.866 -0.2087 -0.4187 -0.2899
  119MOL    H9433370   4.985   6.394   3.555  0.6839  0.0993 -0.4172
  119MOL    H9533371   5.209   6.318   3.558 -0.0911 -0.0021  0.2721
  119MOL    H9633372   5.406   6.234   3.672  0.3740  0.5834  0.5615
  119MOL    H9733373   5.383   6.141   3.964 -0.0798 -1.0598 -0.0937
  119MOL    H9833374   5.165   6.185   3.962 -0.0312 -0.5613 -0.4964
  119MOL    H9933375   4.925   6.233   3.952  1.8803 -0.4430  1.2472
  119MOL   C10033376   5.556   6.102   3.851  0.5994 -0.5857 -0.3303
  119MOL   C10133377   5.625   6.052   3.966  0.4675  0.6021 -0.0412
  119MOL   C10233378   5.760   6.011   3.951  0.3650  0.2501 -0.2134
  119MOL   C10333379   5.827   6.005   3.828 -0.5274 -0.4077  0.1529
  119MOL   C10433380   5.967   5.969   3.823  0.1451 -0.0064  0.5233
  119MOL   C10533381   6.046   5.964   3.717 -0.0938 -0.0560  0.2662
  119MOL   C10633382   5.750   6.042   3.718  0.4878  0.1738 -0.1099
  119MOL   C10733383   5.618   6.090   3.722  0.6157 -0.1855  0.6575
  119MOL   H10833384   5.590   6.060   4.068  1.1729  1.0576  0.1624
  119MOL   H10933385   5.817   5.979   4.037  0.0242  1.5725  0.5248
  119MOL   H11033386   6.015   5.951   3.919  0.0561  0.7132  0.7022
  119MOL   H11133387   6.004   6.004   3.625  0.2630  0.3403  0.2768
  119MOL   H11233388   5.791   6.032   3.619  0.2913 -0.9672 -0.0855
  119MOL   H11333389   5.574   6.123   3.629  1.6342  0.6542  0.4654
  119MOL   C11433390   6.192   5.926   3.715  0.0646 -0.3622  0.1318
  119MOL   C11533391   6.260   5.941   3.595 -0.1186 -0.2407 -0.2849
  119MOL   C11633392   6.397   5.922   3.593 -0.2768  0.7562  0.2287
  119MOL   C11733393   6.464   5.860   3.702 -0.2109 -0.3157 -0.0372
  119MOL   C11833394   6.608   5.829   3.688 -0.2035  0.1785  0.7144
  119MOL   C11933395   6.675   5.737   3.755 -0.2770  0.3502 -0.8444
  119MOL   C12033396   6.393   5.830   3.816 -1.3344  0.1749 -0.6835
  119MOL   C12133397   6.259   5.869   3.824 -0.4099 -0.3611 -0.3576
  119MOL   H12233398   6.210   5.994   3.516  1.3805 -0.3106 -1.3132
  119MOL   H12333399   6.453   5.949   3.505 -0.9827  1.2408 -0.0795
  119MOL   H12433400   6.661   5.887   3.614 -0.5548  0.5568  0.7585
  119MOL   H12533401   6.621   5.679   3.829 -0.8728  0.3618 -1.2611
  119MOL   H12633402   6.434   5.781   3.903  1.4609  2.1114 -0.8489
  119MOL   H12733403   6.207   5.837   3.914 -1.0696  0.7035 -0.3453
  119MOL   C12833404   6.815   5.715   3.746 -0.5060  0.2109 -0.4980
  119MOL   C12933405   6.864   5.606   3.818  0.0084 -0.0762  0.7773
  119MOL   C13033406   7.000   5.569   3.823 -0.2171 -0.5565 -0.6592
  119MOL   C13133407   7.089   5.661   3.767  0.6042 -0.6782 -0.0352
  119MOL   C13233408   7.232   5.652   3.783  0.0338 -0.1277  0.6670
  119MOL   C13333409   7.296   5.558   3.858  1.0400  0.0683  0.0907
  119MOL   C13433410   7.043   5.773   3.691  0.3818 -0.2918 -0.4101
  119MOL   C13533411   6.907   5.795   3.679  0.2965  0.1535  0.6014
  119MOL   H13633412   6.788   5.551   3.872  1.1415 -0.4587  2.0038
  119MOL   H13733413   7.044   5.484   3.874  1.7112  0.4207 -0.6143
  119MOL   H13833414   7.291   5.720   3.722 -1.4919  0.4214 -0.2256
  119MOL   H13933415   7.240   5.494   3.925 -1.2028  0.8583 -0.9826
  119MOL   H14033416   7.115   5.838   3.644  1.3599 -1.7881 -1.0091
  119MOL   H14133417   6.883   5.879   3.616 -0.1375  0.4930  1.2247
  119MOL   C14233418   7.439   5.523   3.867 -0.1184  0.7254  0.6468
  119MOL   C14333419   7.530   5.559   3.769  0.6903  0.1833  0.6724
  119MOL   C14433420   7.665   5.524   3.783 -0.4961 -0.4293  0.1445
  119MOL   C14533421   7.707   5.451   3.898 -0.3097  0.5992 -0.4334
  119MOL   C14633422   7.846   5.397   3.919 -0.2207  0.9394 -0.5798
  119MOL   C14733423   7.952   5.434   3.849 -0.0688 -0.2560 -0.1397
  119MOL   C14833424   7.616   5.410   3.993 -0.1082 -0.3239 -0.6817
  119MOL   C14933425   7.484   5.447   3.978  0.0652  1.2832 -0.5253
  119MOL   H15033426   7.500   5.615   3.681  1.5257 -0.3528  0.0442
  119MOL   H15133427   7.732   5.560   3.706  0.5533  0.4557  1.4450
  119MOL   H15233428   7.857   5.329   4.002  2.8565 -0.3275 -1.9665
  119MOL   H15333429   7.936   5.512   3.776 -0.6702  0.6194  0.9187
  119MOL   H15433430   7.644   5.350   4.078 -0.3354 -0.4736 -0.7142
  119MOL   H15533431   7.418   5.414   4.058  2.2913 -0.3768  0.6608
  119MOL   C15633432   8.097   5.392   3.864  0.5630 -0.2873 -0.2335
  119MOL   C15733433   0.004   5.347   3.991 -0.3770 -0.3740  0.1885
  119MOL   C15833434   0.139   5.323   4.006  0.2920 -0.3910  0.0093
  119MOL   C15933435   0.226   5.334   3.893  0.0201 -0.2065  0.2821
  119MOL   C16033436   0.377   5.300   3.900 -0.3847  0.5183  0.1517
  119MOL   C16133437   0.446   5.276   4.016 -0.6956  0.4144  0.1661
  119MOL   C16233438   0.175   5.371   3.766  0.0085 -0.2757  0.4799
  119MOL   C16333439   0.042   5.401   3.749  0.2152 -0.0428 -0.5897
  119MOL   H16433440   8.079   5.339   4.074 -0.3136 -2.4639  0.0592
  119MOL   H16533441   0.163   5.293   4.107 -1.1559 -3.9136 -0.5938
  119MOL   H16633442   0.427   5.306   3.804 -0.9979  3.1017 -0.0338
  119MOL   H16733443   0.395   5.275   4.111 -1.2281  2.4494 -0.0736
  119MOL   H16833444   0.247   5.382   3.685 -1.4753 -0.4373 -0.8861
  119MOL   H16933445   0.002   5.434   3.654  0.4697 -1.4813 -1.1976
  119MOL   C17033446   0.588   5.266   4.039  0.8519 -0.5830  0.5670
  119MOL   C17133447   0.682   5.267   3.940  0.0508  1.0480 -0.1165
  119MOL   C17233448   0.818   5.240   3.975  1.0680 -0.0282 -0.0046
  119MOL   C17333449   0.863   5.237   4.109  0.7365  0.0236  0.3600
  119MOL   C17433450   1.001   5.208   4.131  0.3048 -0.4732 -0.2882
  119MOL   C17533451   1.061   5.207   4.253  0.5340 -0.2794 -0.2482
  119MOL   C17633452   0.763   5.259   4.209 -0.2353  0.4218  0.1675
  119MOL   C17733453   0.631   5.272   4.174 -0.0556 -0.2749  0.3172
  119MOL   H17833454   0.664   5.271   3.834  0.3114 -1.2904 -0.2721
  119MOL   H17933455   0.891   5.217   3.899 -0.0204 -0.5158 -0.9221
  119MOL   H18033456   1.057   5.191   4.040  0.4859 -0.2869 -0.2090
  119MOL   H18133457   0.997   5.228   4.339  0.5206  0.3051 -0.3948
  119MOL   H18233458   0.793   5.254   4.313  2.1687  1.7662 -0.4491
  119MOL   H18333459   0.557   5.281   4.252  0.3537  0.2706  0.6472
  119MOL   C18433460   1.200   5.179   4.280  0.4910  0.4028 -1.1063
  119MOL   C18533461   1.254   5.220   4.408  0.1965 -0.1032  0.7243
  119MOL   C18633462   1.380   5.178   4.449 -0.3648 -0.2555 -0.5622
  119MOL   C18733463   1.459   5.098   4.361  0.1521 -0.4974  0.2302
  119MOL   C18833464   1.594   5.060   4.404 -0.2065  0.3729  1.0298
  119MOL   C18933465   1.669   5.134   4.490  0.4760 -1.0689  0.6078
  119MOL   C19033466   1.413   5.070   4.234 -0.1736  0.4537 -0.9829
  119MOL   C19133467   1.283   5.113   4.186 -1.0120 -0.3426  0.7040
  119MOL   H19233468   1.185   5.270   4.475 -0.0799  0.3494  0.1132
  119MOL   H19333469   1.417   5.195   4.549 -2.4365 -1.0953  0.3835
  119MOL   H19433470   1.626   4.965   4.362 -2.1141 -0.4053  1.2962
  119MOL   H19533471   1.635   5.230   4.525  0.6619 -0.0906 -1.8043
  119MOL   H19633472   1.467   4.997   4.175 -0.3816  0.3779 -1.0808
  119MOL   H19733473   1.241   5.080   4.092 -2.2904  1.1688  0.7127
  119MOL   C19833474   1.803   5.093   4.541 -0.1586  0.8775 -0.2088
  119MOL   C19933475   1.870   4.981   4.487  0.4023  0.0185 -0.1608
  119MOL   C20033476   2.004   4.959   4.537  0.3291 -0.7137 -0.0079
  119MOL   C20133477   2.058   5.031   4.643  0.5601  0.1044 -0.0736
  119MOL   C20233478   2.197   4.997   4.684  0.4204 -0.5750 -0.4607
  119MOL   C20333479   2.255   5.055   4.788  0.1195  0.2645 -0.3412
  119MOL   C20433480   1.985   5.140   4.696  0.5262  0.5167  0.2000
  119MOL   C20533481   1.855   5.167   4.647  0.0679  0.3892 -0.1947
  119MOL   H20633482   1.848   4.933   4.393 -0.7394  0.5218 -0.1530
  119MOL   H20733483   2.070   4.890   4.486  1.5660  1.5605 -1.6000
  119MOL   H20833484   2.248   4.914   4.637  2.1562 -0.7317  1.6313
  119MOL   H20933485   2.197   5.123   4.849 -0.9365 -1.8248  1.0913
  119MOL   H21033486   2.029   5.185   4.784 -1.3068 -2.4047  2.6863
  119MOL   H21133487   1.792   5.246   4.686  0.5561  1.1537 -0.9335
  119MOL   C21233488   2.395   5.031   4.832 -0.2630  0.0711 -0.1863
  119MOL   C21333489   2.475   5.136   4.883  0.0571 -0.7382  0.1717
  119MOL   C21433490   2.610   5.115   4.929 -0.4171 -0.2862  0.6871
  119MOL   C21533491   2.664   4.986   4.929  0.0376 -0.0748  0.4724
  119MOL   C21633492   2.806   4.960   4.974  0.6674 -0.7271  0.0372
  119MOL   C21733493   2.889   5.048   5.034 -0.1413  0.4839 -0.1231
  119MOL   C21833494   2.583   4.885   4.876 -0.0257 -0.2148  0.2873
  119MOL   C21933495   2.454   4.907   4.830  0.3394 -0.3422  0.0176
  119MOL   H22033496   2.435   5.237   4.887 -1.4051 -1.3669  2.1018
  119MOL   H22133497   2.672   5.197   4.961 -0.5361  0.1976 -0.3101
  119MOL   H22233498   2.851   4.862   4.968  2.1983 -0.1308  1.3066
  119MOL   H22333499   2.861   5.149   5.059  1.9220  1.0669 -0.1015
  119MOL   H22433500   2.621   4.786   4.856 -0.5297 -0.5173  0.8316
  119MOL   H22533501   2.406   4.823   4.781 -0.3886 -0.6336  1.2148
  119MOL   C22633502   3.028   5.023   5.073  0.5677  0.3255  0.1855
  119MOL   C22733503   3.107   4.931   5.004 -0.2126 -0.2597 -0.4542
  119MOL   C22833504   3.246   4.912   5.035 -0.7377 -0.8200  0.2471
  119MOL   C22933505   3.293   4.974   5.160  0.1348  0.1224  0.2816
  119MOL   C23033506   3.429   4.967   5.207  0.2608  0.1408 -0.4619
  119MOL   C23133507   3.525   4.936   5.120 -0.1049 -0.5697  0.4684
  119MOL   C23233508   3.206   5.049   5.234  0.0626  0.1560  0.6406
  119MOL   C23333509   3.079   5.086   5.191  0.0883 -0.7593  0.3492
  119MOL   H23433510   3.061   4.871   4.926  1.7892 -1.0777 -1.0445
  119MOL   H23533511   3.306   4.850   4.970 -1.5205 -0.9005 -0.3941
  119MOL   H23633512   3.444   4.997   5.310 -0.4178  1.7241 -0.7981
  119MOL   H23733513   3.509   4.911   5.016  1.4199  1.0011 -0.1653
  119MOL   H23833514   3.249   5.087   5.326  0.6133  0.6789  0.1774
  119MOL   H23933515   3.011   5.156   5.236 -1.2487 -1.5874 -0.3636
  119MOL   C24033516   3.669   4.929   5.151 -0.2842 -0.0483 -0.1598
  119MOL   C24133517   3.717   4.959   5.278 -0.5074 -0.8515 -0.3420
  119MOL   C24233518   3.857   4.946   5.299  0.0548  0.8290 -0.1454
  119MOL   C24333519   3.947   4.923   5.193  0.2303 -0.4640 -0.1825
  119MOL   C24433520   4.089   4.930   5.218 -0.6885  0.4150  0.0242
  119MOL   C24533521   4.188   4.944   5.132  0.7619 -0.4588  0.2428
  119MOL   C24633522   3.890   4.898   5.066  0.6906  0.1246 -0.2698
  119MOL   C24733523   3.752   4.904   5.042 -0.2242 -0.3847 -0.0044
  119MOL   H24833524   3.658   4.984   5.365  2.1403 -1.9115  1.8647
  119MOL   H24933525   3.894   4.958   5.400 -0.7036 -0.5419  0.3076
  119MOL   H25033526   4.111   4.914   5.322  0.2415  1.6197  0.0293
  119MOL   H25133527   4.165   4.965   5.028 -0.2936  0.9889  0.7511
  119MOL   H25233528   3.951   4.867   4.982 -0.0244 -0.9643 -0.3962
  119MOL   H25333529   3.723   4.880   4.941  1.4975  0.5421 -0.7457
  119MOL   C25433530   4.333   4.934   5.168 -0.0636 -0.6887 -0.4071
  119MOL   C25533531   4.373   4.866   5.285  0.0378  0.5689 -0.0534
  119MOL   C25633532   4.511   4.857   5.317  1.2319 -0.7186 -0.4106
  119MOL   C25733533   4.606   4.913   5.228 -0.6931 -0.3565  0.3696
  119MOL   C25833534   4.748   4.893   5.263 -0.5197  0.4263  0.2610
  119MOL   C25933535   4.842   4.814   5.207 -0.1696  0.3136 -0.7742
  119MOL   C26033536   4.565   4.984   5.110 -0.0048  0.1542  0.4492
  119MOL   C26133537   4.428   4.996   5.081 -0.1894  0.2378 -0.4479
  119MOL   H26233538   4.300   4.816   5.346  1.3374 -0.0809  0.9942
  119MOL   H26333539   4.542   4.806   5.407 -0.1121  1.1624  1.1558
  119MOL   H26433540   4.789   4.951   5.344 -1.6688 -0.7648  1.7413
  119MOL   H26533541   4.946   4.816   5.237  0.0867 -2.0834 -1.3803
  119MOL   H26633542   4.630   5.028   5.036 -3.6337  0.1653 -2.9642
  119MOL   H26733543   4.390   5.060   5.002 -0.2060  0.2625 -0.4199
  119MOL   C26833544   4.826   4.719   5.099 -0.3591 -0.5101  0.1315
  119MOL   C26933545   4.935   4.699   5.014  0.0590 -0.1740  0.1010
  119MOL   C27033546   4.925   4.612   4.905  1.2571  0.5317 -0.5973
  119MOL   C27133547   4.801   4.550   4.874  0.0861  0.8537 -0.1801
  119MOL   C27233548   4.802   4.453   4.761 -0.1800 -0.0146  0.0353
  119MOL   C27333549   4.692   4.429   4.687 -0.3941 -0.1403 -0.6448
  119MOL   C27433550   4.689   4.571   4.966  0.3394  0.2731  0.1255
  119MOL   C27533551   4.703   4.657   5.073 -0.0007  0.8231 -0.0431
  119MOL   H27633552   5.031   4.749   5.020  0.7941 -1.4126 -1.0806
  119MOL   H27733553   5.010   4.594   4.840 -0.8405 -1.6358 -2.8266
  119MOL   H27833554   4.891   4.398   4.735  1.1542  2.1810 -0.2194
  119MOL   H27933555   4.593   4.466   4.712  0.6781  2.2308  0.2329
  119MOL   H28033556   4.595   4.523   4.945  0.8497  0.2091 -2.0462
  119MOL   H28133557   4.623   4.687   5.139 -0.5904  2.6183 -1.5179
  119MOL   H28233558   4.705   4.360   4.605  3.8678 -2.0607  1.4725
  120MOL     C133559   6.337   5.759   1.381 -0.1884 -0.1212  0.3334
  120MOL     C233560   6.446   5.770   1.299 -0.3425  0.3513  0.4039
  120MOL     C333561   6.427   5.789   1.162  0.1538  0.4566 -0.2883
  120MOL     C433562   6.302   5.809   1.103  0.6941 -0.5012  0.1777
  120MOL     C533563   6.288   5.820   0.966  0.2419 -0.3163  0.1539
  120MOL     C633564   6.352   5.741   0.880  0.4628  0.8701  0.1145
  120MOL     C733565   6.189   5.799   1.188  0.0155  0.4881  0.4982
  120MOL     C833566   6.207   5.765   1.324 -0.2664  0.0972 -0.2830
  120MOL     H933567   6.545   5.771   1.342 -0.4197  0.5867  0.5772
  120MOL    H1033568   6.512   5.793   1.096  1.6362 -2.0947  1.3623
  120MOL    H1133569   6.222   5.899   0.932 -0.0269 -0.3927  0.4978
  120MOL    H1233570   6.422   5.668   0.917  1.3806  1.0838 -1.1525
  120MOL    H1333571   6.090   5.801   1.145  0.9128  0.3716 -1.6417
  120MOL    H1433572   6.124   5.770   1.393 -0.1618  2.2542 -0.2610
  120MOL    H1533573   6.349   5.741   1.486 -0.8846  0.4597  0.5184
  120MOL    C1633574   6.336   5.742   0.726 -0.6160  0.5656  0.2566
  120MOL    C1733575   6.265   5.845   0.664 -0.5814 -0.1871 -0.6143
  120MOL    C1833576   6.285   5.865   0.529 -0.3428  0.4777 -0.1994
  120MOL    C1933577   6.355   5.773   0.443 -0.1975 -0.4058  0.4625
  120MOL    C2033578   6.372   5.791   0.300 -0.3187  0.0559  0.3526
  120MOL    C2133579   6.313   5.881   0.223  0.5335 -0.0258  0.0232
  120MOL    C2233580   6.421   5.665   0.507  0.1450 -0.6950  0.1729
  120MOL    C2333581   6.411   5.653   0.648 -0.3568 -0.1864  0.3251
  120MOL    H2433582   6.207   5.917   0.720  0.0614  0.3288 -0.6044
  120MOL    H2533583   6.235   5.950   0.484 -0.7924  0.7130  0.7227
  120MOL    H2633584   6.440   5.723   0.251  0.4856 -0.1883  1.7850
  120MOL    H2733585   6.250   5.949   0.278 -0.7988 -2.4921  1.6910
  120MOL    H2833586   6.491   5.598   0.458  1.9685  0.7599  0.7505
  120MOL    H2933587   6.476   5.580   0.696 -0.5155  0.7584  2.0234
  120MOL    C3033588   6.329   5.888   0.075 -0.4448 -0.0894  0.6079
  120MOL    C3133589   6.263   5.983   8.142  1.6725  0.3337  0.6395
  120MOL    C3233590   6.257   5.992   7.999  0.4893 -0.4530 -0.3428
  120MOL    C3333591   6.327   5.897   7.928 -0.2295  0.4489 -0.1174
  120MOL    C3433592   6.320   5.886   7.785 -0.5041 -0.7962 -0.6127
  120MOL    C3533593   6.291   5.990   7.708 -0.4951 -0.2527  0.0541
  120MOL    C3633594   6.407   5.801   8.000  0.6693 -0.6275  0.1325
  120MOL    C3733595   6.416   5.798   8.142  0.3131  0.2317  0.8110
  120MOL    H3833596   6.201   6.056   0.047  0.7757 -0.9821  1.5041
  120MOL    H3933597   6.192   6.060   7.946 -1.1714 -1.1603  0.7434
  120MOL    H4033598   6.329   5.792   7.734  1.4384 -0.5359 -0.7868
  120MOL    H4133599   6.278   6.087   7.752 -1.2053 -0.5116  0.4083
  120MOL    H4233600   6.457   5.720   7.949 -0.5927 -0.9102 -0.7000
  120MOL    H4333601   6.463   5.711   0.041 -0.4982  1.2536  3.8774
  120MOL    C4433602   6.298   5.986   7.561 -0.2498 -0.2798 -0.5439
  120MOL    C4533603   6.209   6.069   7.486 -0.0439 -0.0997  0.5896
  120MOL    C4633604   6.215   6.062   7.343 -0.6319  0.5056 -0.3218
  120MOL    C4733605   6.307   5.983   7.273  0.3722  0.4138 -0.4383
  120MOL    C4833606   6.320   5.986   7.126  0.0050  0.5682 -0.1612
  120MOL    C4933607   6.411   5.918   7.052 -1.0421 -0.0307 -0.1505
  120MOL    C5033608   6.381   5.897   7.357  0.2360 -0.3850 -0.2683
  120MOL    C5133609   6.376   5.893   7.495 -0.8934 -0.0437 -0.1154
  120MOL    H5233610   6.137   6.131   7.539 -0.3351  0.2515 -0.2142
  120MOL    H5333611   6.157   6.127   7.280 -1.4360 -0.1818 -0.2968
  120MOL    H5433612   6.257   6.047   7.062  1.9831  1.4135 -1.3517
  120MOL    H5533613   6.476   5.849   7.104 -2.5213 -2.2082 -1.1420
  120MOL    H5633614   6.452   5.825   7.318  0.7103  1.1296 -2.3166
  120MOL    H5733615   6.441   5.824   7.546 -0.8870 -1.1725 -1.6263
  120MOL    C5833616   6.435   5.929   6.912 -0.4929  0.1540 -0.2691
  120MOL    C5933617   6.392   6.037   6.833  0.7674  0.0332  0.5392
  120MOL    C6033618   6.417   6.036   6.697 -0.6107 -0.0357  0.2592
  120MOL    C6133619   6.483   5.929   6.634 -0.2166 -0.9982  0.1594
  120MOL    C6233620   6.522   5.943   6.488  0.3459  0.0334 -0.6821
  120MOL    C6333621   6.618   5.874   6.430  0.1901  0.1642 -0.1350
  120MOL    C6433622   6.541   5.831   6.714 -0.2971  0.0873 -0.5250
  120MOL    C6533623   6.517   5.833   6.848 -0.5957  0.7699 -0.5933
  120MOL    H6633624   6.325   6.111   6.875 -0.3221 -1.1188  0.8513
  120MOL    H6733625   6.375   6.115   6.637  0.8764 -1.5220 -2.9213
  120MOL    H6833626   6.471   6.022   6.436  0.2357  1.1510  1.0532
  120MOL    H6933627   6.685   5.807   6.482 -0.2226 -0.7283 -0.7484
  120MOL    H7033628   6.594   5.744   6.680 -1.3828 -0.6320 -0.3809
  120MOL    H7133629   6.548   5.747   6.905  0.2172  0.8226 -0.9507
  120MOL    C7233630   6.649   5.876   6.288 -0.7296 -0.3115 -0.4755
  120MOL    C7333631   6.610   5.976   6.196  0.0728  0.5002  0.2404
  120MOL    C7433632   6.657   5.975   6.064 -0.1920 -0.3887 -0.0270
  120MOL    C7533633   6.733   5.870   6.019 -0.7587 -0.6460  0.2818
  120MOL    C7633634   6.776   5.877   5.880 -0.0112 -0.3114 -0.2938
  120MOL    C7733635   6.863   5.793   5.822  0.1750 -1.0032  0.1626
  120MOL    C7833636   6.767   5.763   6.101  1.0873 -0.1682  0.8628
  120MOL    C7933637   6.724   5.774   6.240 -0.2889  0.2656 -0.5435
  120MOL    H8033638   6.550   6.061   6.226 -0.5309 -0.4141  1.6707
  120MOL    H8133639   6.650   6.065   6.005 -0.6696 -0.0609  0.5189
  120MOL    H8233640   6.739   5.958   5.819  1.1113  1.2864  1.1037
  120MOL    H8333641   6.905   5.704   5.868 -0.9827 -0.7143  1.8132
  120MOL    H8433642   6.819   5.676   6.066 -0.7018 -1.0494  0.3577
  120MOL    H8533643   6.763   5.700   6.309 -0.5275  1.1885  0.5953
  120MOL    C8633644   6.921   5.813   5.682  0.3129  0.6068 -0.0388
  120MOL    C8733645   7.004   5.717   5.628 -0.6413  0.4433  0.5995
  120MOL    C8833646   7.064   5.732   5.502 -0.0003  0.8223  0.4188
  120MOL    C8933647   7.038   5.847   5.428 -0.5772 -0.1701  0.6151
  120MOL    C9033648   7.089   5.862   5.291  0.1773 -0.6766 -0.7645
  120MOL    C9133649   7.163   5.778   5.225  0.3484 -0.4438 -0.0979
  120MOL    C9233650   6.947   5.946   5.476 -1.0756 -0.8490 -0.2209
  120MOL    C9333651   6.895   5.931   5.609 -0.6284  0.0721  0.0905
  120MOL    H9433652   7.036   5.634   5.690  1.0777  1.2169  0.7752
  120MOL    H9533653   7.139   5.660   5.475 -0.5170 -0.6488  2.7255
  120MOL    H9633654   7.053   5.957   5.254 -0.3397 -0.1657  1.0155
  120MOL    H9733655   7.195   5.686   5.271  0.4228 -0.1067  0.5297
  120MOL    H9833656   6.932   6.035   5.417 -0.8865 -0.6801 -0.0170
  120MOL    H9933657   6.834   6.006   5.655 -0.3386 -0.3725  1.2138
  120MOL   C10033658   7.197   5.798   5.075 -0.5264  0.4691 -0.0074
  120MOL   C10133659   7.316   5.746   5.022 -0.6717 -0.5620 -0.1622
  120MOL   C10233660   7.358   5.780   4.893 -0.2079 -0.1023  0.2994
  120MOL   C10333661   7.276   5.860   4.809  0.3303  0.3915  0.4511
  120MOL   C10433662   7.325   5.903   4.678  0.7446 -0.2382  0.5309
  120MOL   C10533663   7.275   6.009   4.604  0.1319 -0.6197 -0.3609
  120MOL   C10633664   7.150   5.908   4.861  0.1235  0.7550 -0.9878
  120MOL   C10733665   7.113   5.881   4.993 -0.1736  0.2939 -0.5437
  120MOL   H10833666   7.384   5.696   5.090  0.1766  1.2443  0.3540
  120MOL   H10933667   7.453   5.748   4.854 -0.5254 -3.6289  2.1892
  120MOL   H11033668   7.405   5.844   4.635 -0.5560 -0.7540 -1.2300
  120MOL   H11133669   7.195   6.071   4.642 -1.7223 -2.0644 -1.8128
  120MOL   H11233670   7.078   5.969   4.809 -0.8571 -1.1952 -1.9600
  120MOL   H11333671   7.011   5.906   5.017 -0.4780  0.2086 -1.7214
  120MOL   C11433672   7.326   6.048   4.473  0.0001  0.8774  1.4417
  120MOL   C11533673   7.437   5.990   4.414  0.1192 -0.1470  0.9370
  120MOL   C11633674   7.467   6.016   4.280  0.1255  0.9052  0.5391
  120MOL   C11733675   7.388   6.103   4.207 -0.0240 -0.0821  0.0048
  120MOL   C11833676   7.396   6.112   4.061 -0.5895  0.1950  0.2919
  120MOL   C11933677   7.471   6.026   3.984 -0.3574 -0.6318 -1.1082
  120MOL   C12033678   7.284   6.168   4.272  0.1758  0.3681  0.1128
  120MOL   C12133679   7.254   6.140   4.401  0.3143  0.3762  0.0553
  120MOL   H12233680   7.503   5.925   4.470  0.7868  0.7716  1.2295
  120MOL   H12333681   7.553   5.969   4.234  1.4241  1.3339  2.4675
  120MOL   H12433682   7.345   6.194   4.013 -2.1740 -0.8866  0.0997
  120MOL   H12533683   7.514   5.943   4.038 -0.2593 -0.0168 -0.2263
  120MOL   H12633684   7.227   6.240   4.215 -0.1142 -0.2405 -0.3631
  120MOL   H12733685   7.177   6.192   4.455  0.4463 -0.3986  0.9958
  120MOL   C12833686   7.489   6.031   3.837 -0.0006  0.2933  0.0337
  120MOL   C12933687   7.435   6.136   3.755 -0.0644  1.0033 -0.8161
  120MOL   C13033688   7.442   6.124   3.615 -0.6073 -0.1138 -0.1998
  120MOL   C13133689   7.496   6.009   3.559 -0.1329  0.4350  0.2459
  120MOL   C13233690   7.492   6.006   3.411  0.6494 -0.1378  0.0014
  120MOL   C13333691   7.464   5.898   3.336 -0.6173 -0.2737  0.4237
  120MOL   C13433692   7.542   5.906   3.637  0.1128  0.5328  0.5844
  120MOL   C13533693   7.548   5.923   3.775  0.0808 -0.1690  0.2956
  120MOL   H13633694   7.395   6.223   3.805  0.5964  0.3760  0.8486
  120MOL   H13733695   7.403   6.199   3.548  0.8536  2.7349  2.0209
  120MOL   H13833696   7.507   6.104   3.367 -2.3258  1.3804  2.1509
  120MOL   H13933697   7.458   5.806   3.392 -1.6301 -0.1869  0.4581
  120MOL   H14033698   7.589   5.820   3.590 -1.4006  1.8371 -3.5988
  120MOL   H14133699   7.595   5.846   3.833  2.4051  0.2834 -0.9442
  120MOL   C14233700   7.455   5.891   3.189  0.1462 -0.4692 -0.2694
  120MOL   C14333701   7.519   5.989   3.108 -0.1319  0.6094  0.5661
  120MOL   C14433702   7.547   5.960   2.970  0.8565  0.2877  0.1995
  120MOL   C14533703   7.495   5.839   2.920 -0.0023 -0.2069 -0.2128
  120MOL   C14633704   7.533   5.813   2.779  0.7046 -0.2099 -0.0744
  120MOL   C14733705   7.499   5.711   2.711  0.1948 -0.1160  0.0986
  120MOL   C14833706   7.417   5.754   2.995 -0.0190  0.7107  0.4168
  120MOL   C14933707   7.403   5.774   3.133 -0.0616  0.9312  0.1774
  120MOL   H15033708   7.560   6.079   3.152  0.5140  1.9349 -2.5986
  120MOL   H15133709   7.605   6.030   2.911  1.2717  1.8369  2.3716
  120MOL   H15233710   7.598   5.888   2.736 -0.8931  0.8904 -0.5858
  120MOL   H15333711   7.427   5.645   2.756 -0.7773  0.9772  0.1761
  120MOL   H15433712   7.379   5.664   2.950  0.1869  0.4297  0.8068
  120MOL   H15533713   7.361   5.694   3.191 -3.2183  0.0675 -3.1323
  120MOL   C15633714   7.547   5.680   2.569 -0.4038  0.1843 -0.7772
  120MOL   C15733715   7.662   5.733   2.499 -0.9207  0.7859  0.6301
  120MOL   C15833716   7.681   5.696   2.365 -1.2734  0.7272  0.2615
  120MOL   C15933717   7.594   5.609   2.292  0.0467 -0.4417 -0.3918
  120MOL   C16033718   7.627   5.555   2.157 -0.0475 -0.1019  0.0896
  120MOL   C16133719   7.549   5.485   2.077 -0.4560  0.6159  0.5480
  120MOL   C16233720   7.481   5.567   2.362 -0.7012  0.3327 -0.3274
  120MOL   C16333721   7.458   5.604   2.496 -0.1739  0.7796  0.0295
  120MOL   H16433722   7.735   5.790   2.554  0.5449 -0.3053 -0.1561
  120MOL   H16533723   7.769   5.713   2.306 -0.2943  0.4313  1.6096
  120MOL   H16633724   7.725   5.583   2.122 -0.8820  0.1079 -2.1830
  120MOL   H16733725   7.448   5.456   2.101  0.1017 -0.3647  1.7619
  120MOL   H16833726   7.402   5.504   2.323 -1.4455  1.2447 -0.2978
  120MOL   H16933727   7.370   5.566   2.545  0.5570 -0.7879  0.1778
  120MOL   C17033728   7.597   5.435   1.947 -0.2733 -0.3626 -0.3041
  120MOL   C17133729   7.724   5.459   1.889 -0.2934  0.2718  0.4213
  120MOL   C17233730   7.756   5.435   1.752  0.1277  0.3630 -0.5785
  120MOL   C17333731   7.655   5.377   1.672 -0.2046  0.4412 -0.4906
  120MOL   C17433732   7.662   5.353   1.526 -0.5695  0.4453 -0.2225
  120MOL   C17533733   7.748   5.399   1.436 -0.1024  0.4752 -0.3930
  120MOL   C17633734   7.533   5.343   1.732 -0.0889  0.7246 -0.2227
  120MOL   C17733735   7.500   5.367   1.867  0.4434 -0.1152  0.6648
  120MOL   H17833736   7.802   5.511   1.943 -1.7059  1.3355  1.4917
  120MOL   H17933737   7.851   5.468   1.714  0.7728 -0.0596  0.6234
  120MOL   H18033738   7.589   5.282   1.491 -0.2254  1.0383 -2.2349
  120MOL   H18133739   7.829   5.465   1.464  0.8957 -0.0079 -2.0648
  120MOL   H18233740   7.455   5.303   1.668  1.0244 -1.8320 -0.0476
  120MOL   H18333741   7.403   5.341   1.907 -1.1122 -0.7066 -3.2858
  120MOL   C18433742   7.740   5.386   1.292  0.4523  0.1786 -0.2729
  120MOL   C18533743   7.853   5.411   1.214 -0.1914 -0.3584 -0.3615
  120MOL   C18633744   7.840   5.406   1.074 -0.6702  0.1525 -0.0285
  120MOL   C18733745   7.725   5.358   1.011 -0.4970  0.1111 -0.0143
  120MOL   C18833746   7.727   5.347   0.867 -0.2036 -0.4400  0.0548
  120MOL   C18933747   7.633   5.289   0.796  0.6632  0.0520 -0.3006
  120MOL   C19033748   7.611   5.338   1.088  0.1541  0.7758 -0.1678
  120MOL   C19133749   7.618   5.347   1.231 -0.0377  0.7722 -0.0789
  120MOL   H19233750   7.937   5.448   1.270 -0.5788  1.4960 -0.9551
  120MOL   H19333751   7.919   5.440   1.009 -1.7066 -0.4888 -1.6697
  120MOL   H19433752   7.806   5.401   0.817 -1.7452  0.0692 -1.8795
  120MOL   H19533753   7.553   5.231   0.840  0.5370  0.4238 -0.0366
  120MOL   H19633754   7.515   5.318   1.043 -0.3260  0.8797  0.7853
  120MOL   H19733755   7.525   5.335   1.284 -1.6257  3.6802 -2.1017
  120MOL   C19833756   7.618   5.290   0.643 -0.3359  0.1967 -0.4446
  120MOL   C19933757   7.728   5.343   0.560  0.1451 -0.0788 -0.2185
  120MOL   C20033758   7.702   5.359   0.423 -0.2440 -0.0422 -0.4170
  120MOL   C20133759   7.581   5.329   0.367 -0.2006 -0.0050  0.6124
  120MOL   C20233760   7.545   5.368   0.232  1.1417 -0.9849  0.4554
  120MOL   C20333761   7.624   5.428   0.142 -0.0939 -0.2234  0.5060
  120MOL   C20433762   7.486   5.260   0.448  0.2632 -0.2581  0.6625
  120MOL   C20533763   7.500   5.244   0.585 -0.1807 -0.3841  0.0865
  120MOL   H20633764   7.821   5.376   0.604 -1.3330 -0.2450  3.2018
  120MOL   H20733765   7.783   5.409   0.371  1.0020 -1.2428  0.3089
  120MOL   H20833766   7.443   5.345   0.205  2.1224 -0.3331 -4.2423
  120MOL   H20933767   7.727   5.434   0.172  0.5487 -1.2538 -1.4378
  120MOL   H21033768   7.393   5.227   0.404  0.1029  0.7188  0.2549
  120MOL   H21133769   7.417   5.197   0.635 -1.6790  1.4100 -0.6757
  120MOL   C21233770   7.575   5.496   0.019 -0.4775 -0.0267 -0.1778
  120MOL   C21333771   7.441   5.484   8.133 -0.3094 -0.0984  0.1301
  120MOL   C21433772   7.383   5.558   8.030 -0.9602  0.6937  0.0843
  120MOL   C21533773   7.455   5.644   7.952 -0.2197  0.4941 -0.0765
  120MOL   C21633774   7.386   5.715   7.839 -0.4028 -0.6946 -0.4538
  120MOL   C21733775   7.442   5.740   7.718 -0.0132  0.0993 -0.1402
  120MOL   C21833776   7.595   5.659   7.980  0.4500  0.4466  0.1820
  120MOL   C21933777   7.652   5.594   8.092 -0.4602 -0.5908  0.2242
  120MOL   H22033778   7.379   5.407   0.031  1.5039 -0.1084  2.8983
  120MOL   H22133779   7.285   5.540   7.989  0.4809 -0.8608 -2.8597
  120MOL   H22233780   7.283   5.740   7.861 -0.5313 -1.9517  0.4280
  120MOL   H22333781   7.544   5.711   7.697 -0.5195 -0.9444 -1.1502
  120MOL   H22433782   7.642   5.739   7.924 -0.4416  0.2993 -0.7817
  120MOL   H22533783   7.755   5.616   8.116 -1.0147  1.6467  0.6330
  120MOL   C22633784   7.368   5.810   7.618 -0.1649 -0.1323 -0.3577
  120MOL   C22733785   7.289   5.910   7.654 -0.7193 -0.4132 -0.1023
  120MOL   C22833786   7.210   5.969   7.556  0.3303 -0.1718 -0.8421
  120MOL   C22933787   7.206   5.922   7.421  0.3263  0.7443 -0.7008
  120MOL   C23033788   7.106   5.974   7.331 -0.1184 -0.0235  0.1135
  120MOL   C23133789   7.032   6.081   7.362  0.0098 -0.3452  0.0788
  120MOL   C23233790   7.298   5.827   7.380 -0.2274 -0.0052  0.1935
  120MOL   C23333791   7.373   5.769   7.480  0.3130 -0.8448  0.3355
  120MOL   H23433792   7.281   5.946   7.756  1.0769 -0.1871 -0.0240
  120MOL   H23533793   7.161   6.059   7.590  0.5353 -0.0351 -0.9118
  120MOL   H23633794   7.089   5.920   7.238 -0.5470 -2.0578  1.3448
  120MOL   H23733795   7.049   6.133   7.455 -0.4000  1.0833 -0.6190
  120MOL   H23833796   7.302   5.787   7.279 -2.7046 -3.4834  1.3749
  120MOL   H23933797   7.422   5.678   7.450  0.4630 -0.7865  0.4055
  120MOL   C24033798   6.913   6.125   7.281 -0.2639  0.8225  0.5162
  120MOL   C24133799   6.851   6.245   7.324  0.4605  0.1508  0.4531
  120MOL   C24233800   6.732   6.289   7.267 -0.2806 -0.1892 -0.2224
  120MOL   C24333801   6.668   6.213   7.170  0.0192  0.3779 -0.3681
  120MOL   C24433802   6.534   6.258   7.116 -0.2459  0.5906 -0.0675
  120MOL   C24533803   6.440   6.333   7.185 -0.3680  1.1453 -0.0550
  120MOL   C24633804   6.731   6.094   7.117 -0.6708  0.0809  0.2768
  120MOL   C24733805   6.853   6.049   7.174 -0.4505  0.3683  0.1142
  120MOL   H24833806   6.894   6.302   7.405  1.7073  1.9738 -1.4275
  120MOL   H24933807   6.677   6.374   7.303  2.3855  0.8509  1.5881
  120MOL   H25033808   6.514   6.231   7.014  1.4173  1.8234 -0.7291
  120MOL   H25133809   6.460   6.352   7.289  1.3451  0.8908 -0.3253
  120MOL   H25233810   6.684   6.042   7.035 -0.8863 -2.5857  2.0315
  120MOL   H25333811   6.903   5.958   7.143 -1.3368  0.2074 -0.8834
  120MOL   C25433812   6.309   6.375   7.129 -0.8912 -0.7339  0.1404
  120MOL   C25533813   6.289   6.404   6.992 -0.5680  0.0655 -0.6186
  120MOL   C25633814   6.160   6.440   6.953  0.2161  0.2716 -0.8424
  120MOL   C25733815   6.054   6.450   7.047 -0.6444 -0.6334 -0.1499
  120MOL   C25833816   5.923   6.498   6.991  0.2369  0.1831 -0.3029
  120MOL   C25933817   5.811   6.542   7.053 -0.1383  0.6597  0.2851
  120MOL   C26033818   6.081   6.429   7.180 -0.6874  0.3775 -0.9239
  120MOL   C26133819   6.205   6.385   7.218  0.9918 -0.6945 -0.1284
  120MOL   H26233820   6.367   6.392   6.919  1.1386  0.8866  1.0232
  120MOL   H26333821   6.139   6.474   6.853 -1.0164 -1.6156 -1.2410
  120MOL   H26433822   5.921   6.485   6.883  1.7858 -1.8524 -0.1049
  120MOL   H26533823   5.731   6.564   6.983 -0.8159  0.8202  1.1009
  120MOL   H26633824   5.998   6.409   7.245  1.7225 -4.4434  0.9495
  120MOL   H26733825   6.219   6.348   7.319  0.8979 -0.1004  0.1042
  120MOL   C26833826   5.774   6.558   7.193 -0.6617  0.3298  0.1055
  120MOL   C26933827   5.804   6.678   7.265 -0.0436  0.0777  0.1831
  120MOL   C27033828   5.748   6.704   7.395 -0.8291 -0.5393 -0.0389
  120MOL   C27133829   5.685   6.597   7.456 -0.3237 -0.0802  0.7117
  120MOL   C27233830   5.655   6.614   7.598 -0.7887  0.4034 -0.3567
  120MOL   C27333831   5.619   6.519   7.688 -0.1744  0.5144 -0.3450
  120MOL   C27433832   5.668   6.470   7.391 -0.2880 -0.1062  0.3390
  120MOL   C27533833   5.707   6.454   7.256 -0.8000  0.3058  0.1487
  120MOL   H27633834   5.856   6.752   7.206  1.9207 -0.6969  0.9045
  120MOL   H27733835   5.769   6.799   7.443  2.3184 -0.6455 -1.1169
  120MOL   H27833836   5.664   6.711   7.645  0.8775  0.3744 -0.5641
  120MOL   H27933837   5.604   6.414   7.667  1.4250  0.1677  0.1069
  120MOL   H28033838   5.622   6.385   7.439 -2.5298  0.4549 -0.7386
  120MOL   H28133839   5.694   6.364   7.198 -1.6391  0.8513 -0.5230
  120MOL   H28233840   5.605   6.549   7.791  0.3265  2.3669 -0.8135
  121MOL     C133841   4.902   1.011   8.024  0.0776  0.1850  0.1452
  121MOL     C233842   4.911   0.980   0.018 -0.4426  1.4393 -0.2519
  121MOL     C333843   5.030   1.004   0.090  0.0475 -0.1716  0.2699
  121MOL     C433844   5.145   1.063   0.019  0.1391  0.1423 -0.1857
  121MOL     C533845   5.269   1.075   0.097 -0.0813  0.2797  0.3346
  121MOL     C633846   5.301   1.026   0.222  0.6578  0.0976 -0.1216
  121MOL     C733847   5.130   1.097   8.028 -0.3509  0.1852  0.0504
  121MOL     C833848   5.011   1.074   7.961 -0.0634 -0.4082 -0.2446
  121MOL     H933849   4.823   0.929   0.053 -0.2635 -0.4602 -2.4087
  121MOL    H1033850   5.032   0.974   0.193  0.5671 -1.5560 -0.1231
  121MOL    H1133851   5.346   1.137   0.054  1.8634 -3.0276 -1.1662
  121MOL    H1233852   5.235   0.956   0.268 -0.4818 -0.2982 -2.2946
  121MOL    H1333853   5.218   1.139   7.982 -0.3375 -2.3667 -2.3378
  121MOL    H1433854   5.009   1.101   7.856  0.9560 -0.5934 -0.3174
  121MOL    H1533855   4.802   0.994   7.987  0.5835 -1.1694 -0.6021
  121MOL    C1633856   5.419   1.058   0.302  0.3862  0.3435  0.1135
  121MOL    C1733857   5.537   1.113   0.244  0.1322 -0.5372 -0.2343
  121MOL    C1833858   5.650   1.128   0.319  0.2471  0.3295 -0.0316
  121MOL    C1933859   5.667   1.092   0.452 -0.2605  0.0673 -0.3047
  121MOL    C2033860   5.790   1.083   0.532 -0.6667  0.4315  0.2617
  121MOL    C2133861   5.913   1.108   0.484 -0.6086 -0.1580  0.3598
  121MOL    C2233862   5.551   1.044   0.514  0.5992 -0.3880  0.7303
  121MOL    C2333863   5.429   1.026   0.443  0.4768  1.1862 -0.5032
  121MOL    H2433864   5.534   1.146   0.141  1.1980  1.4638  0.3546
  121MOL    H2533865   5.740   1.171   0.277 -0.1726  1.1941 -0.0354
  121MOL    H2633866   5.783   1.052   0.635 -2.9544 -1.4851 -0.4346
  121MOL    H2733867   5.917   1.147   0.383 -1.6724  0.3772  0.5163
  121MOL    H2833868   5.551   1.021   0.619 -1.8817  1.0647  1.0934
  121MOL    H2933869   5.344   0.985   0.494  2.0548 -1.1497  0.3573
  121MOL    C3033870   6.037   1.109   0.557 -0.4385 -0.7568 -0.3488
  121MOL    C3133871   6.046   1.103   0.698  0.6634 -0.4897 -0.3045
  121MOL    C3233872   6.160   1.124   0.771 -0.1661 -0.5652  0.0403
  121MOL    C3333873   6.280   1.138   0.702  0.3590 -0.2334 -0.3646
  121MOL    C3433874   6.400   1.157   0.783  1.0150  0.5113  0.0947
  121MOL    C3533875   6.527   1.151   0.745 -0.7826  0.3493 -0.1087
  121MOL    C3633876   6.281   1.131   0.564  0.4816  0.1468  0.2100
  121MOL    C3733877   6.160   1.114   0.491 -0.0683  0.1284  0.0356
  121MOL    H3833878   5.957   1.089   0.758  0.1326 -0.3171 -1.0490
  121MOL    H3933879   6.163   1.113   0.879 -3.4022  1.0846  0.3532
  121MOL    H4033880   6.389   1.183   0.888 -1.8396  3.4419 -0.8467
  121MOL    H4133881   6.544   1.122   0.642 -1.5489 -0.2539 -0.0764
  121MOL    H4233882   6.369   1.134   0.501 -0.7745  1.8609 -1.5251
  121MOL    H4333883   6.164   1.112   0.384 -1.8362  1.4662 -0.0865
  121MOL    C4433884   6.649   1.174   0.835  0.4224  0.2315  0.3146
  121MOL    C4533885   6.784   1.150   0.792  0.1141  0.5289  0.3211
  121MOL    C4633886   6.896   1.186   0.875  0.6502 -0.2657 -0.6388
  121MOL    C4733887   6.877   1.236   1.009  0.3938 -0.0563  0.3878
  121MOL    C4833888   7.005   1.251   1.084  0.1974 -0.2950  0.0085
  121MOL    C4933889   7.005   1.258   1.216 -0.4499 -0.1315 -0.3583
  121MOL    C5033890   6.742   1.253   1.054 -0.2060  0.5215  0.4473
  121MOL    C5133891   6.636   1.223   0.969  0.1921 -0.2418 -1.2076
  121MOL    H5233892   6.793   1.112   0.691  1.5183  1.4428  0.0849
  121MOL    H5333893   7.000   1.173   0.845  1.1547  0.5686  0.7161
  121MOL    H5433894   7.102   1.267   1.038 -0.5660  0.3810 -1.3944
  121MOL    H5533895   6.918   1.250   1.279 -1.0986  0.3601 -1.1862
  121MOL    H5633896   6.722   1.285   1.155  0.2628 -0.8616  0.9830
  121MOL    H5733897   6.535   1.238   1.006  0.4902  0.5791 -0.7111
  121MOL    C5833898   7.125   1.293   1.298 -0.2349 -0.3037 -0.5447
  121MOL    C5933899   7.250   1.325   1.242  0.4025 -0.8650  0.2353
  121MOL    C6033900   7.364   1.327   1.325 -0.1240 -0.1503  0.0391
  121MOL    C6133901   7.353   1.318   1.465 -0.2974  0.5527  0.6464
  121MOL    C6233902   7.472   1.293   1.549  0.2943 -0.4192  0.4585
  121MOL    C6333903   7.590   1.262   1.497  0.3651 -0.4437  0.3933
  121MOL    C6433904   7.221   1.321   1.518  0.2425  0.3722  0.2145
  121MOL    C6533905   7.110   1.300   1.440 -0.0040  0.6988  0.1947
  121MOL    H6633906   7.263   1.332   1.135 -0.6841 -1.5494  0.0463
  121MOL    H6733907   7.458   1.326   1.271  0.1026 -2.5871  0.4045
  121MOL    H6833908   7.450   1.302   1.654 -0.4479 -0.3521  0.3004
  121MOL    H6933909   7.587   1.253   1.389  4.4490  0.7667  0.0835
  121MOL    H7033910   7.215   1.316   1.625  3.2845 -2.7321  0.2844
  121MOL    H7133911   7.013   1.290   1.485  0.0466  0.0502  0.1621
  121MOL    C7233912   7.729   1.251   1.552 -0.1980  0.2441 -0.2567
  121MOL    C7333913   7.757   1.270   1.684  0.3169 -0.4538  0.0498
  121MOL    C7433914   7.894   1.254   1.732 -0.0653  0.0749 -0.2949
  121MOL    C7533915   7.996   1.228   1.639 -0.1385  0.0514 -0.1062
  121MOL    C7633916   8.137   1.220   1.685 -0.2859  0.6795  0.8366
  121MOL    C7733917   0.039   1.227   1.815  0.0677  0.1107 -0.2021
  121MOL    C7833918   7.962   1.197   1.507  0.3961  0.4279  0.3663
  121MOL    C7933919   7.831   1.213   1.465  0.6519 -0.6770  0.3383
  121MOL    H8033920   7.679   1.304   1.750 -0.2763  1.0868 -1.4070
  121MOL    H8133921   7.919   1.270   1.836 -0.0798 -1.0124 -0.1085
  121MOL    H8233922   0.059   1.213   1.600 -0.1112  0.5504  0.9827
  121MOL    H8333923   8.111   1.218   1.894  2.2416 -1.9924  1.6522
  121MOL    H8433924   8.045   1.181   1.441  0.8089  1.0714  0.7314
  121MOL    H8533925   7.801   1.195   1.363  1.8453 -0.9106  0.0171
  121MOL    C8633926   0.173   1.238   1.868 -0.8430 -0.1588  0.3210
  121MOL    C8733927   0.284   1.222   1.782 -0.5888  0.2520 -0.0251
  121MOL    C8833928   0.417   1.214   1.833 -0.6870 -0.1933  0.0432
  121MOL    C8933929   0.429   1.226   1.974  0.3528 -0.4276 -0.3590
  121MOL    C9033930   0.561   1.219   2.042 -0.0316  0.1200 -0.7483
  121MOL    C9133931   0.686   1.220   1.985 -0.7419 -0.8063  0.0537
  121MOL    C9233932   0.315   1.243   2.061  0.2001  0.4576  0.2319
  121MOL    C9333933   0.188   1.250   2.005 -0.7245  0.2511 -0.3514
  121MOL    H9433934   0.275   1.215   1.675  2.0396  2.8288 -0.4634
  121MOL    H9533935   0.502   1.203   1.768 -0.3871 -1.4064  0.6108
  121MOL    H9633936   0.546   1.210   2.148  2.6475 -3.3542 -0.5926
  121MOL    H9733937   0.689   1.224   1.877 -0.1866 -1.0556  0.0541
  121MOL    H9833938   0.328   1.230   2.168 -1.0745 -2.0914  0.1252
  121MOL    H9933939   0.104   1.258   2.074 -0.3824  0.0560  0.0939
  121MOL   C10033940   0.817   1.196   2.045  0.3482  0.0063  0.3627
  121MOL   C10133941   0.930   1.225   1.966 -0.5204 -0.5848  0.2380
  121MOL   C10233942   1.061   1.216   2.022  0.0007 -0.2455  0.1914
  121MOL   C10333943   1.077   1.173   2.159 -0.1047  0.2559 -0.0974
  121MOL   C10433944   1.214   1.170   2.213 -0.2680  0.1663 -0.4818
  121MOL   C10533945   1.328   1.203   2.151 -0.3072 -0.6021 -0.2040
  121MOL   C10633946   0.964   1.142   2.236  0.0374  0.4852  0.3818
  121MOL   C10733947   0.836   1.163   2.182  0.0582  0.5474  0.3291
  121MOL   H10833948   0.913   1.264   1.867  1.1249  0.4719  0.3622
  121MOL   H10933949   1.149   1.248   1.968  0.0731 -2.0570 -0.7942
  121MOL   H11033950   1.223   1.126   2.311  1.0745 -1.5018 -1.3089
  121MOL   H11133951   1.325   1.254   2.056 -1.8566 -1.5643 -0.6822
  121MOL   H11233952   0.979   1.129   2.342  0.0294  1.8107  0.5576
  121MOL   H11333953   0.749   1.154   2.246  0.7474  2.8784  1.6456
  121MOL   C11433954   1.460   1.209   2.216  0.5061 -0.5998 -0.4246
  121MOL   C11533955   1.468   1.234   2.353 -0.0975 -0.6999 -0.2555
  121MOL   C11633956   1.589   1.228   2.421 -0.2586 -0.0159  0.4863
  121MOL   C11733957   1.705   1.181   2.352  0.4694  0.1556 -0.5375
  121MOL   C11833958   1.832   1.169   2.430  0.5026  0.3468  0.1439
  121MOL   C11933959   1.955   1.146   2.385  0.5244  0.1389  0.1980
  121MOL   C12033960   1.695   1.150   2.217 -0.4341 -0.2686 -0.5550
  121MOL   C12133961   1.582   1.182   2.144  0.0881 -0.3687  0.1018
  121MOL   H12233962   1.382   1.270   2.407 -0.2189 -0.5743 -0.5357
  121MOL   H12333963   1.590   1.238   2.528  0.0239 -3.2681  0.8392
  121MOL   H12433964   1.815   1.182   2.536  1.4371 -1.4820  0.5370
  121MOL   H12533965   1.973   1.137   2.279 -1.6262 -0.9941 -0.0964
  121MOL   H12633966   1.788   1.122   2.169  0.6466 -2.8691  2.9020
  121MOL   H12733967   1.592   1.173   2.037  0.1499  1.0065 -0.0281
  121MOL   C12833968   2.070   1.119   2.466 -0.1107 -0.5875 -0.2160
  121MOL   C12933969   2.184   1.069   2.396  0.2335 -0.0256  0.1951
  121MOL   C13033970   2.298   1.021   2.468  0.2318  0.1719 -0.4870
  121MOL   C13133971   2.290   1.023   2.608  0.4375  0.2948 -0.5010
  121MOL   C13233972   2.396   0.958   2.682 -1.1051  0.4583 -0.2646
  121MOL   C13333973   2.420   0.975   2.812  0.0740  0.6063  0.9293
  121MOL   C13433974   2.177   1.081   2.675 -0.1339  0.5156 -0.5752
  121MOL   C13533975   2.071   1.134   2.608 -0.0820  0.9787  0.8534
  121MOL   H13633976   2.187   1.057   2.289  0.1892 -0.7604  0.2733
  121MOL   H13733977   2.378   0.977   2.412  0.9063 -2.4145  2.3823
  121MOL   H13833978   2.449   0.886   2.622 -1.3710  2.8221 -3.4639
  121MOL   H13933979   2.371   1.054   2.867 -0.1265  0.0949  1.5039
  121MOL   H14033980   2.174   1.083   2.783 -1.8437 -0.9375 -0.5737
  121MOL   H14133981   1.989   1.188   2.653 -1.7225  1.6903 -2.7951
  121MOL   C14233982   2.521   0.891   2.879 -0.3278 -0.8258 -0.0997
  121MOL   C14333983   2.623   0.826   2.811  0.7436 -0.1759 -0.3466
  121MOL   C14433984   2.718   0.751   2.879 -1.0356  0.6275  0.0218
  121MOL   C14533985   2.711   0.732   3.016  0.0478  0.3321  0.4402
  121MOL   C14633986   2.803   0.647   3.086 -0.2317  0.2312  0.3901
  121MOL   C14733987   2.839   0.628   3.215  0.1003 -0.1087 -0.7795
  121MOL   C14833988   2.610   0.801   3.085 -0.1416  0.7588  1.2007
  121MOL   C14933989   2.519   0.883   3.019  0.3099 -0.6437 -0.9602
  121MOL   H15033990   2.634   0.836   2.704 -0.3246  0.4500 -0.4030
  121MOL   H15133991   2.795   0.706   2.818  1.1219  3.3620  0.6107
  121MOL   H15233992   2.869   0.595   3.018 -0.6252 -0.3943  0.4838
  121MOL   H15333993   2.785   0.663   3.303 -1.0409  1.9586 -2.2643
  121MOL   H15433994   2.605   0.785   3.192  2.6558 -0.3094  1.2161
  121MOL   H15533995   2.437   0.929   3.072 -1.3681 -0.7743 -3.3929
  121MOL   C15633996   2.958   0.557   3.266  0.8172 -0.2731 -0.7165
  121MOL   C15733997   2.999   0.569   3.400  0.4714 -0.1093  0.0579
  121MOL   C15833998   3.119   0.508   3.447 -0.3792  0.3780  0.1860
  121MOL   C15933999   3.201   0.432   3.359 -0.3492 -0.1725  0.3307
  121MOL   C16034000   3.328   0.367   3.387 -0.3781 -0.0077  0.0258
  121MOL   C16134001   3.355   0.304   3.503 -0.6362  0.1714  0.1321
  121MOL   C16234002   3.154   0.411   3.226 -0.3848 -0.4762 -0.0562
  121MOL   C16334003   3.036   0.478   3.181 -0.9282 -0.1448  0.7615
  121MOL   H16434004   2.935   0.636   3.456 -0.3098 -0.5054 -0.3607
  121MOL   H16534005   3.161   0.520   3.545 -1.8438  0.5016  0.8136
  121MOL   H16634006   3.402   0.375   3.308 -0.2435 -1.4384 -0.0152
  121MOL   H16734007   3.276   0.303   3.577 -2.1452  2.8708 -1.3637
  121MOL   H16834008   3.221   0.356   3.163  0.3182 -0.9742  1.1072
  121MOL   H16934009   3.020   0.467   3.075 -1.4788 -0.2481  0.8538
  121MOL   C17034010   3.484   0.234   3.532  0.4538  0.3984  0.4041
  121MOL   C17134011   3.603   0.255   3.464  0.4225  0.2541 -0.7480
  121MOL   C17234012   3.724   0.188   3.502 -0.4333  0.9758 -0.4962
  121MOL   C17334013   3.719   0.100   3.611 -0.2560 -0.4401  0.2618
  121MOL   C17434014   3.843   0.028   3.655  0.4067 -0.1091 -0.0641
  121MOL   C17534015   3.964   0.037   3.606  0.4732 -0.3619  0.2251
  121MOL   C17634016   3.596   0.072   3.679 -0.3332 -0.4612 -0.2062
  121MOL   C17734017   3.480   0.147   3.650  0.0042 -0.0049 -0.0968
  121MOL   H17834018   3.608   0.319   3.377  1.5608 -0.3964 -1.1687
  121MOL   H17934019   3.822   0.213   3.465 -0.6759  1.6820 -0.6669
  121MOL   H18034020   3.816   8.110   3.739 -0.1544  0.2090 -0.0039
  121MOL   H18134021   3.986   0.098   3.520 -1.2384 -0.7458 -0.5165
  121MOL   H18234022   3.599   0.010   3.767 -0.8081  0.0513  0.1739
  121MOL   H18334023   3.393   0.136   3.712 -0.7144  2.2247 -0.6804
  121MOL   C18434024   4.083   8.114   3.653  0.2050  0.8413  0.5619
  121MOL   C18534025   4.082   8.000   3.745 -0.7801 -0.2663  0.8240
  121MOL   C18634026   4.203   7.941   3.777 -0.0553 -0.3042 -0.3013
  121MOL   C18734027   4.324   7.996   3.727  0.0462  0.2548 -0.0961
  121MOL   C18834028   4.453   7.924   3.762 -0.2704 -0.0221  0.1789
  121MOL   C18934029   4.578   7.966   3.731 -0.1601 -0.1114  0.1623
  121MOL   C19034030   4.322   8.106   3.641 -0.0886 -0.1174 -0.6460
  121MOL   C19134031   4.203   0.016   3.595 -0.1324 -0.7340 -0.4227
  121MOL   H19234032   3.992   7.964   3.793 -1.0322 -0.2867  0.3375
  121MOL   H19334033   4.215   7.855   3.841  2.7626  0.3931  0.1811
  121MOL   H19434034   4.440   7.830   3.814  0.3845  0.2720  0.8719
  121MOL   H19534035   4.595   8.055   3.673 -1.1184  0.1243  0.2240
  121MOL   H19634036   4.412   8.143   3.594 -0.1123 -2.6566 -2.8764
  121MOL   H19734037   4.200   0.091   3.516 -3.0579  0.2071  0.5404
  121MOL   C19834038   4.698   7.892   3.779  0.2644 -0.0623  0.1896
  121MOL   C19934039   4.689   7.760   3.832  0.1966  0.2483  0.6866
  121MOL   C20034040   4.811   7.698   3.879  0.4099 -0.6323  0.1376
  121MOL   C20134041   4.938   7.752   3.866 -0.4252  0.7603 -0.0189
  121MOL   C20234042   5.059   7.690   3.906  0.1573 -0.7292 -0.8349
  121MOL   C20334043   5.065   7.583   3.991  0.7005  0.1178  0.0696
  121MOL   C20434044   4.946   7.883   3.810 -0.1309  0.2331  0.3980
  121MOL   C20534045   4.826   7.953   3.764 -0.2411 -0.1390 -0.0375
  121MOL   H20634046   4.598   7.703   3.846 -0.0267  1.0561  2.5829
  121MOL   H20734047   4.795   7.602   3.926 -1.9992  0.1315  0.9350
  121MOL   H20834048   5.151   7.722   3.860  0.1157  1.4951  0.5459
  121MOL   H20934049   4.973   7.546   4.033  1.8392 -1.5497  1.1514
  121MOL   H21034050   5.040   7.934   3.798  0.2862 -0.2868  1.3801
  121MOL   H21134051   4.833   8.050   3.719  1.1111  0.2008  0.8878
  121MOL   C21234052   5.179   7.503   4.028 -0.4764 -0.4713 -0.0681
  121MOL   C21334053   5.293   7.498   3.946  0.5247  0.2284 -0.3538
  121MOL   C21434054   5.400   7.411   3.972  0.3296  0.8993  0.0170
  121MOL   C21534055   5.398   7.328   4.087 -0.6124 -0.2763 -0.0431
  121MOL   C21634056   5.502   7.232   4.122  0.0148  0.6001  0.9789
  121MOL   C21734057   5.538   7.185   4.239 -0.5653 -0.3252 -0.1332
  121MOL   C21834058   5.281   7.332   4.167 -0.1484 -0.3225  0.0288
  121MOL   C21934059   5.176   7.423   4.147 -0.5825 -0.0473 -0.1772
  121MOL   H22034060   5.290   7.564   3.860  0.0312  4.0704  2.5036
  121MOL   H22134061   5.489   7.402   3.911 -1.0225 -0.2341 -1.8359
  121MOL   H22234062   5.550   7.192   4.033  2.2816  1.8069  1.6232
  121MOL   H22334063   5.479   7.231   4.318  1.8971  1.5687  0.6659
  121MOL   H22434064   5.284   7.265   4.251  1.8592  1.1298  1.1752
  121MOL   H22534065   5.087   7.422   4.208  0.8572  1.0929  1.9914
  121MOL   C22634066   5.633   7.081   4.269  0.5113  0.4979 -0.1008
  121MOL   C22734067   5.651   7.036   4.398  0.4653 -0.1935 -0.2945
  121MOL   C22834068   5.737   6.928   4.424 -0.9080  1.1768 -0.2406
  121MOL   C22934069   5.799   6.842   4.328  0.5955  0.5928  0.1467
  121MOL   C23034070   5.885   6.738   4.365 -0.9477 -0.4531 -0.2306
  121MOL   C23134071   5.982   6.684   4.295 -0.2234 -0.5627 -0.4112
  121MOL   C23234072   5.773   6.891   4.195 -0.5499 -0.2545  0.1415
  121MOL   C23334073   5.698   7.010   4.167 -0.2836  0.2145 -0.1343
  121MOL   H23434074   5.596   7.076   4.482 -0.6860  1.7858 -1.9409
  121MOL   H23534075   5.743   6.899   4.528  0.8426  0.5065 -0.5016
  121MOL   H23634076   5.864   6.698   4.464  0.5977 -0.8919 -0.0708
  121MOL   H23734077   5.997   6.722   4.195  1.6881  0.6344  0.2801
  121MOL   H23834078   5.809   6.826   4.116 -0.8011 -0.0282 -0.1599
  121MOL   H23934079   5.695   7.042   4.064 -1.2011  2.5133  0.5869
  121MOL   C24034080   6.078   6.583   4.337  0.5707 -0.1012 -0.2118
  121MOL   C24134081   6.100   6.556   4.477 -0.5100  0.3938  0.8511
  121MOL   C24234082   6.198   6.466   4.525  0.2258  0.1731  0.4810
  121MOL   C24334083   6.270   6.396   4.422 -0.4894  0.5097 -0.3019
  121MOL   C24434084   6.360   6.281   4.456  0.7541 -0.8514  0.1952
  121MOL   C24534085   6.354   6.228   4.577  0.5496 -0.1410  0.6013
  121MOL   C24634086   6.259   6.437   4.288  0.7489  0.2368  0.8726
  121MOL   C24734087   6.162   6.523   4.241  0.5362  0.0818 -0.7087
  121MOL   H24834088   6.044   6.600   4.558 -0.8247  0.4976  0.5791
  121MOL   H24934089   6.210   6.432   4.626 -3.2771  0.9882  1.2351
  121MOL   H25034090   6.439   6.237   4.397  0.8728  1.9608 -1.8334
  121MOL   H25134091   6.277   6.255   4.647 -0.9622 -1.1805 -0.6409
  121MOL   H25234092   6.334   6.389   4.226 -0.9598 -1.6295  0.1943
  121MOL   H25334093   6.150   6.552   4.138 -1.1806 -0.0492 -0.5644
  121MOL   C25434094   6.435   6.121   4.628 -0.8880 -0.0194 -0.1022
  121MOL   C25534095   6.435   6.105   4.768  0.1378 -0.0064 -0.3355
  121MOL   C25634096   6.525   6.010   4.828  0.8683  0.0318  0.6585
  121MOL   C25734097   6.604   5.926   4.747 -0.0524  0.1235 -0.5901
  121MOL   C25834098   6.694   5.822   4.802  0.2925 -0.3190 -0.4257
  121MOL   C25934099   6.688   5.749   4.918  0.0019 -0.1295  0.0567
  121MOL   C26034100   6.594   5.942   4.608  0.6973  0.4989  0.7428
  121MOL   C26134101   6.515   6.038   4.547 -0.4333  0.1602  0.3250
  121MOL   H26234102   6.375   6.168   4.832  1.1303  2.4579 -1.7302
  121MOL   H26334103   6.531   5.998   4.935 -0.7706 -1.2902  0.6185
  121MOL   H26434104   6.784   5.798   4.747 -0.4724 -2.0926 -0.9560
  121MOL   H26534105   6.779   5.693   4.936 -0.4733 -0.5974  1.0568
  121MOL   H26634106   6.649   5.883   4.535 -1.5444 -0.0252 -0.5623
  121MOL   H26734107   6.510   6.057   4.441 -2.1225 -0.4440  0.2774
  121MOL   C26834108   6.583   5.745   5.021 -0.2972  0.5058  0.0505
  121MOL   C26934109   6.445   5.747   4.988 -0.2149  0.1487  0.3512
  121MOL   C27034110   6.346   5.728   5.092  0.3902 -0.5140  0.0433
  121MOL   C27134111   6.387   5.721   5.230  0.5043  0.7138  0.1923
  121MOL   C27234112   6.291   5.724   5.336  0.3826 -0.4563  0.0235
  121MOL   C27334113   6.323   5.743   5.464 -0.3766  0.6225  0.2388
  121MOL   C27434114   6.525   5.728   5.254 -0.1524 -0.6527  0.1107
  121MOL   C27534115   6.623   5.732   5.158  0.4395 -0.0736  0.1437
  121MOL   H27634116   6.419   5.756   4.884  0.7835  0.9072  0.1615
  121MOL   H27734117   6.244   5.707   5.062 -0.4551  1.1871  1.6520
  121MOL   H27834118   6.188   5.704   5.310  0.2953  1.2908 -1.0287
  121MOL   H27934119   6.425   5.755   5.498 -0.3116  1.5502 -0.2801
  121MOL   H28034120   6.566   5.733   5.354  0.2887  1.4091 -0.1442
  121MOL   H28134121   6.727   5.743   5.183  0.7349  1.0189 -1.4662
  121MOL   H28234122   6.244   5.743   5.537 -0.7270 -2.4005 -0.0904
  122MOL     C134123   0.014   4.352   0.479 -0.1264  0.0090 -0.4280
  122MOL     C234124   8.114   4.448   0.383 -1.0121  0.9550 -0.1835
  122MOL     C334125   7.975   4.475   0.389  0.4226  0.0919 -0.0291
  122MOL     C434126   7.885   4.423   0.491 -0.5588 -0.1215  0.4202
  122MOL     C534127   7.740   4.465   0.493 -0.9578 -0.0773  0.2890
  122MOL     C634128   7.644   4.415   0.573  0.2720 -0.1318 -0.3815
  122MOL     C734129   7.938   4.340   0.587 -0.4349  0.0292 -0.1273
  122MOL     C834130   8.078   4.302   0.581  0.3315  0.0840 -0.1577
  122MOL     H934131   0.023   4.490   0.298 -0.9187 -1.1081 -1.1642
  122MOL    H1034132   7.926   4.536   0.315 -1.2782 -0.7012  0.4189
  122MOL    H1134133   7.724   4.545   0.422  0.2414  0.7814  0.9521
  122MOL    H1234134   7.657   4.337   0.646 -2.9180 -0.0246  0.4019
  122MOL    H1334135   7.876   4.307   0.669 -0.3261 -1.6823 -0.7084
  122MOL    H1434136   8.120   4.234   0.653  1.1037 -0.3871 -1.0296
  122MOL    H1534137   0.118   4.325   0.489 -0.2811 -0.2878  0.3853
  122MOL    C1634138   7.510   4.467   0.562 -0.9278  0.2689  0.3567
  122MOL    C1734139   7.463   4.522   0.439 -0.1452  0.2380 -0.0435
  122MOL    C1834140   7.328   4.561   0.433 -0.5637  0.5886 -0.3003
  122MOL    C1934141   7.241   4.555   0.542  0.6950 -0.0687 -0.2330
  122MOL    C2034142   7.098   4.598   0.528  0.2229  0.8649 -0.3349
  122MOL    C2134143   7.016   4.650   0.623  0.1672  0.2014  0.9929
  122MOL    C2234144   7.295   4.515   0.665  0.4796  0.1502  0.6900
  122MOL    C2334145   7.429   4.466   0.672  0.7130  0.4996 -0.1672
  122MOL    H2434146   7.518   4.539   0.347  0.4967  0.4845  0.3820
  122MOL    H2534147   7.285   4.590   0.338  1.2083  1.1302 -0.9646
  122MOL    H2634148   7.044   4.585   0.436 -0.6925  2.4007 -0.0392
  122MOL    H2734149   7.060   4.678   0.718  1.4325 -1.1124  0.8048
  122MOL    H2834150   7.239   4.528   0.756 -0.7572  2.8493 -0.4025
  122MOL    H2934151   7.477   4.446   0.766  1.5727 -1.1547 -0.9353
  122MOL    C3034152   6.874   4.677   0.623  0.7027  0.1236 -0.3413
  122MOL    C3134153   6.795   4.683   0.500 -0.3137  0.1685  0.3418
  122MOL    C3234154   6.661   4.720   0.513 -0.0999  0.0887 -0.6685
  122MOL    C3334155   6.604   4.739   0.642  0.3201 -0.4903 -0.0544
  122MOL    C3434156   6.470   4.800   0.648  0.3210 -0.3151  0.5834
  122MOL    C3534157   6.383   4.777   0.753  0.0282  0.5191 -0.4727
  122MOL    C3634158   6.677   4.723   0.758  0.2352  0.3011 -0.0974
  122MOL    C3734159   6.807   4.696   0.747 -0.4706  0.0549 -0.2616
  122MOL    H3834160   6.847   4.696   0.407 -0.7058 -0.9661 -0.0355
  122MOL    H3934161   6.609   4.732   0.419 -2.0836 -0.7715  0.2953
  122MOL    H4034162   6.431   4.861   0.568  1.5643 -0.3931 -0.1055
  122MOL    H4134163   6.406   4.703   0.828  1.2832  1.2757 -0.1069
  122MOL    H4234164   6.628   4.742   0.853 -0.0440 -0.5710 -0.0563
  122MOL    H4334165   6.864   4.690   0.839 -1.7106 -0.8160  0.4695
  122MOL    C4434166   6.256   4.852   0.781  0.4941 -0.0313  0.6810
  122MOL    C4534167   6.236   4.983   0.731 -0.0039  0.0373 -0.3881
  122MOL    C4634168   6.114   5.050   0.768 -0.2430 -0.1673  1.0216
  122MOL    C4734169   6.016   4.995   0.853  0.2211 -0.4821 -0.2523
  122MOL    C4834170   5.885   5.059   0.866  0.1122  0.0332 -0.2381
  122MOL    C4934171   5.773   4.991   0.890  0.0696  0.5491  0.3898
  122MOL    C5034172   6.036   4.866   0.896 -0.5738 -0.6183  0.1486
  122MOL    C5134173   6.154   4.795   0.855 -0.3892 -0.2746  0.2402
  122MOL    H5234174   6.309   5.038   0.675 -0.6278  0.7100 -0.5344
  122MOL    H5334175   6.091   5.146   0.725  0.2013 -0.6695 -0.3459
  122MOL    H5434176   5.887   5.167   0.859  0.7569  0.2059  2.1713
  122MOL    H5534177   5.780   4.885   0.909  2.7954  0.3964 -1.1871
  122MOL    H5634178   5.960   4.815   0.953 -1.2575 -1.3426 -1.3622
  122MOL    H5734179   6.167   4.692   0.887 -2.2603 -1.0719 -1.4436
  122MOL    C5834180   5.635   5.051   0.897 -0.0609 -0.1927  0.3488
  122MOL    C5934181   5.519   4.969   0.876  0.3415  0.3772  0.9175
  122MOL    C6034182   5.396   5.028   0.881  0.0714 -0.2229  0.5959
  122MOL    C6134183   5.382   5.173   0.891 -0.2755  0.3723 -0.0147
  122MOL    C6234184   5.243   5.222   0.895  0.1715  0.7235 -0.8708
  122MOL    C6334185   5.200   5.337   0.944  0.0101 -0.2121 -0.0632
  122MOL    C6434186   5.493   5.249   0.919  0.0371 -0.2407 -0.4922
  122MOL    C6534187   5.618   5.192   0.924  0.5507  0.6391  0.3744
  122MOL    H6634188   5.539   4.864   0.863 -2.0609 -0.2538  2.2328
  122MOL    H6734189   5.308   4.966   0.870  0.4050 -0.8300  1.2833
  122MOL    H6834190   5.169   5.159   0.847  0.2711 -0.8848  1.0284
  122MOL    H6934191   5.272   5.404   0.989 -0.5233 -0.5422  1.2931
  122MOL    H7034192   5.482   5.354   0.942 -0.5962 -0.5220  0.5133
  122MOL    H7134193   5.702   5.256   0.944  1.2933 -0.0595 -0.4640
  122MOL    C7234194   5.067   5.399   0.939  0.3094  0.1413 -0.1486
  122MOL    C7334195   5.047   5.532   0.977  0.4496  0.2748  0.1475
  122MOL    C7434196   4.923   5.599   0.958  0.7468  0.7051 -0.3451
  122MOL    C7534197   4.811   5.520   0.924  0.7113 -0.2938  0.5490
  122MOL    C7634198   4.673   5.568   0.918  0.0993 -0.3307  0.5164
  122MOL    C7734199   4.633   5.692   0.948  0.4051  0.2677 -0.1139
  122MOL    C7834200   4.826   5.388   0.880 -0.3121 -0.3100 -0.2547
  122MOL    C7934201   4.952   5.324   0.901  0.3121  0.4621  0.0472
  122MOL    H8034202   5.134   5.587   1.010  0.2176  1.5225 -1.2699
  122MOL    H8134203   4.917   5.704   0.983 -2.3110 -0.2527  3.5142
  122MOL    H8234204   4.595   5.501   0.886  0.1887 -0.8141  1.3082
  122MOL    H8334205   4.704   5.765   0.985  1.1430  0.1366 -1.2494
  122MOL    H8434206   4.743   5.333   0.836 -0.0139 -0.3332 -0.7892
  122MOL    H8534207   4.959   5.222   0.865  1.1087  0.4379  0.2711
  122MOL    C8634208   4.495   5.744   0.925  0.1342 -0.4884 -0.5022
  122MOL    C8734209   4.406   5.688   0.826 -0.6178 -0.1605  0.0389
  122MOL    C8834210   4.278   5.747   0.803 -0.6293 -0.1860 -0.2477
  122MOL    C8934211   4.231   5.853   0.882  0.5286 -0.3399  0.0179
  122MOL    C9034212   4.089   5.897   0.856 -0.1165 -0.0966  0.2792
  122MOL    C9134213   4.024   6.005   0.902 -0.4515  0.7384  0.0172
  122MOL    C9234214   4.318   5.906   0.978 -0.2071 -0.2474 -0.2831
  122MOL    C9334215   4.446   5.859   0.996  0.0057  0.1145  0.7930
  122MOL    H9434216   4.443   5.613   0.758 -0.4341 -0.2776  0.2670
  122MOL    H9534217   4.215   5.704   0.727 -3.0807  0.9064  1.1267
  122MOL    H9634218   4.039   5.827   0.791 -1.7674  2.9382 -1.8093
  122MOL    H9734219   4.061   6.078   0.972 -1.4963  0.8282  0.4961
  122MOL    H9834220   4.290   5.998   1.027  1.0996  0.8226 -1.4858
  122MOL    H9934221   4.504   5.909   1.072  0.6568  1.1732 -0.3807
  122MOL   C10034222   3.895   6.041   0.853  0.0715 -0.3030 -0.6134
  122MOL   C10134223   3.839   6.002   0.725 -0.1342 -0.5472  0.0244
  122MOL   C10234224   3.710   6.036   0.695 -0.4542 -0.7784  0.4676
  122MOL   C10334225   3.625   6.112   0.776  0.1307 -0.2616  0.1081
  122MOL   C10434226   3.499   6.152   0.725  0.1897 -0.1111  0.0177
  122MOL   C10534227   3.413   6.236   0.786  0.0968  0.4955  0.2369
  122MOL   C10634228   3.678   6.155   0.901 -0.4615 -0.1856  0.1823
  122MOL   C10734229   3.814   6.121   0.937 -0.1713  0.2003  0.5464
  122MOL   H10834230   3.890   5.930   0.662  0.0774 -1.3880  1.1380
  122MOL   H10934231   3.672   5.995   0.603 -1.8933 -0.3965  0.8884
  122MOL   H11034232   3.466   6.104   0.634  1.3197 -2.1954  0.6704
  122MOL   H11134233   3.438   6.273   0.884 -0.1071 -0.2409  0.5755
  122MOL   H11234234   3.626   6.207   0.980  1.6459 -1.3952  2.4351
  122MOL   H11334235   3.852   6.144   1.035  0.5210  0.3443  0.2503
  122MOL   C11434236   3.281   6.280   0.730 -0.1825 -0.2761 -0.1711
  122MOL   C11534237   3.225   6.223   0.611 -0.4627  0.2232 -0.3729
  122MOL   C11634238   3.090   6.259   0.577 -0.1476 -0.0969  0.6295
  122MOL   C11734239   3.017   6.351   0.654  0.5103 -0.4277 -0.4437
  122MOL   C11834240   2.880   6.398   0.619  0.5191  0.7296  0.1464
  122MOL   C11934241   2.789   6.323   0.560 -0.6550 -0.3715 -0.2392
  122MOL   C12034242   3.074   6.417   0.768  0.6925  0.1270  0.5193
  122MOL   C12134243   3.205   6.381   0.810 -0.3330  0.4981 -0.4056
  122MOL   H12234244   3.273   6.152   0.546 -2.6323 -2.3234  0.7173
  122MOL   H12334245   3.060   6.226   0.479  3.6810 -2.8590  0.2653
  122MOL   H12434246   2.855   6.501   0.639  2.3251  1.1441  0.3189
  122MOL   H12534247   2.817   6.222   0.534  1.2508  0.6296 -2.1615
  122MOL   H12634248   3.023   6.481   0.838 -1.3732  0.5052 -1.2682
  122MOL   H12734249   3.244   6.429   0.898 -0.4662  1.8075 -1.0392
  122MOL   C12834250   2.650   6.367   0.530  0.1078  1.3969 -0.5648
  122MOL   C12934251   2.621   6.507   0.529 -0.5442  0.7452  0.4525
  122MOL   C13034252   2.484   6.548   0.521  0.9789  0.9146  0.4786
  122MOL   C13134253   2.379   6.459   0.511  0.4183 -0.1329  0.1392
  122MOL   C13234254   2.244   6.509   0.503 -0.0324 -0.3337  0.1185
  122MOL   C13334255   2.216   6.625   0.438  0.1061 -0.9878 -0.5146
  122MOL   C13434256   2.406   6.321   0.521 -0.0990 -0.1062 -0.2304
  122MOL   C13534257   2.537   6.276   0.536  0.0115  0.8710  0.6309
  122MOL   H13634258   2.696   6.584   0.538 -0.2952  0.8879 -2.3541
  122MOL   H13734259   2.465   6.654   0.512  2.9388  1.1963 -0.7592
  122MOL   H13834260   2.163   6.453   0.546  2.1906 -2.1114  2.1345
  122MOL   H13934261   2.296   6.684   0.396  1.1551 -3.3559 -1.9940
  122MOL   H14034262   2.321   6.255   0.526  0.9147 -1.5358 -1.3662
  122MOL   H14134263   2.548   6.170   0.554  0.2631  0.4504 -1.7494
  122MOL   C14234264   2.087   6.674   0.419  0.0143  0.8568 -0.8524
  122MOL   C14334265   1.972   6.592   0.418  0.0043  0.5942 -0.2756
  122MOL   C14434266   1.847   6.648   0.421 -0.3685  0.2400  0.6144
  122MOL   C14534267   1.826   6.786   0.403  0.1844 -0.9255 -0.6197
  122MOL   C14634268   1.690   6.842   0.395  0.2795 -0.0502  0.1034
  122MOL   C14734269   1.656   6.970   0.358 -0.6503  0.4012 -0.1999
  122MOL   C14834270   1.941   6.867   0.391 -0.0243 -0.1419 -0.0427
  122MOL   C14934271   2.072   6.811   0.392 -0.1363  0.1504 -0.8094
  122MOL   H15034272   1.981   6.484   0.419  0.3325  0.6189  1.1541
  122MOL   H15134273   1.767   6.575   0.426 -1.0909  1.0404  0.8499
  122MOL   H15234274   1.612   6.772   0.421 -1.6886  2.2768  0.6381
  122MOL   H15334275   1.737   7.038   0.336  0.9475 -1.4795 -0.2079
  122MOL   H15434276   1.931   6.972   0.370  0.7710 -0.2927 -1.2128
  122MOL   H15534277   2.154   6.881   0.388  2.6230 -2.8236  1.5686
  122MOL   C15634278   1.516   7.021   0.333 -0.1293  0.0509  0.3799
  122MOL   C15734279   1.404   6.939   0.335  0.2761 -0.0876  1.0062
  122MOL   C15834280   1.278   6.991   0.313  0.3839  0.5700 -0.3292
  122MOL   C15934281   1.267   7.130   0.292  0.1802  0.9600  0.4999
  122MOL   C16034282   1.135   7.190   0.269 -0.1556 -0.2337 -0.1294
  122MOL   C16134283   1.035   7.132   0.201  0.1082  0.1340  0.5454
  122MOL   C16234284   1.383   7.212   0.279 -0.5591  0.6287 -0.8606
  122MOL   C16334285   1.507   7.154   0.295 -0.3999 -0.3315 -0.2002
  122MOL   H16434286   1.398   6.836   0.368 -0.8631 -0.8774 -1.5204
  122MOL   H16534287   1.192   6.926   0.309  1.1564 -0.5221  0.5459
  122MOL   H16634288   1.116   7.287   0.311 -0.5254 -1.1167  1.7655
  122MOL   H16734289   1.050   7.030   0.170  0.2459 -0.1343  1.4791
  122MOL   H16834290   1.376   7.319   0.268  0.5802  0.9930  1.6148
  122MOL   H16934291   1.594   7.217   0.282 -1.3148  0.8133 -0.9257
  122MOL   C17034292   0.902   7.193   0.171  0.1422  0.3758 -0.0566
  122MOL   C17134293   0.817   7.121   0.086 -0.1346  0.1491  0.3571
  122MOL   C17234294   0.696   7.179   0.042  0.0219  0.1111 -0.1115
  122MOL   C17334295   0.642   7.302   0.097 -0.1523  0.1748  0.3111
  122MOL   C17434296   0.517   7.354   0.073  0.0976 -0.3223 -0.2797
  122MOL   C17534297   0.419   7.303   8.134 -0.4860  1.1753  0.1039
  122MOL   C17634298   0.726   7.376   0.179  0.1175 -0.6909 -0.1281
  122MOL   C17734299   0.856   7.327   0.210 -0.2345  0.5202  0.2204
  122MOL   H17834300   0.846   7.022   0.054 -1.2266 -0.0628  0.0017
  122MOL   H17934301   0.631   7.116   8.127  0.9313  0.7784 -1.8579
  122MOL   H18034302   0.495   7.445   0.128  1.0497 -1.1413  1.4997
  122MOL   H18134303   0.440   7.213   8.078  1.2331 -0.1131  2.7589
  122MOL   H18234304   0.693   7.472   0.216 -1.7054  0.2436 -3.8922
  122MOL   H18334305   0.917   7.390   0.272  1.1521  0.9870 -1.5880
  122MOL   C18434306   0.298   7.367   8.099 -0.1477  0.2031 -0.4817
  122MOL   C18534307   0.239   7.333   7.976  0.6085  0.3231  0.2095
  122MOL   C18634308   0.114   7.379   7.932  0.2299  0.5497 -0.3766
  122MOL   C18734309   0.057   7.490   8.004  0.1656 -0.2628 -0.6644
  122MOL   C18834310   8.078   7.559   7.956 -0.1998 -0.4365 -0.1055
  122MOL   C18934311   8.031   7.558   7.827 -0.9160  0.4120 -0.2114
  122MOL   C19034312   0.129   7.528   8.122  0.1951  0.3364  0.3458
  122MOL   C19134313   0.245   7.472   0.024 -0.2913  0.9226  0.2999
  122MOL   H19234314   0.290   7.254   7.922 -0.7803  0.1157 -0.8155
  122MOL   H19334315   0.070   7.342   7.840  0.7980  3.1823 -1.7583
  122MOL   H19434316   8.020   7.597   8.039  0.7659 -1.5976  1.1232
  122MOL   H19534317   8.098   7.510   7.756 -2.4650 -0.5741 -1.0245
  122MOL   H19634318   0.083   7.614   0.025  2.2390  0.6753  1.7705
  122MOL   H19734319   0.294   7.524   0.105 -1.0597  2.0123  0.0765
  122MOL   C19834320   7.914   7.614   7.764  0.0282 -0.1960 -0.1783
  122MOL   C19934321   7.878   7.578   7.635  0.2461 -0.2430 -0.3766
  122MOL   C20034322   7.762   7.631   7.571  0.7830 -0.1386 -0.0873
  122MOL   C20134323   7.677   7.729   7.635  0.2155  0.3270 -0.8003
  122MOL   C20234324   7.551   7.783   7.578 -0.6392 -0.4378 -0.2459
  122MOL   C20334325   7.498   7.746   7.459 -0.1687  0.5349 -0.1209
  122MOL   C20434326   7.708   7.757   7.772  0.4763 -0.2377  0.6520
  122MOL   C20534327   7.823   7.703   7.834  0.3283  0.9497 -0.0845
  122MOL   H20634328   7.933   7.513   7.569 -1.8721 -2.9065  0.4272
  122MOL   H20734329   7.740   7.598   7.470  1.5098 -2.4868  0.4833
  122MOL   H20834330   7.509   7.869   7.627 -1.2378  1.0339 -3.1818
  122MOL   H20934331   7.552   7.666   7.410  0.7080  1.4974 -0.7625
  122MOL   H21034332   7.646   7.821   7.832 -1.8810 -1.3884 -0.5090
  122MOL   H21134333   7.853   7.725   7.935 -0.3983 -0.4134  0.4385
  122MOL   C21234334   7.385   7.814   7.394  0.3947 -0.9133  0.4768
  122MOL   C21334335   7.345   7.776   7.263  0.3412 -0.1554 -0.4949
  122MOL   C21434336   7.233   7.824   7.199  0.1562 -0.3390  0.2286
  122MOL   C21534337   7.153   7.927   7.255 -0.4616 -0.0519  0.0641
  122MOL   C21634338   7.052   7.977   7.168  0.5883  0.2653  0.2126
  122MOL   C21734339   6.935   8.031   7.203  0.0441 -0.3477 -0.9910
  122MOL   C21834340   7.189   7.970   7.384 -0.0639  0.1800  0.4184
  122MOL   C21934341   7.300   7.914   7.452  0.0730 -0.2970 -0.4422
  122MOL   H22034342   7.407   7.704   7.211  1.5769 -0.5094  1.4227
  122MOL   H22134343   7.215   7.793   7.097 -0.9064  0.3815  0.1926
  122MOL   H22234344   7.073   7.965   7.062  1.1899  0.1773  0.3437
  122MOL   H22334345   6.907   8.057   7.304 -1.0141  1.5053 -1.7362
  122MOL   H22434346   7.145   8.049   7.443  1.9469  1.5339  0.1522
  122MOL   H22534347   7.325   7.947   7.552  1.6586 -1.1966 -0.5151
  122MOL   C22634348   6.835   8.069   7.107 -0.4687  0.3818  0.8664
  122MOL   C22734349   6.706   8.073   7.152 -0.5472 -0.7138 -0.0065
  122MOL   C22834350   6.597   8.106   7.061 -1.0342 -0.1073 -0.0530
  122MOL   C22934351   6.622   8.116   6.922  0.1860  0.3983 -0.0715
  122MOL   C23034352   6.503   8.122   6.833  0.0861 -0.5253  0.9303
  122MOL   C23134353   6.505   0.046   6.719 -0.5600 -0.2908 -0.4904
  122MOL   C23234354   6.755   8.110   6.880  0.5931 -0.7489  0.8258
  122MOL   C23334355   6.862   8.092   6.972  0.0772 -0.0094 -0.3470
  122MOL   H23434356   6.695   8.049   7.257  0.6026  0.1570  0.3271
  122MOL   H23534357   6.496   8.105   7.099 -1.1176  1.6703 -0.1859
  122MOL   H23634358   6.417   8.066   6.866  1.1730 -2.3886  0.6843
  122MOL   H23734359   6.592   0.101   6.686 -2.0739  1.8319 -1.0078
  122MOL   H23834360   6.786   8.129   6.778  1.2683 -5.2830  0.1063
  122MOL   H23934361   6.959   8.101   6.926 -0.1261 -2.5255 -1.3410
  122MOL   C24034362   6.393   0.037   6.625 -0.0608 -0.1761  0.4824
  122MOL   C24134363   6.293   8.086   6.611  0.3455 -0.5277  1.0101
  122MOL   C24234364   6.192   8.104   6.513  0.0458 -0.6956 -0.1998
  122MOL   C24334365   6.180   0.081   6.445 -0.1952 -0.2298 -0.3916
  122MOL   C24434366   6.078   0.085   6.342 -0.3133  0.2581 -0.1913
  122MOL   C24534367   6.082   0.173   6.237  0.0951  0.0045  0.0856
  122MOL   C24634368   6.276   0.184   6.460 -1.0841  0.6021 -0.7244
  122MOL   C24734369   6.378   0.158   6.554 -0.3656  0.5922  0.3141
  122MOL   H24834370   6.296   7.992   6.664 -2.6268 -0.2311  1.7598
  122MOL   H24934371   6.123   8.025   6.488 -0.4670 -1.1588  2.4594
  122MOL   H25034372   5.998   0.013   6.353 -0.8029  0.9667  0.9772
  122MOL   H25134373   6.163   0.243   6.226  0.4445  0.0270  2.5230
  122MOL   H25234374   6.277   0.276   6.402 -0.9417  1.9319  1.3329
  122MOL   H25334375   6.448   0.238   6.575  0.8859 -0.7480  1.3351
  122MOL   C25434376   5.987   0.184   6.132 -0.5430  0.5264 -0.9032
  122MOL   C25534377   5.864   0.116   6.142 -0.0593  0.3780  0.3358
  122MOL   C25634378   5.772   0.106   6.031  0.1750 -0.0625  0.4278
  122MOL   C25734379   5.793   0.175   5.911  0.0184  0.4273  0.0902
  122MOL   C25834380   5.709   0.169   5.793  0.6884  0.0130  0.1356
  122MOL   C25934381   5.707   0.245   5.684 -0.8769 -0.3100 -0.2370
  122MOL   C26034382   5.914   0.246   5.904 -0.0416  0.8921 -0.4331
  122MOL   C26134383   6.011   0.256   6.011 -0.3292  0.6097  0.4498
  122MOL   H26234384   5.835   0.065   6.232  0.2028  0.6151  0.5558
  122MOL   H26334385   5.679   0.052   6.047 -0.1724  0.2557 -0.5036
  122MOL   H26434386   5.634   0.092   5.791 -0.5619  1.1804  0.8237
  122MOL   H26534387   5.645   0.211   5.602 -1.6721  1.3027 -0.3223
  122MOL   H26634388   5.941   0.309   5.821  1.9525  1.2304  0.4459
  122MOL   H26734389   6.109   0.298   5.991 -0.5318  0.5986 -0.6047
  122MOL   C26834390   5.784   0.368   5.663  0.1565  0.0987  0.1709
  122MOL   C26934391   5.763   0.479   5.747 -0.0786  0.1601 -0.0354
  122MOL   C27034392   5.842   0.598   5.730  0.0471  0.2378  0.2413
  122MOL   C27134393   5.946   0.609   5.634 -0.3198  0.5055 -0.3339
  122MOL   C27234394   6.035   0.724   5.624  0.5096 -0.0047 -0.2252
  122MOL   C27334395   6.066   0.810   5.724  0.2740  0.1401  0.3860
  122MOL   C27434396   5.963   0.491   5.552  0.1565 -0.3743  1.2531
  122MOL   C27534397   5.886   0.372   5.567  0.0067 -0.3333  0.0362
  122MOL   H27634398   5.693   0.483   5.829 -0.7357  1.1365 -0.6357
  122MOL   H27734399   5.825   0.683   5.795 -0.6456  1.1901 -1.1461
  122MOL   H27834400   6.073   0.739   5.524  0.0880 -0.2376 -0.4160
  122MOL   H27934401   6.027   0.798   5.824  0.7594 -0.0206  0.5567
  122MOL   H28034402   6.043   0.482   5.480 -0.6727  0.0441  0.2526
  122MOL   H28134403   5.910   0.285   5.508 -1.8177 -0.8370 -0.0006
  122MOL   H28234404   6.131   0.895   5.704  1.2994 -0.9357 -0.9365
  123MOL     C134405   6.747   3.256   4.473  0.8985 -0.6816 -0.2951
  123MOL     C234406   6.713   3.143   4.398  0.1824  1.4512  0.0286
  123MOL     C334407   6.584   3.116   4.369  0.0556  0.5524  0.3888
  123MOL     C434408   6.487   3.208   4.398 -0.0422  0.1196  0.0539
  123MOL     C534409   6.350   3.181   4.372  0.2340 -0.5828 -0.0986
  123MOL     C634410   6.291   3.060   4.358 -1.0065  0.0866 -0.3627
  123MOL     C734411   6.513   3.328   4.465 -0.0509 -0.0543 -0.1002
  123MOL     C834412   6.647   3.354   4.505 -0.2717  0.0147  0.4626
  123MOL     H934413   6.796   3.082   4.364 -0.1660  0.0351  1.6305
  123MOL    H1034414   6.564   3.024   4.316 -0.7835 -0.8300  3.0097
  123MOL    H1134415   6.294   3.273   4.368  0.2729 -0.5527  0.0513
  123MOL    H1234416   6.350   2.970   4.363  1.1847  1.3268 -2.5881
  123MOL    H1334417   6.433   3.390   4.501  0.3186 -0.0274  0.6765
  123MOL    H1434418   6.665   3.438   4.570  1.5114 -0.4604  0.5999
  123MOL    H1534419   6.852   3.270   4.491  0.1144  2.1234  2.4694
  123MOL    C1634420   6.149   3.047   4.335 -0.2428 -0.4496 -0.4696
  123MOL    C1734421   6.073   2.973   4.425  0.1431 -0.2314 -0.4467
  123MOL    C1834422   5.937   2.952   4.401 -0.0050 -0.1151 -0.3237
  123MOL    C1934423   5.869   3.038   4.301  0.0704  0.6070  0.0813
  123MOL    C2034424   5.723   3.028   4.295  0.6249 -0.3093 -0.1490
  123MOL    C2134425   5.650   3.068   4.193 -0.3997  0.1569 -0.3683
  123MOL    C2234426   5.946   3.126   4.223  0.5055  0.2482 -0.4620
  123MOL    C2334427   6.088   3.121   4.229  0.2478  0.3158 -0.0514
  123MOL    H2434428   6.114   2.931   4.516 -1.8629  0.4786  0.8192
  123MOL    H2534429   5.875   2.894   4.466 -0.6494  0.5687 -0.3175
  123MOL    H2634430   5.677   2.989   4.385  0.5749 -0.9261 -0.4410
  123MOL    H2734431   5.697   3.106   4.104  0.6659  1.8626  0.8849
  123MOL    H2834432   5.897   3.187   4.148 -0.1225 -0.5552 -0.7182
  123MOL    H2934433   6.156   3.183   4.173 -0.1861  1.5446  0.7645
  123MOL    C3034434   5.508   3.076   4.196  0.5431  1.0519  0.8129
  123MOL    C3134435   5.424   3.015   4.297 -0.0784 -0.3023 -0.1394
  123MOL    C3234436   5.280   3.021   4.286  0.7465 -0.0233 -0.2862
  123MOL    C3334437   5.224   3.097   4.184  0.1149 -0.7608 -0.6669
  123MOL    C3434438   5.077   3.099   4.161 -0.7086  0.0966 -0.2382
  123MOL    C3534439   4.973   3.074   4.245 -0.2249 -0.0473  0.1674
  123MOL    C3634440   5.307   3.173   4.101  0.1566  0.2429  0.3482
  123MOL    C3734441   5.445   3.166   4.106  0.1489  0.4653  0.1491
  123MOL    H3834442   5.474   2.972   4.383 -1.2255 -1.5423 -0.0840
  123MOL    H3934443   5.221   2.970   4.361  0.1072  1.0365 -0.0515
  123MOL    H4034444   5.045   3.116   4.059  2.2455 -2.7562 -1.7433
  123MOL    H4134445   4.994   3.052   4.349 -0.9593 -2.5794 -0.1730
  123MOL    H4234446   5.257   3.230   4.025  0.7367 -0.1439 -0.3357
  123MOL    H4334447   5.508   3.222   4.038 -1.1052  2.6503  0.7815
  123MOL    C4434448   4.833   3.056   4.200  0.4097 -0.1327 -0.4706
  123MOL    C4534449   4.736   3.022   4.304  0.6232 -0.6598 -0.4023
  123MOL    C4634450   4.599   3.020   4.280 -0.8508  0.4910 -0.3503
  123MOL    C4734451   4.547   3.046   4.150  0.4179  0.3944  0.7912
  123MOL    C4834452   4.403   3.039   4.136  0.7017 -0.4090  0.1026
  123MOL    C4934453   4.334   3.028   4.019 -0.5271 -0.0751  0.4289
  123MOL    C5034454   4.643   3.076   4.047 -0.2788  0.1041 -0.3964
  123MOL    C5134455   4.784   3.078   4.068 -0.7114  0.0115 -0.1112
  123MOL    H5234456   4.774   2.995   4.402  0.5425  0.2879 -0.1042
  123MOL    H5334457   4.528   2.998   4.358 -1.0488  0.2481 -0.5987
  123MOL    H5434458   4.357   3.042   4.234 -0.5578  5.1817 -0.4684
  123MOL    H5534459   4.399   3.024   3.932  2.1396  0.1880  2.3354
  123MOL    H5634460   4.608   3.104   3.949 -0.0771 -1.3362 -0.8972
  123MOL    H5734461   4.838   3.107   3.980  0.1195  0.4906  0.5554
  123MOL    C5834462   4.192   3.015   4.003  1.0222  0.0654  0.6428
  123MOL    C5934463   4.098   3.087   4.079 -0.3660 -0.2337  0.0722
  123MOL    C6034464   3.961   3.066   4.065 -0.5654  0.0671  0.1644
  123MOL    C6134465   3.914   2.972   3.975  0.8874  0.1346 -1.1775
  123MOL    C6234466   3.767   2.958   3.971  0.6038 -0.2703  0.0898
  123MOL    C6334467   3.707   2.848   3.932  0.4825  0.4723  0.1277
  123MOL    C6434468   4.003   2.899   3.896  0.0917 -0.3613  0.2323
  123MOL    C6534469   4.140   2.931   3.902 -0.0919 -0.0312 -0.3091
  123MOL    H6634470   4.126   3.171   4.141  0.3737 -0.8320  0.5619
  123MOL    H6734471   3.892   3.125   4.124 -0.5397  0.0579  0.2036
  123MOL    H6834472   3.704   3.040   4.004 -1.4346 -0.6642 -2.6158
  123MOL    H6934473   3.768   2.763   3.904  0.4140  0.1315  1.0263
  123MOL    H7034474   3.965   2.825   3.826  2.5664 -0.7872 -0.7321
  123MOL    H7134475   4.207   2.861   3.855  1.1458  0.0502  1.2924
  123MOL    C7234476   3.562   2.823   3.930 -0.5373 -0.5874  0.4257
  123MOL    C7334477   3.522   2.717   3.847 -0.5898 -0.1619 -0.2869
  123MOL    C7434478   3.390   2.691   3.816  0.5431  0.5705  0.1680
  123MOL    C7534479   3.291   2.776   3.873 -0.0960  0.2936 -0.7723
  123MOL    C7634480   3.143   2.758   3.850  0.2611 -0.5458  0.1939
  123MOL    C7734481   3.091   2.696   3.745  0.0855  0.0885 -0.5294
  123MOL    C7834482   3.333   2.878   3.964 -0.2486  0.1346  0.8447
  123MOL    C7934483   3.468   2.901   3.999  0.6386  0.7753 -0.2943
  123MOL    H8034484   3.598   2.666   3.790 -0.1319 -0.8120  0.8774
  123MOL    H8134485   3.369   2.607   3.751  2.2876  1.0274 -1.0122
  123MOL    H8234486   3.081   2.802   3.926  0.0090  0.9077 -0.8373
  123MOL    H8334487   3.162   2.656   3.674  1.5414  2.7850 -0.6940
  123MOL    H8434488   3.251   2.934   4.006 -0.4896  0.0363  0.5123
  123MOL    H8534489   3.508   2.969   4.073  2.3799 -1.1880  0.6502
  123MOL    C8634490   2.948   2.689   3.710  0.0740 -0.4067  0.2142
  123MOL    C8734491   2.854   2.776   3.767 -0.0976 -0.7562  0.4449
  123MOL    C8834492   2.716   2.767   3.736  1.3567 -0.3397 -0.0862
  123MOL    C8934493   2.674   2.662   3.654 -0.9605  0.3512  0.5710
  123MOL    C9034494   2.531   2.634   3.617  0.4723  0.3835  0.4005
  123MOL    C9134495   2.487   2.525   3.562 -0.2716  0.7719 -0.1953
  123MOL    C9234496   2.768   2.565   3.608 -0.6875 -1.1918  0.2671
  123MOL    C9334497   2.904   2.587   3.623  0.0117 -0.5635 -0.1668
  123MOL    H9434498   2.871   2.851   3.843 -1.8554 -0.8532  0.9657
  123MOL    H9534499   2.642   2.832   3.779  0.6250 -2.0289  1.2377
  123MOL    H9634500   2.460   2.714   3.634 -0.9584 -0.7798 -0.0450
  123MOL    H9734501   2.547   2.439   3.539 -0.7873  0.2776  0.2756
  123MOL    H9834502   2.743   2.477   3.552 -0.4059  1.2579 -3.8739
  123MOL    H9934503   2.973   2.510   3.592  0.4209 -0.3457  0.2018
  123MOL   C10034504   2.341   2.502   3.536  0.0821  0.2131 -0.3005
  123MOL   C10134505   2.233   2.588   3.572 -0.5358 -0.4455  0.1510
  123MOL   C10234506   2.099   2.550   3.546  0.4367 -1.0021  0.0995
  123MOL   C10334507   2.070   2.430   3.479 -0.4701 -0.2878 -0.3087
  123MOL   C10434508   1.931   2.394   3.457 -0.4828  0.0562 -0.3483
  123MOL   C10534509   1.879   2.281   3.400 -0.0908 -0.6575 -0.0318
  123MOL   C10634510   2.178   2.344   3.452 -0.5127 -0.0545  0.7874
  123MOL   C10734511   2.312   2.379   3.480  0.9877  0.0904 -0.0992
  123MOL   H10834512   2.242   2.680   3.628 -1.1692 -1.2683  1.6339
  123MOL   H10934513   2.022   2.617   3.581  1.2011  1.6343 -3.0315
  123MOL   H11034514   1.852   2.461   3.488 -2.4216 -0.8679 -3.0769
  123MOL   H11134515   1.948   2.203   3.370 -0.9709 -1.0566 -1.0582
  123MOL   H11234516   2.155   2.245   3.416  1.6955 -0.7025  1.1195
  123MOL   H11334517   2.390   2.315   3.441  0.4673  0.2635 -1.4404
  123MOL   C11434518   1.736   2.253   3.367 -0.2894 -0.8294 -0.3427
  123MOL   C11534519   1.631   2.351   3.370 -0.4111  0.5740  0.0166
  123MOL   C11634520   1.505   2.313   3.328 -0.0310  0.1736  0.1697
  123MOL   C11734521   1.481   2.186   3.274 -0.3556 -0.5068  0.2239
  123MOL   C11834522   1.342   2.145   3.233 -0.2120  1.1215  0.2774
  123MOL   C11934523   1.284   2.021   3.230 -0.6366 -0.1617  0.3716
  123MOL   C12034524   1.584   2.096   3.271 -0.7201 -0.0178 -0.3940
  123MOL   C12134525   1.711   2.125   3.320 -0.0184  0.6986 -0.2419
  123MOL   H12234526   1.664   2.454   3.379  0.8501 -0.0130  2.4879
  123MOL   H12334527   1.427   2.386   3.333 -1.3398 -1.0803 -1.3402
  123MOL   H12434528   1.288   2.231   3.196  0.3577  0.6004 -1.7960
  123MOL   H12534529   1.340   1.934   3.260 -1.4838 -0.6781  0.4562
  123MOL   H12634530   1.570   1.999   3.225  2.9772 -1.3561  1.1455
  123MOL   H12734531   1.795   2.059   3.303  0.8157  1.8041 -0.4580
  123MOL   C12834532   1.150   1.995   3.181  0.1881 -0.4159  0.3694
  123MOL   C12934533   1.090   1.870   3.210 -0.0159  0.2965  0.2587
  123MOL   C13034534   0.970   1.829   3.153 -0.3461  0.1838  0.1099
  123MOL   C13134535   0.900   1.911   3.060 -0.1991  0.2119  0.4467
  123MOL   C13234536   0.768   1.882   3.010  0.5171 -0.3871 -0.2955
  123MOL   C13334537   0.727   1.885   2.881 -0.0859 -0.4172 -0.0020
  123MOL   C13434538   0.957   2.037   3.029  0.0427  0.0589 -0.0356
  123MOL   C13534539   1.084   2.077   3.085  0.1886  0.3768  0.4161
  123MOL   H13634540   1.149   1.810   3.277  1.4628 -1.1779 -2.3014
  123MOL   H13734541   0.922   1.741   3.192 -0.8386  0.4162  0.0374
  123MOL   H13834542   0.698   1.866   3.092 -0.4274 -1.6113 -1.3327
  123MOL   H13934543   0.796   1.900   2.799  1.8829 -0.9678  1.5115
  123MOL   H14034544   0.919   2.107   2.955 -1.8283 -0.7616  0.1298
  123MOL   H14134545   1.128   2.169   3.049  3.6578 -1.0860  0.7066
  123MOL   C14234546   0.591   1.864   2.829 -0.8517  0.4612  0.0417
  123MOL   C14334547   0.469   1.853   2.908  0.2583  0.1105 -0.0549
  123MOL   C14434548   0.344   1.829   2.847 -0.2499  0.0762 -0.0665
  123MOL   C14534549   0.330   1.828   2.709 -1.0248 -0.2803 -1.0996
  123MOL   C14634550   0.190   1.826   2.671 -0.3123  0.3923 -0.1354
  123MOL   C14734551   0.162   1.868   2.545  0.2317  0.1395 -0.0380
  123MOL   C14834552   0.445   1.836   2.629  0.0322  0.3117  0.2029
  123MOL   C14934553   0.572   1.848   2.688  0.5181  0.9513 -0.1824
  123MOL   H15034554   0.476   1.863   3.015  1.3490 -2.6367  0.1649
  123MOL   H15134555   0.260   1.817   2.915 -0.5217 -3.2109 -0.8681
  123MOL   H15234556   0.108   1.783   2.726  0.6589 -1.1810  0.1107
  123MOL   H15334557   0.241   1.913   2.486 -0.5807  0.8121 -0.6136
  123MOL   H15434558   0.442   1.834   2.521 -1.9534  1.1263  0.2139
  123MOL   H15534559   0.660   1.836   2.626 -0.4614 -0.6678 -1.2862
  123MOL   C15634560   0.036   1.871   2.475  0.0973  0.6328 -0.1401
  123MOL   C15734561   0.028   1.880   2.334  0.2183  0.1131 -0.8502
  123MOL   C15834562   8.046   1.878   2.267  0.3832  0.4882 -0.3362
  123MOL   C15934563   7.926   1.871   2.346 -0.4983  0.0342  0.4476
  123MOL   C16034564   7.793   1.887   2.283  0.5841 -0.9717 -0.2967
  123MOL   C16134565   7.756   1.885   2.154  0.0991  0.2317 -0.3242
  123MOL   C16234566   7.935   1.861   2.488 -0.3438  0.9353 -0.4843
  123MOL   C16334567   8.060   1.861   2.547 -0.7212 -0.1333  0.4725
  123MOL   H16434568   0.124   1.888   2.285  1.0766 -0.8485  0.5918
  123MOL   H16534569   8.054   1.905   2.163  0.5633  0.2090 -0.3958
  123MOL   H16634570   7.721   1.913   2.359 -0.0167  1.6833 -1.7399
  123MOL   H16734571   7.836   1.862   2.084 -1.1011  0.1651 -1.6905
  123MOL   H16834572   7.844   1.865   2.547 -1.1494  3.1076 -1.8088
  123MOL   H16934573   8.068   1.860   2.655  2.0891  0.1055  0.3241
  123MOL   C17034574   7.624   1.909   2.093  0.3667 -0.1553 -0.0176
  123MOL   C17134575   7.611   1.898   1.953  0.5407 -0.8371  0.3138
  123MOL   C17234576   7.485   1.914   1.890 -0.4406 -0.5090 -0.2759
  123MOL   C17334577   7.372   1.951   1.964  0.4531  0.9305  0.2440
  123MOL   C17434578   7.242   1.961   1.904 -0.4953 -0.4085 -0.0985
  123MOL   C17534579   7.222   1.972   1.774  0.6340 -0.4015  0.4520
  123MOL   C17634580   7.383   1.949   2.111 -0.6704 -0.4459  0.7757
  123MOL   C17734581   7.510   1.937   2.170  0.7287  0.4255 -0.4196
  123MOL   H17834582   7.698   1.874   1.893  0.4387  0.1532 -0.2480
  123MOL   H17934583   7.478   1.905   1.783  0.8750  2.9855 -0.7402
  123MOL   H18034584   7.163   1.951   1.977 -0.2645 -1.1680  0.0538
  123MOL   H18134585   7.308   1.964   1.709 -0.1167 -0.6612 -0.5240
  123MOL   H18234586   7.293   1.961   2.169  0.2561 -2.6733  2.7425
  123MOL   H18334587   7.512   1.937   2.278  2.1096 -0.8495 -0.4299
  123MOL   C18434588   7.092   1.982   1.711  0.0711 -0.2429  0.2275
  123MOL   C18534589   7.083   2.002   1.571 -0.4675  0.3623  0.4764
  123MOL   C18634590   6.957   2.012   1.512 -0.9606 -0.2145 -0.1046
  123MOL   C18734591   6.837   2.020   1.585  0.1100 -0.2702  0.2648
  123MOL   C18834592   6.701   2.046   1.529  0.0905  0.6189  0.1980
  123MOL   C18934593   6.680   2.076   1.400  0.0208  0.0019  0.3094
  123MOL   C19034594   6.847   2.008   1.728  0.2832 -0.4162 -0.4766
  123MOL   C19134595   6.971   1.989   1.783 -0.5286  0.1943 -0.1571
  123MOL   H19234596   7.170   2.010   1.508 -1.8615 -1.3806 -1.7767
  123MOL   H19334597   6.968   2.019   1.404  0.9739  0.2438  0.0959
  123MOL   H19434598   6.620   2.032   1.598 -0.0503 -1.3405 -0.3260
  123MOL   H19534599   6.755   2.097   1.325 -0.8465  2.0511  0.0022
  123MOL   H19634600   6.756   2.018   1.785  1.1202 -0.6676  0.9184
  123MOL   H19734601   6.978   1.980   1.890  0.3919 -0.9079 -0.2916
  123MOL   C19834602   6.543   2.101   1.343 -0.2185  0.2758  1.2705
  123MOL   C19934603   6.527   2.104   1.205 -0.1763  0.2117 -0.0006
  123MOL   C20034604   6.398   2.120   1.142 -0.1606  0.0323 -0.2791
  123MOL   C20134605   6.284   2.137   1.221 -0.1311  0.0267 -0.9425
  123MOL   C20234606   6.151   2.162   1.152 -0.3912  0.2264  0.0573
  123MOL   C20334607   6.144   2.232   1.033 -0.5852 -0.0585 -1.0233
  123MOL   C20434608   6.305   2.151   1.360 -0.7522 -0.4232 -0.8187
  123MOL   C20534609   6.428   2.126   1.419  0.2846 -0.7398 -0.3224
  123MOL   H20634610   6.610   2.082   1.140  0.8173 -3.5002  2.3391
  123MOL   H20734611   6.396   2.111   1.035  1.5016  1.8408 -0.4892
  123MOL   H20834612   6.069   2.114   1.203 -1.8487  0.2531 -2.2355
  123MOL   H20934613   6.228   2.291   1.000  0.1682  0.0236  0.9984
  123MOL   H21034614   6.222   2.160   1.429 -0.4998 -0.5997 -0.4856
  123MOL   H21134615   6.430   2.131   1.527  2.7638  1.0023 -0.4132
  123MOL   C21234616   6.018   2.246   0.958 -0.0476 -0.5927  0.3821
  123MOL   C21334617   6.025   2.323   0.837  0.2159 -0.0425  0.4652
  123MOL   C21434618   5.911   2.349   0.760 -0.6923  0.2677  0.0484
  123MOL   C21534619   5.783   2.307   0.802 -0.2355 -0.1754  0.2627
  123MOL   C21634620   5.674   2.329   0.713 -0.2567 -0.3468  0.1579
  123MOL   C21734621   5.541   2.309   0.734 -0.2569  0.4805  0.1319
  123MOL   C21834622   5.778   2.237   0.926  0.0978  0.0890 -0.8379
  123MOL   C21934623   5.892   2.199   0.999  0.2073  0.5695  0.5521
  123MOL   H22034624   6.118   2.366   0.803  0.0181 -2.3855 -3.4281
  123MOL   H22134625   5.931   2.411   0.674 -1.9009  0.2675 -0.2443
  123MOL   H22234626   5.701   2.363   0.614  3.5347  2.0773  1.9318
  123MOL   H22334627   5.510   2.283   0.834 -0.4264 -0.0384 -0.0538
  123MOL   H22434628   5.683   2.195   0.957  0.6253  0.1341  0.8456
  123MOL   H22534629   5.875   2.144   1.090  0.4435  0.6568  0.6492
  123MOL   C22634630   5.435   2.323   0.640 -0.0800 -0.3743  0.2144
  123MOL   C22734631   5.312   2.273   0.682  1.4030  0.0716 -0.0483
  123MOL   C22834632   5.199   2.281   0.599 -0.1036 -0.8005  0.0550
  123MOL   C22934633   5.208   2.330   0.465 -0.5730  0.9156  0.8361
  123MOL   C23034634   5.081   2.327   0.383  0.1832  0.4955  0.2852
  123MOL   C23134635   5.070   2.381   0.262  0.1486  0.4287  0.3639
  123MOL   C23234636   5.336   2.373   0.423 -0.5942 -0.7038  0.3598
  123MOL   C23334637   5.448   2.378   0.509 -0.1467  0.3119 -0.7676
  123MOL   H23434638   5.296   2.225   0.777  3.5402  0.8732  0.7400
  123MOL   H23534639   5.106   2.235   0.627 -1.4731  1.3752 -0.7967
  123MOL   H23634640   4.997   2.271   0.421 -1.8656  2.7745 -0.8033
  123MOL   H23734641   5.158   2.433   0.225 -1.0545  0.9563 -1.8365
  123MOL   H23834642   5.344   2.421   0.327 -2.2350  0.9113  1.0034
  123MOL   H23934643   5.547   2.408   0.476  0.7727 -0.8820  0.8538
  123MOL   C24034644   4.953   2.364   0.180 -0.7388  0.1629 -0.0301
  123MOL   C24134645   4.957   2.413   0.052  0.1420 -0.3595 -0.7485
  123MOL   C24234646   4.858   2.393   8.103  0.4783 -0.0999  0.2690
  123MOL   C24334647   4.746   2.312   8.136 -0.3601 -0.5628 -0.0196
  123MOL   C24434648   4.640   2.284   8.039 -0.2672  1.0535  0.1352
  123MOL   C24534649   4.660   2.272   7.905 -0.4732  0.7008 -0.3420
  123MOL   C24634650   4.737   2.265   0.120  0.6466  0.1083 -0.5092
  123MOL   C24734651   4.836   2.291   0.219 -0.1601  0.2724  0.1782
  123MOL   H24834652   5.048   2.461   0.022 -1.0634  1.4259 -1.5979
  123MOL   H24934653   4.873   2.438   8.006 -0.1938 -0.3686  0.0358
  123MOL   H25034654   4.544   2.264   8.085 -0.3352  1.7157  0.2779
  123MOL   H25134655   4.758   2.293   7.865  0.2749  1.8535  2.0172
  123MOL   H25234656   4.658   2.196   0.148  1.2356 -0.1372  0.5592
  123MOL   H25334657   4.816   2.241   0.312 -2.0597 -0.5216 -0.6156
  123MOL   C25434658   4.562   2.232   7.810  0.1963 -0.2773 -0.2824
  123MOL   C25534659   4.431   2.180   7.850 -0.1050  0.1123  0.4568
  123MOL   C25634660   4.334   2.146   7.755  0.1790  0.9912 -0.6934
  123MOL   C25734661   4.359   2.165   7.615 -0.6820 -0.2619  0.3284
  123MOL   C25834662   4.259   2.116   7.515 -0.4561 -0.1040 -0.2346
  123MOL   C25934663   4.181   2.004   7.528  0.3407  0.0653  0.1634
  123MOL   C26034664   4.487   2.213   7.576  0.3617  0.6796  0.2440
  123MOL   C26134665   4.582   2.260   7.674  0.6657 -0.1673  0.2776
  123MOL   H26234666   4.404   2.156   7.952 -0.6955  3.4721  1.1425
  123MOL   H26334667   4.236   2.113   7.787  0.0336 -0.4689 -2.5779
  123MOL   H26434668   4.243   2.181   7.430  0.1711  0.3196 -0.0344
  123MOL   H26534669   4.111   1.981   7.449  2.7831 -0.8817 -1.8019
  123MOL   H26634670   4.518   2.216   7.473 -0.3338  0.3552  0.0233
  123MOL   H26734671   4.680   2.292   7.641  0.3845 -0.2461 -0.6514
  123MOL   C26834672   4.180   1.890   7.615  0.1724  0.6977  0.1843
  123MOL   C26934673   4.058   1.828   7.642  0.7393 -0.1784 -0.6523
  123MOL   C27034674   4.051   1.719   7.734 -0.3147  0.2288 -0.1004
  123MOL   C27134675   4.166   1.670   7.798 -1.0191  0.1796 -0.4780
  123MOL   C27234676   4.156   1.569   7.901 -0.2201  0.9765  0.1464
  123MOL   C27334677   4.048   1.557   7.986  0.6068  0.0930 -0.3131
  123MOL   C27434678   4.287   1.721   7.759 -0.0447  0.1952  0.1257
  123MOL   C27534679   4.296   1.829   7.669 -0.1020 -0.7983  0.4739
  123MOL   H27634680   3.969   1.863   7.592  1.5959 -0.4941 -2.4214
  123MOL   H27734681   3.953   1.684   7.765  0.7944 -3.1716 -0.2409
  123MOL   H27834682   4.235   1.496   7.905 -0.1620  0.8775 -2.0651
  123MOL   H27934683   3.956   1.614   7.988  0.7115  0.2472  1.1732
  123MOL   H28034684   4.380   1.686   7.800 -0.0754  1.2325  1.1014
  123MOL   H28134685   4.390   1.879   7.651 -0.1714 -1.1290 -0.8955
  123MOL   H28234686   4.049   1.483   8.065 -1.2971  1.1294  0.7263
  124MOL     C134687   1.070   4.062   5.129  0.0495 -0.5982  0.0857
  124MOL     C234688   0.985   4.125   5.046 -0.7114 -0.3032  0.0821
  124MOL     C334689   0.848   4.104   5.055  0.0687  0.1405 -0.3448
  124MOL     C434690   0.793   4.021   5.153  0.0150  0.5594 -0.3817
  124MOL     C534691   0.642   4.002   5.151  0.0350  0.1884 -0.1920
  124MOL     C634692   0.577   3.933   5.242 -0.1699  0.3800 -0.0839
  124MOL     C734693   0.886   3.939   5.230 -0.1547 -0.5657 -0.6729
  124MOL     C834694   1.025   3.972   5.221  0.3155  0.0641 -0.2171
  124MOL     H934695   1.019   4.202   4.977  1.9979 -0.7435  0.8457
  124MOL    H1034696   0.777   4.157   4.994 -0.3655 -0.5863 -0.4786
  124MOL    H1134697   0.593   4.034   5.061 -1.0522 -0.9022 -0.0004
  124MOL    H1234698   0.641   3.895   5.319 -0.1285 -0.1765 -0.3906
  124MOL    H1334699   0.854   3.870   5.306 -2.0104  0.9782  0.0105
  124MOL    H1434700   1.093   3.921   5.288  1.1839  2.0919  0.4611
  124MOL    H1534701   1.175   4.089   5.126 -0.0884  0.1455  1.4076
  124MOL    C1634702   0.434   3.889   5.246  0.3652 -0.5255 -0.3609
  124MOL    C1734703   0.401   3.791   5.345 -0.4779  0.5782 -0.3213
  124MOL    C1834704   0.274   3.735   5.338  0.0095  0.3315 -0.7514
  124MOL    C1934705   0.175   3.779   5.241  0.0658  0.3829  0.7587
  124MOL    C2034706   0.031   3.736   5.246 -0.3069 -0.1550 -0.6211
  124MOL    C2134707   8.112   3.651   5.329 -0.2164  1.0501 -0.2983
  124MOL    C2234708   0.209   3.878   5.148  0.1353  0.1552  0.6945
  124MOL    C2334709   0.338   3.936   5.149 -0.1694 -0.6670  0.0834
  124MOL    H2434710   0.478   3.764   5.416 -0.5644 -0.5775 -0.6580
  124MOL    H2534711   0.243   3.655   5.403 -1.2220  0.1553 -1.5334
  124MOL    H2634712   8.115   3.783   5.170 -2.3325  0.6182  1.4074
  124MOL    H2734713   0.018   3.601   5.411  0.3050  2.3750  0.2051
  124MOL    H2834714   0.138   3.918   5.077  0.7565 -0.4984 -0.3083
  124MOL    H2934715   0.353   4.016   5.078 -1.1160 -0.2903  0.2911
  124MOL    C3034716   7.967   3.623   5.328  0.4853  0.4024 -0.0478
  124MOL    C3134717   7.877   3.664   5.233 -0.2582  0.4102 -0.1809
  124MOL    C3234718   7.746   3.623   5.238  0.0879 -0.1467  0.5663
  124MOL    C3334719   7.691   3.533   5.335 -0.6597  0.3061  0.2632
  124MOL    C3434720   7.550   3.486   5.336  0.4543 -0.2235 -0.0695
  124MOL    C3534721   7.455   3.512   5.246 -0.4229 -0.1652 -0.8771
  124MOL    C3634722   7.779   3.496   5.436 -0.2756  0.2601 -0.5945
  124MOL    C3734723   7.913   3.530   5.425 -0.0921  0.4169 -0.3808
  124MOL    H3834724   7.901   3.726   5.147  2.3862 -0.2176  0.0552
  124MOL    H3934725   7.682   3.654   5.156  1.6088 -0.4907 -0.7765
  124MOL    H4034726   7.526   3.412   5.412  0.6346 -0.7655 -0.5352
  124MOL    H4134727   7.465   3.583   5.166 -1.8774  0.7365 -0.2673
  124MOL    H4234728   7.758   3.433   5.521  0.0712  2.6923  1.3350
  124MOL    H4334729   7.972   3.485   5.504 -0.9449 -0.1963 -0.0884
  124MOL    C4434730   7.328   3.446   5.250 -1.0612  0.2315 -0.3944
  124MOL    C4534731   7.303   3.330   5.330  0.1041  0.0459  0.8355
  124MOL    C4634732   7.170   3.284   5.337  0.3103 -0.1864 -0.9553
  124MOL    C4734733   7.067   3.343   5.258 -0.7518  0.3148  0.5085
  124MOL    C4834734   6.926   3.292   5.246  1.0222 -0.3190 -0.5817
  124MOL    C4934735   6.891   3.169   5.282 -0.3346  0.0253  0.2815
  124MOL    C5034736   7.091   3.458   5.191  0.1031  1.0600 -0.2777
  124MOL    C5134737   7.224   3.508   5.184  0.3718  0.6119 -0.1069
  124MOL    H5234738   7.383   3.271   5.372  0.7766  1.0908  1.0378
  124MOL    H5334739   7.137   3.196   5.391 -0.6822 -0.3273 -1.7855
  124MOL    H5434740   6.856   3.365   5.208  0.6382  0.4053  1.4480
  124MOL    H5534741   6.974   3.106   5.309 -0.0859 -0.2594 -1.1231
  124MOL    H5634742   7.015   3.515   5.140  0.0880  0.7917 -0.5507
  124MOL    H5734743   7.243   3.603   5.136  0.4205 -0.0494 -1.4410
  124MOL    C5834744   6.755   3.106   5.276 -0.4554 -0.3999 -0.0719
  124MOL    C5934745   6.753   2.967   5.280  0.5079 -0.4431  0.5678
  124MOL    C6034746   6.634   2.897   5.270 -0.6682  0.9572 -0.2002
  124MOL    C6134747   6.514   2.964   5.252  0.1307  0.2989 -0.7568
  124MOL    C6234748   6.391   2.881   5.243  0.1747  0.6442 -0.0214
  124MOL    C6334749   6.279   2.934   5.192 -0.2356 -0.2788 -0.1622
  124MOL    C6434750   6.519   3.103   5.234  0.3860  0.2138  0.1272
  124MOL    C6534751   6.635   3.173   5.263 -0.3141 -1.2853  0.6870
  124MOL    H6634752   6.844   2.909   5.290  1.0351  0.4180  0.8305
  124MOL    H6734753   6.631   2.790   5.284 -0.7038  1.1880  1.6958
  124MOL    H6834754   6.391   2.777   5.273 -2.7907  0.6445  0.1847
  124MOL    H6934755   6.259   3.034   5.155  0.6136 -0.1603 -0.3098
  124MOL    H7034756   6.437   3.168   5.205  1.3472  0.5268 -1.9897
  124MOL    H7134757   6.634   3.279   5.245  1.6537 -1.3569  0.0784
  124MOL    C7234758   6.157   2.857   5.176 -0.1662  0.0089 -0.3261
  124MOL    C7334759   6.043   2.926   5.130 -0.0890 -0.5399  0.6424
  124MOL    C7434760   5.923   2.857   5.095  0.5669 -0.2988 -0.7637
  124MOL    C7534761   5.913   2.717   5.104 -0.3735 -0.4902 -0.5956
  124MOL    C7634762   5.797   2.633   5.079  0.5631  0.4194  0.2083
  124MOL    C7734763   5.689   2.670   5.005  0.8706 -0.0368  0.4859
  124MOL    C7834764   6.034   2.650   5.137 -0.0322  0.3496 -0.5374
  124MOL    C7934765   6.155   2.716   5.177  0.2269 -0.3753 -0.3721
  124MOL    H8034766   6.056   3.032   5.112 -0.5666 -0.6981 -0.7486
  124MOL    H8134767   5.834   2.908   5.062 -0.6841 -0.8948  1.5820
  124MOL    H8234768   5.805   2.534   5.122  1.5712  0.8515  1.0297
  124MOL    H8334769   5.675   2.773   4.975 -0.1631 -0.7621 -1.5544
  124MOL    H8434770   6.028   2.543   5.148  1.5569  0.4408  1.6207
  124MOL    H8534771   6.244   2.661   5.202  0.6675  0.5758  0.2047
  124MOL    C8634772   5.580   2.573   4.968 -0.0430 -0.6361 -0.3091
  124MOL    C8734773   5.588   2.441   5.001 -0.2275 -0.5651 -0.3333
  124MOL    C8834774   5.484   2.352   4.973 -0.6308 -0.2491 -0.1414
  124MOL    C8934775   5.367   2.406   4.907  0.0664 -0.5807 -0.7320
  124MOL    C9034776   5.260   2.306   4.864  0.5535 -0.4129  0.2764
  124MOL    C9134777   5.244   2.188   4.926  0.4480 -0.3142 -0.2154
  124MOL    C9234778   5.360   2.544   4.876 -0.1839  0.3838  0.0940
  124MOL    C9334779   5.464   2.630   4.910  0.3506  0.3452  0.1469
  124MOL    H9434780   5.675   2.408   5.056  1.9882  1.7930 -2.3198
  124MOL    H9534781   5.495   2.251   5.011 -1.0688 -0.5014 -0.6798
  124MOL    H9634782   5.205   2.330   4.775  1.1660  2.9299  0.7294
  124MOL    H9734783   5.299   2.149   5.010 -2.0876 -1.6467  0.8749
  124MOL    H9834784   5.273   2.583   4.825 -0.1604  0.1636 -0.1198
  124MOL    H9934785   5.460   2.737   4.903  1.2753  0.2575 -2.0481
  124MOL   C10034786   5.150   2.098   4.869 -0.2251 -0.1142 -0.2930
  124MOL   C10134787   5.165   2.061   4.732  0.6479 -0.0386 -0.3575
  124MOL   C10234788   5.082   1.961   4.682 -0.4650  0.2994 -0.0602
  124MOL   C10334789   4.978   1.906   4.758  0.2145  0.6574  0.3036
  124MOL   C10434790   4.891   1.797   4.705 -0.2075 -0.2040  0.5619
  124MOL   C10534791   4.787   1.737   4.765 -0.3183  0.0034 -0.0378
  124MOL   C10634792   4.961   1.945   4.896  0.0713 -0.1736  0.4185
  124MOL   C10734793   5.051   2.046   4.944  0.5112  0.2132  0.2708
  124MOL   H10834794   5.242   2.102   4.667  1.2998  0.6985  0.8696
  124MOL   H10934795   5.097   1.926   4.581 -0.0192 -0.6154  0.3151
  124MOL   H11034796   4.931   1.753   4.615  1.6700 -1.1073  1.8020
  124MOL   H11134797   4.753   1.775   4.861  3.0859  0.3781  1.0749
  124MOL   H11234798   4.885   1.901   4.958 -0.1449  0.9498  0.9642
  124MOL   H11334799   5.025   2.081   5.043  0.1655  1.6293 -0.2998
  124MOL   C11434800   4.716   1.617   4.708  0.1523  0.1308 -0.3256
  124MOL   C11534801   4.617   1.550   4.792 -0.3796 -0.1304  0.2230
  124MOL   C11634802   4.548   1.438   4.734  0.5770  0.2926 -0.0460
  124MOL   C11734803   4.563   1.392   4.603 -0.6033  0.1528 -0.0270
  124MOL   C11834804   4.504   1.271   4.554  0.3100 -0.2848 -0.6059
  124MOL   C11934805   4.500   1.223   4.427 -0.3743  0.1866  0.4566
  124MOL   C12034806   4.652   1.462   4.525  0.0614  0.7624 -0.1653
  124MOL   C12134807   4.734   1.567   4.573  0.1980 -0.2940  0.3170
  124MOL   H12234808   4.589   1.576   4.893  0.3138  0.1548  0.3409
  124MOL   H12334809   4.472   1.384   4.789 -0.5316  0.0771 -1.7626
  124MOL   H12434810   4.465   1.207   4.632  0.5526 -0.6038 -0.7463
  124MOL   H12534811   4.543   1.288   4.352 -2.7751 -0.9863 -2.0050
  124MOL   H12634812   4.688   1.416   4.434  0.1305  0.0859  0.2044
  124MOL   H12734813   4.793   1.624   4.503 -1.1961  0.9948  0.1673
  124MOL   C12834814   4.467   1.088   4.382 -0.4560 -0.3759 -0.0404
  124MOL   C12934815   4.472   1.055   4.245  0.6204 -0.1597  0.1108
  124MOL   C13034816   4.474   0.920   4.201  0.8116 -1.1851 -0.1136
  124MOL   C13134817   4.444   0.813   4.294 -0.8749 -0.5008 -0.0956
  124MOL   C13234818   4.468   0.666   4.266 -0.3251  0.5488  0.3302
  124MOL   C13334819   4.514   0.606   4.155  0.7676  0.3303 -0.5891
  124MOL   C13434820   4.418   0.849   4.428  0.1411  0.3623 -0.0917
  124MOL   C13534821   4.426   0.986   4.472 -0.1534  0.6165  0.0053
  124MOL   H13634822   4.495   1.134   4.175  4.4834 -2.6469 -1.5777
  124MOL   H13734823   4.493   0.905   4.096 -1.8900 -0.9438 -0.6864
  124MOL   H13834824   4.448   0.603   4.352 -0.1172 -1.0310 -0.7573
  124MOL   H13934825   4.513   0.666   4.066 -1.6837  0.9471 -0.2100
  124MOL   H14034826   4.439   0.774   4.502  0.1780  2.2704  1.8953
  124MOL   H14134827   4.421   0.995   4.579  0.3049  1.8657 -0.0691
  124MOL   C14234828   4.572   0.470   4.146 -0.2334 -0.3230  0.3474
  124MOL   C14334829   4.653   0.442   4.035 -0.0754  0.3915  0.8233
  124MOL   C14434830   4.734   0.325   4.032  0.3567 -0.6070 -0.0568
  124MOL   C14534831   4.724   0.234   4.139  0.0339  1.0307  0.6626
  124MOL   C14634832   4.826   0.127   4.159 -0.9174 -0.5280  1.0899
  124MOL   C14734833   4.943   0.125   4.092  0.0360 -0.2875 -0.3425
  124MOL   C14834834   4.635   0.258   4.245 -0.8260  0.5637  0.3062
  124MOL   C14934835   4.566   0.376   4.252 -0.3057  0.3695 -0.4862
  124MOL   H15034836   4.671   0.516   3.958  0.3189  1.9116  2.3697
  124MOL   H15134837   4.810   0.323   3.956 -2.5046 -0.4399 -3.0240
  124MOL   H15234838   4.812   0.050   4.234  0.9426 -0.0962  1.8990
  124MOL   H15334839   4.966   0.201   4.019 -1.4641 -0.2599 -0.8110
  124MOL   H15434840   4.625   0.192   4.330 -1.7105  1.3531  0.8221
  124MOL   H15534841   4.507   0.390   4.342  1.9747  0.5558  1.0108
  124MOL   C15634842   5.043   0.014   4.094 -0.0295 -0.0742 -0.3868
  124MOL   C15734843   5.174   0.038   4.048 -0.1181 -0.4133 -0.1652
  124MOL   C15834844   5.275   8.083   4.053 -0.0940 -0.4449  0.3201
  124MOL   C15934845   5.239   7.952   4.095  0.4008 -0.0597 -0.6832
  124MOL   C16034846   5.349   7.858   4.109 -0.0532  0.2887  0.5028
  124MOL   C16134847   5.362   7.767   4.211  0.9296  0.5301  0.0496
  124MOL   C16234848   5.109   7.930   4.138 -0.1369 -0.7316 -0.5304
  124MOL   C16334849   5.013   8.031   4.139  0.3607  0.3558 -0.1785
  124MOL   H16434850   5.201   0.131   4.000 -1.4078  0.5598  0.9459
  124MOL   H16534851   5.373   8.110   4.018 -0.4234  0.3700  0.0153
  124MOL   H16634852   5.428   7.864   4.036  1.1657  0.0905  1.7735
  124MOL   H16734853   5.286   7.763   4.288  1.5242  2.0486  0.7358
  124MOL   H16834854   5.086   7.831   4.174 -1.3503 -0.5412 -0.7677
  124MOL   H16934855   4.920   7.992   4.179  1.6732 -2.2266  0.5051
  124MOL   C17034856   5.477   7.681   4.229 -0.6906  0.6048  0.2442
  124MOL   C17134857   5.491   7.587   4.331 -0.1039  0.4149 -0.6658
  124MOL   C17234858   5.606   7.511   4.366  0.3062 -0.0412 -0.1268
  124MOL   C17334859   5.713   7.523   4.276  0.2112  0.2300  0.1008
  124MOL   C17434860   5.846   7.462   4.309  0.3870  0.4391  0.2641
  124MOL   C17534861   5.882   7.389   4.418 -0.2450 -0.7021  0.1342
  124MOL   C17634862   5.692   7.600   4.155  0.3597 -0.0937 -0.1937
  124MOL   C17734863   5.575   7.676   4.124  0.1638  0.6302  0.2957
  124MOL   H17834864   5.411   7.588   4.404  1.2806  2.2555  0.8955
  124MOL   H17934865   5.618   7.449   4.454 -0.0116 -0.4180 -0.3500
  124MOL   H18034866   5.930   7.478   4.242 -0.8584  0.4539 -1.3454
  124MOL   H18134867   5.807   7.369   4.492 -1.0383  1.6938  0.0080
  124MOL   H18234868   5.773   7.607   4.084  0.2719 -0.2892 -0.3125
  124MOL   H18334869   5.578   7.746   4.042  1.1021 -1.2873 -1.3445
  124MOL   C18434870   6.019   7.336   4.434  0.0807  0.2325  0.2384
  124MOL   C18534871   6.113   7.331   4.329  0.2926  0.3681  0.2477
  124MOL   C18634872   6.241   7.286   4.351 -0.7099 -0.4034  0.5827
  124MOL   C18734873   6.284   7.255   4.482  0.1591 -0.0692 -0.2780
  124MOL   C18834874   6.428   7.222   4.492 -0.0079  0.2135  0.0563
  124MOL   C18934875   6.482   7.132   4.581  0.4955  0.8424 -0.8448
  124MOL   C19034876   6.188   7.260   4.585 -0.2395  0.3268 -0.3425
  124MOL   C19134877   6.054   7.291   4.563 -0.8255  0.6058 -0.2777
  124MOL   H19234878   6.090   7.361   4.227  2.2971 -1.3194 -0.7251
  124MOL   H19334879   6.318   7.301   4.276 -0.6221  1.2022  0.9644
  124MOL   H19434880   6.496   7.275   4.426  3.5375 -1.9881  1.7469
  124MOL   H19534881   6.405   7.101   4.650  2.9134 -1.8503  0.7338
  124MOL   H19634882   6.213   7.233   4.687  0.2786 -1.6590 -0.9771
  124MOL   H19734883   5.980   7.280   4.641 -2.1270  0.6757 -1.4858
  124MOL   C19834884   6.624   7.094   4.606  0.2260  1.0117  0.1063
  124MOL   C19934885   6.736   7.165   4.554  0.4751  0.0900  0.5549
  124MOL   C20034886   6.858   7.114   4.581  0.0611 -0.3603 -0.4833
  124MOL   C20134887   6.877   7.005   4.663 -0.0010  0.2068 -0.4682
  124MOL   C20234888   7.011   6.945   4.687 -0.6710  0.0164 -0.0201
  124MOL   C20334889   7.123   6.970   4.613  0.5725  0.0398 -0.2622
  124MOL   C20434890   6.770   6.945   4.724  0.1359  0.2177 -0.4708
  124MOL   C20534891   6.644   6.990   4.696 -0.2089 -0.1744 -0.3265
  124MOL   H20634892   6.721   7.252   4.491 -1.3228  0.3973  1.3859
  124MOL   H20734893   6.940   7.155   4.524  0.0702  2.6016  1.5511
  124MOL   H20834894   7.016   6.876   4.770 -3.2886  0.1128  0.2582
  124MOL   H20934895   7.119   7.043   4.534  1.2065  1.0361  0.6025
  124MOL   H21034896   6.787   6.860   4.790  0.4374 -0.5656 -1.5504
  124MOL   H21134897   6.564   6.933   4.742 -0.9567 -0.3091 -1.7376
  124MOL   C21234898   7.255   6.906   4.630  0.4871  0.1449  0.0166
  124MOL   C21334899   7.345   6.915   4.524 -0.6799  0.4741 -0.4248
  124MOL   C21434900   7.476   6.856   4.531  0.4111 -0.7664  0.3311
  124MOL   C21534901   7.508   6.780   4.648  0.1975 -0.3274  0.1578
  124MOL   C21634902   7.635   6.713   4.677  0.4573 -0.2338  0.4277
  124MOL   C21734903   7.738   6.687   4.593 -0.7877 -0.0195  0.5633
  124MOL   C21834904   7.409   6.761   4.753  0.1429  0.2453  0.6912
  124MOL   C21934905   7.284   6.821   4.740  0.4776  0.9023  0.2766
  124MOL   H22034906   7.329   6.973   4.434 -0.2061 -0.4799 -1.1350
  124MOL   H22134907   7.537   6.862   4.441 -0.4959  0.1850 -0.2281
  124MOL   H22234908   7.636   6.661   4.772 -2.9543  2.1365  1.8761
  124MOL   H22334909   7.739   6.718   4.489 -0.6641  0.5596  0.7371
  124MOL   H22434910   7.430   6.705   4.843 -0.3226  1.4039  1.5425
  124MOL   H22534911   7.219   6.798   4.823 -1.7558  1.8812 -1.1562
  124MOL   C22634912   7.857   6.614   4.623 -0.2271 -0.5857 -0.5486
  124MOL   C22734913   7.867   6.531   4.735  0.1317 -0.7527  0.8972
  124MOL   C22834914   7.986   6.480   4.779  0.3789  0.1757 -0.3010
  124MOL   C22934915   8.105   6.504   4.704  0.8290  0.2670 -0.2643
  124MOL   C23034916   0.083   6.439   4.751 -0.2856 -0.5283 -0.1617
  124MOL   C23134917   0.100   6.349   4.850  0.5380  0.1613  0.3790
  124MOL   C23234918   8.093   6.582   4.586 -0.5253  0.2050  0.2021
  124MOL   C23334919   7.975   6.645   4.553 -0.1911 -0.5398 -0.2274
  124MOL   H23434920   7.776   6.515   4.791 -0.0600  1.1790  1.1907
  124MOL   H23534921   7.985   6.430   4.875  0.5281  0.5690 -0.0913
  124MOL   H23634922   0.172   6.468   4.697 -0.8283  0.1410 -0.7060
  124MOL   H23734923   0.017   6.319   4.912  0.1067 -1.6722 -1.0711
  124MOL   H23834924   0.039   6.600   4.530  1.4418  1.7359  3.6655
  124MOL   H23934925   7.969   6.709   4.467  0.4874 -0.7928 -0.4649
  124MOL   C24034926   0.229   6.278   4.875  0.1133 -0.3529  0.1957
  124MOL   C24134927   0.317   6.236   4.776  0.0460  0.2279  0.6584
  124MOL   C24234928   0.436   6.162   4.810 -0.0929  0.0651 -0.6741
  124MOL   C24334929   0.462   6.125   4.939  0.2363 -0.7054 -0.3762
  124MOL   C24434930   0.586   6.051   4.967 -0.3029  0.1893 -0.2948
  124MOL   C24534931   0.625   6.014   5.093 -0.4115 -0.0605 -0.1757
  124MOL   C24634932   0.372   6.168   5.040  0.2395 -0.3057 -0.2216
  124MOL   C24734933   0.258   6.246   5.009  0.4968  0.5098  0.3985
  124MOL   H24834934   0.294   6.272   4.677 -3.0708  2.1687  2.0255
  124MOL   H24934935   0.497   6.130   4.727  1.9378 -0.6746  1.0722
  124MOL   H25034936   0.640   6.032   4.876  0.1383 -1.8971  0.3846
  124MOL   H25134937   0.561   6.049   5.173 -1.8646 -1.5406 -0.6411
  124MOL   H25234938   0.389   6.152   5.145 -0.3350 -0.4418 -0.1525
  124MOL   H25334939   0.185   6.276   5.083  1.3633 -0.2947  1.6009
  124MOL   C25434940   0.739   5.931   5.124 -0.2427  1.7882  0.0517
  124MOL   C25534941   0.782   5.921   5.264  0.5859 -0.3340  0.6529
  124MOL   C25634942   0.891   5.838   5.302  0.3732 -0.4797 -0.0957
  124MOL   C25734943   0.949   5.756   5.199 -0.4815  0.5370  0.0985
  124MOL   C25834944   1.066   5.666   5.228 -0.1816 -0.4875  0.7688
  124MOL   C25934945   1.177   5.698   5.298  0.7850  0.2291 -0.1960
  124MOL   C26034946   0.900   5.762   5.067 -0.3057 -0.3424  0.4229
  124MOL   C26134947   0.795   5.854   5.029 -0.0981  0.4201  0.4574
  124MOL   H26234948   0.728   5.976   5.340  2.6423  1.7902  0.6208
  124MOL   H26334949   0.921   5.847   5.405  0.6911  1.4156 -0.3203
  124MOL   H26434950   1.060   5.566   5.187 -2.9007  0.8548 -2.4029
  124MOL   H26534951   1.247   5.619   5.321 -0.8792 -0.4966  2.6595
  124MOL   H26634952   0.946   5.698   4.994  0.0825  0.9390 -0.4839
  124MOL   H26734953   0.763   5.850   4.926 -2.1256 -0.9439  1.1100
  124MOL   C26834954   1.212   5.826   5.355  0.1883 -0.0947  0.8087
  124MOL   C26934955   1.177   5.943   5.282 -0.2079  0.3193  0.5446
  124MOL   C27034956   1.213   6.067   5.338  0.2461  0.0694  0.8956
  124MOL   C27134957   1.274   6.078   5.467 -0.1829  0.7757 -0.1926
  124MOL   C27234958   1.313   6.215   5.518  0.4153  0.6329 -0.1631
  124MOL   C27334959   1.275   6.337   5.477  0.3880 -0.4737 -0.1697
  124MOL   C27434960   1.312   5.961   5.534 -0.3760 -0.1819  1.0152
  124MOL   C27534961   1.274   5.837   5.483  0.1909 -0.7382  0.2874
  124MOL   H27634962   1.126   5.937   5.187  1.3097 -0.3986 -0.2446
  124MOL   H27734963   1.186   6.160   5.290  0.2998 -0.1369  0.4575
  124MOL   H27834964   1.387   6.207   5.597  0.2921  0.6383 -0.0468
  124MOL   H27934965   1.208   6.353   5.393 -2.6832  0.8321  2.4321
  124MOL   H28034966   1.348   5.965   5.636  0.1882  0.6521  0.7895
  124MOL   H28134967   1.285   5.745   5.538 -1.8397  0.2700  2.4579
  124MOL   H28234968   1.302   6.430   5.526 -2.4804  1.3310 -1.8303
  125MOL     C134969   7.132   4.890   4.657  0.3611 -0.1482  0.6197
  125MOL     C234970   7.037   4.799   4.614  1.3889  0.2353 -0.0095
  125MOL     C334971   6.915   4.849   4.570  0.3493 -0.5940 -0.3962
  125MOL     C434972   6.888   4.988   4.560 -0.0186 -0.4214 -0.5702
  125MOL     C534973   6.755   5.037   4.524 -0.0158  0.2824 -0.4529
  125MOL     C634974   6.650   4.966   4.476  0.6285  0.6750  0.2936
  125MOL     C734975   6.990   5.077   4.602  0.3785  0.1744  0.7703
  125MOL     C834976   7.112   5.028   4.651 -0.3057 -0.8859  0.5342
  125MOL     H934977   7.053   4.692   4.620  2.5063  0.3635 -0.4893
  125MOL    H1034978   6.842   4.771   4.552  2.4590 -2.1436 -2.4728
  125MOL    H1134979   6.748   5.143   4.544  2.1975  0.0805  1.7467
  125MOL    H1234980   6.655   4.859   4.456 -0.8989  0.7734 -0.7486
  125MOL    H1334981   6.966   5.182   4.613 -0.9747 -0.0829  0.4025
  125MOL    H1434982   7.187   5.100   4.683  1.3036 -1.5371 -1.6132
  125MOL    H1534983   7.227   4.861   4.701  1.2565  1.4769 -0.1951
  125MOL    C1634984   6.521   5.016   4.435  0.3025 -0.4276  0.3802
  125MOL    C1734985   6.409   4.935   4.418 -0.7086  0.0817 -0.8532
  125MOL    C1834986   6.285   4.989   4.390 -0.6414  0.1525  0.2569
  125MOL    C1934987   6.267   5.125   4.365 -0.3864  0.2207  0.2154
  125MOL    C2034988   6.129   5.173   4.334 -0.6217 -0.4039 -0.6504
  125MOL    C2134989   6.006   5.112   4.340 -0.5304  0.3928 -0.0227
  125MOL    C2234990   6.379   5.215   4.376  0.5421 -0.1343 -0.5501
  125MOL    C2334991   6.504   5.158   4.417 -0.0249  0.1083  0.0496
  125MOL    H2434992   6.419   4.831   4.443 -2.2488  0.5806  2.1646
  125MOL    H2534993   6.204   4.920   4.409 -0.7498  0.2029 -0.0288
  125MOL    H2634994   6.141   5.273   4.298  2.8763 -0.3105  0.5878
  125MOL    H2734995   6.003   5.013   4.383 -0.8243  1.2198  1.9268
  125MOL    H2834996   6.379   5.316   4.336 -0.6023  0.5112  1.0161
  125MOL    H2934997   6.590   5.222   4.432 -1.0895  1.2034  1.7727
  125MOL    C3034998   5.879   5.161   4.301 -0.1013  0.0768  0.2219
  125MOL    C3134999   5.770   5.077   4.291 -0.6233 -0.1455 -0.2193
  125MOL    C3235000   5.641   5.127   4.257 -0.1221  0.0008  0.3720
  125MOL    C3335001   5.623   5.267   4.237  0.5596  0.1862 -0.2696
  125MOL    C3435002   5.491   5.329   4.199  0.0472  0.3755  0.5815
  125MOL    C3535003   5.378   5.261   4.162 -0.4440 -0.6412 -0.3344
  125MOL    C3635004   5.736   5.351   4.228  0.0055 -0.1338 -0.4757
  125MOL    C3735005   5.862   5.295   4.270 -0.2129 -0.4984  0.0304
  125MOL    H3835006   5.779   4.971   4.310 -3.0505 -0.1061  1.4661
  125MOL    H3935007   5.554   5.064   4.253 -0.5884  0.6920 -0.5941
  125MOL    H4035008   5.490   5.437   4.200  3.2076  0.4333  0.4281
  125MOL    H4135009   5.380   5.154   4.152  0.6918 -0.9623  2.7711
  125MOL    H4235010   5.735   5.455   4.199  3.0355 -0.0293 -0.4417
  125MOL    H4335011   5.949   5.357   4.287  0.0877 -0.3701 -1.8930
  125MOL    C4435012   5.242   5.315   4.117 -0.5746 -0.7155  0.7487
  125MOL    C4535013   5.124   5.240   4.111  0.3494  0.0966 -0.2383
  125MOL    C4635014   5.004   5.294   4.068  0.3905 -0.0881 -0.4777
  125MOL    C4735015   4.994   5.439   4.050 -0.0699  0.5397 -0.4043
  125MOL    C4835016   4.864   5.499   4.019 -0.4037 -0.2169 -0.0191
  125MOL    C4935017   4.734   5.450   4.010 -0.3825  0.1765  0.4525
  125MOL    C5035018   5.112   5.519   4.065 -0.4231  0.8220 -0.7706
  125MOL    C5135019   5.231   5.454   4.106 -0.3478  0.2005 -0.2797
  125MOL    H5235020   5.128   5.132   4.119  0.5708  0.0644 -0.7163
  125MOL    H5335021   4.915   5.233   4.062  0.9700 -1.0487  0.5276
  125MOL    H5435022   4.877   5.604   3.997  2.6278 -0.5065  0.2226
  125MOL    H5535023   4.713   5.347   4.033  1.8173  0.0002  1.8188
  125MOL    H5635024   5.112   5.624   4.040 -1.0697  0.8502 -0.6642
  125MOL    H5735025   5.325   5.507   4.109 -0.5920  0.5970  0.7598
  125MOL    C5835026   4.625   5.537   3.971  0.0037 -0.1666  0.1847
  125MOL    C5935027   4.639   5.668   3.925  0.2553  0.3790  0.1729
  125MOL    C6035028   4.523   5.745   3.907  0.1804 -0.1025  0.5582
  125MOL    C6135029   4.396   5.690   3.918 -0.2621 -0.3072  0.2812
  125MOL    C6235030   4.283   5.780   3.890  0.4508 -0.1738 -0.0913
  125MOL    C6335031   4.161   5.766   3.937  0.5097 -0.4293  0.4874
  125MOL    C6435032   4.379   5.558   3.953  0.2616  0.6194 -0.4980
  125MOL    C6535033   4.493   5.484   3.977 -0.0042 -0.6838  0.8357
  125MOL    H6635034   4.726   5.731   3.925  1.6689 -1.5195 -0.3688
  125MOL    H6735035   4.534   5.852   3.895  0.0710 -0.0637  0.7917
  125MOL    H6835036   4.291   5.868   3.828 -1.6589 -0.8132 -1.2961
  125MOL    H6935037   4.143   5.685   4.006 -0.6211 -1.1800 -0.6753
  125MOL    H7035038   4.283   5.510   3.958  0.6478 -0.4406 -2.5024
  125MOL    H7135039   4.479   5.378   3.996 -0.7239 -1.1643 -1.9898
  125MOL    C7235040   4.037   5.844   3.911 -0.1902 -0.1980  0.1061
  125MOL    C7335041   3.920   5.809   3.982 -0.2549 -0.3228  0.6743
  125MOL    C7435042   3.798   5.877   3.969  0.6296 -0.0847 -0.1987
  125MOL    C7535043   3.798   5.992   3.889 -0.2740  0.3117 -0.5606
  125MOL    C7635044   3.675   6.073   3.870 -0.1962  0.1334  0.5457
  125MOL    C7735045   3.548   6.037   3.894  0.4860 -0.1645  0.0792
  125MOL    C7835046   3.918   6.032   3.817 -0.7498 -0.2176 -0.2957
  125MOL    C7935047   4.036   5.956   3.829 -0.3733  0.2244 -0.8022
  125MOL    H8035048   3.924   5.732   4.058 -1.6217  0.3025  1.3841
  125MOL    H8135049   3.710   5.850   4.025  0.6497  0.3748  0.0549
  125MOL    H8235050   3.695   6.171   3.829 -2.9197  0.7915  0.6607
  125MOL    H8335051   3.531   5.938   3.933 -1.9182 -0.5959 -1.9728
  125MOL    H8435052   3.917   6.123   3.758  0.4563 -0.3735 -0.5758
  125MOL    H8535053   4.117   5.998   3.772 -0.9475  0.1304 -1.7129
  125MOL    C8635054   3.427   6.126   3.872  0.0245 -0.7799  0.4126
  125MOL    C8735055   3.432   6.254   3.810  0.3522  0.0712 -0.1007
  125MOL    C8835056   3.314   6.333   3.786  0.2388  0.0660 -0.2285
  125MOL    C8935057   3.190   6.276   3.833  0.3051 -0.2794 -0.6245
  125MOL    C9035058   3.064   6.348   3.805  0.0999  0.2012  0.2177
  125MOL    C9135059   2.940   6.298   3.821 -0.6532 -0.2343  0.0141
  125MOL    C9235060   3.188   6.152   3.895  0.5434 -0.4092  0.7684
  125MOL    C9335061   3.301   6.076   3.911  0.2109  0.3737 -0.2023
  125MOL    H9435062   3.523   6.296   3.769  0.0314  0.0843 -0.8052
  125MOL    H9535063   3.319   6.433   3.746 -0.1279 -0.8364 -2.5986
  125MOL    H9635064   3.082   6.446   3.762 -2.5716  0.8649  0.4777
  125MOL    H9735065   2.917   6.199   3.856  4.0987 -0.5869  2.5780
  125MOL    H9835066   3.098   6.118   3.944  0.6124 -2.3186 -0.4037
  125MOL    H9935067   3.289   5.977   3.951 -1.1673  1.5669  2.4075
  125MOL   C10035068   2.812   6.366   3.779  0.0368  0.2307 -0.0283
  125MOL   C10135069   2.796   6.504   3.739  0.0825 -0.3505 -0.6566
  125MOL   C10235070   2.667   6.556   3.728  0.4971 -0.2817  0.0118
  125MOL   C10335071   2.556   6.470   3.743 -0.0727 -0.1097 -0.0672
  125MOL   C10435072   2.419   6.512   3.728  0.1020 -0.1813  0.3540
  125MOL   C10535073   2.377   6.637   3.699  0.1742 -0.2508  0.8070
  125MOL   C10635074   2.576   6.334   3.771 -0.1971 -0.3647 -0.2442
  125MOL   C10735075   2.702   6.281   3.785 -0.0206  0.7264  0.4931
  125MOL   H10835076   2.879   6.574   3.735  0.0152 -0.2830 -0.9329
  125MOL   H10935077   2.644   6.660   3.711 -0.9782 -0.5515  0.3151
  125MOL   H11035078   2.339   6.440   3.743 -0.1323  0.0909  0.4126
  125MOL   H11135079   2.449   6.715   3.682  0.5360 -0.0626  3.0508
  125MOL   H11235080   2.493   6.268   3.793 -1.9258  1.5393 -1.0120
  125MOL   H11335081   2.712   6.178   3.815 -0.1431  0.7826  0.7237
  125MOL   C11435082   2.233   6.664   3.685 -0.1349  0.8122  0.2661
  125MOL   C11535083   2.192   6.794   3.688 -0.0756 -0.2647  0.4136
  125MOL   C11635084   2.056   6.827   3.648 -0.1582  1.0094 -0.2296
  125MOL   C11735085   1.959   6.727   3.616  0.2007  0.0126 -0.1812
  125MOL   C11835086   1.820   6.751   3.580 -0.7347 -0.0181 -0.1012
  125MOL   C11935087   1.755   6.867   3.583  0.2210  0.4644  0.0928
  125MOL   C12035088   2.003   6.596   3.612 -1.0393 -0.0672 -0.7359
  125MOL   C12135089   2.137   6.557   3.655 -0.3027 -0.7677  0.9373
  125MOL   H12235090   2.254   6.878   3.715 -1.7109  0.7827  1.0414
  125MOL   H12335091   2.017   6.927   3.645  0.0746  1.0571 -3.7405
  125MOL   H12435092   1.770   6.659   3.554 -1.6974  0.4431  0.0918
  125MOL   H12535093   1.813   6.956   3.604  0.0181  0.6306 -0.0502
  125MOL   H12635094   1.940   6.517   3.575 -1.3463  1.6270 -4.0122
  125MOL   H12735095   2.173   6.456   3.642  2.4218  0.0357  2.0140
  125MOL   C12835096   1.612   6.886   3.542  0.8924  0.6665  0.2597
  125MOL   C12935097   1.530   6.783   3.497 -0.2973 -0.0738 -0.0575
  125MOL   C13035098   1.396   6.810   3.473 -0.5649  0.2294 -0.1531
  125MOL   C13135099   1.340   6.937   3.492  0.4136  0.1677 -0.3260
  125MOL   C13235100   1.196   6.957   3.457 -0.2989  0.6029 -0.0238
  125MOL   C13335101   1.118   7.061   3.479 -0.5131  0.2385  0.4338
  125MOL   C13435102   1.420   7.042   3.547  0.1823  0.0711 -0.0186
  125MOL   C13535103   1.554   7.016   3.559  0.1754  0.1803  0.7006
  125MOL   H13635104   1.578   6.689   3.472 -0.1466  0.7321 -3.0811
  125MOL   H13735105   1.334   6.728   3.439  0.4720 -0.0533 -1.4082
  125MOL   H13835106   1.161   6.873   3.398  0.4486 -0.6231  1.2495
  125MOL   H13935107   1.169   7.139   3.532  1.8999  1.1508 -3.0467
  125MOL   H14035108   1.379   7.138   3.574 -0.2826 -0.5668  1.6251
  125MOL   H14135109   1.622   7.092   3.596 -0.1086 -0.2781  2.1733
  125MOL   C14235110   0.979   7.093   3.431  0.2314 -0.1322 -0.0176
  125MOL   C14335111   0.916   7.215   3.461  0.7710 -0.1834 -0.6882
  125MOL   C14435112   0.792   7.250   3.406 -0.1786  0.1002  0.8200
  125MOL   C14535113   0.722   7.159   3.326  0.0085  0.3475  0.6463
  125MOL   C14635114   0.582   7.184   3.283  0.2126  0.3204 -0.3370
  125MOL   C14735115   0.505   7.295   3.310  0.2864  0.3304  0.5769
  125MOL   C14835116   0.779   7.032   3.298 -0.1317 -0.4659 -0.4040
  125MOL   C14935117   0.908   7.002   3.348 -0.4518  0.2285  0.4187
  125MOL   H15035118   0.984   7.290   3.498 -0.6032  1.5653 -1.6402
  125MOL   H15135119   0.765   7.349   3.438  0.0585  0.0924  1.0430
  125MOL   H15235120   0.536   7.099   3.234  1.8645 -0.1207 -1.1663
  125MOL   H15335121   0.555   7.382   3.352 -1.0245  1.9835 -1.2035
  125MOL   H15435122   0.730   6.963   3.230 -0.0938  0.2841 -1.1979
  125MOL   H15535123   0.952   6.909   3.317  0.5574  0.0197  2.3567
  125MOL   C15635124   0.364   7.315   3.268 -0.5176  0.2811 -0.5551
  125MOL   C15735125   0.294   7.424   3.324  0.4849 -0.0108  0.7766
  125MOL   C15835126   0.157   7.452   3.293  0.2590  0.1495  0.5766
  125MOL   C15935127   0.095   7.372   3.194  0.3722 -0.6316  0.0627
  125MOL   C16035128   8.100   7.402   3.145 -0.5145  0.2073  0.0131
  125MOL   C16135129   8.023   7.508   3.168  0.3092 -0.3100 -0.3442
  125MOL   C16235130   0.166   7.262   3.143 -0.3687  0.2141  0.9108
  125MOL   C16335131   0.297   7.230   3.184 -0.0759 -1.0201  0.5709
  125MOL   H16435132   0.351   7.485   3.393  1.0760  1.6103 -1.0998
  125MOL   H16535133   0.104   7.532   3.341 -0.7086  0.2925 -0.7125
  125MOL   H16635134   8.058   7.329   3.077  0.1109  0.6932 -0.9099
  125MOL   H16735135   8.063   7.582   3.236  0.6783  0.0714 -0.9761
  125MOL   H16835136   0.123   7.196   3.068  1.3256  2.0418 -1.7683
  125MOL   H16935137   0.342   7.141   3.141  0.0153 -0.1513 -1.1762
  125MOL   C17035138   7.880   7.518   3.118  0.3804 -0.1380 -0.8697
  125MOL   C17135139   7.795   7.607   3.181 -0.5548 -0.4493  0.0695
  125MOL   C17235140   7.664   7.627   3.139 -1.0685  0.8451 -0.6822
  125MOL   C17335141   7.616   7.549   3.029  0.1875 -0.7172 -0.0869
  125MOL   C17435142   7.481   7.579   2.970 -0.6236 -0.3475  0.4665
  125MOL   C17535143   7.388   7.666   3.008  0.4830  0.1717 -0.6947
  125MOL   C17635144   7.691   7.443   2.977 -0.1939  0.3008  0.0600
  125MOL   C17735145   7.826   7.429   3.018  0.0472 -0.2861 -0.3490
  125MOL   H17835146   7.850   7.674   3.246  0.0100  1.0521 -1.9033
  125MOL   H17935147   7.602   7.708   3.175 -2.2291  1.1299 -3.2229
  125MOL   H18035148   7.458   7.517   2.885 -0.9548 -0.7535  0.8542
  125MOL   H18135149   7.396   7.735   3.090  2.0021 -1.1679  0.3088
  125MOL   H18235150   7.659   7.374   2.900 -1.2452 -2.2855  2.7187
  125MOL   H18335151   7.885   7.347   2.980 -1.8296 -2.7267  1.7456
  125MOL   C18435152   7.257   7.674   2.939  0.6283 -0.2767  0.7463
  125MOL   C18535153   7.211   7.587   2.837  0.1281  0.1446  0.5094
  125MOL   C18635154   7.078   7.598   2.800  0.2110 -0.0800  0.0842
  125MOL   C18735155   6.997   7.706   2.833  0.6177 -0.9287 -0.7226
  125MOL   C18835156   6.856   7.700   2.789 -0.0182 -0.0496 -0.0570
  125MOL   C18935157   6.771   7.810   2.774 -0.0422 -0.1726 -0.5433
  125MOL   C19035158   7.050   7.810   2.916 -0.0343 -0.0233  0.4819
  125MOL   C19135159   7.178   7.787   2.976  1.0320 -0.0535 -0.3785
  125MOL   H19235160   7.265   7.503   2.794  0.3763  0.4502  0.2247
  125MOL   H19335161   7.051   7.534   2.717 -0.1395 -0.3232  0.3885
  125MOL   H19435162   6.829   7.598   2.768 -0.7539  0.4708 -1.7166
  125MOL   H19535163   6.805   7.909   2.799 -0.0891 -0.6490  1.5037
  125MOL   H19635164   6.997   7.903   2.933 -0.2559 -0.2930  1.3133
  125MOL   H19735165   7.218   7.863   3.042  2.1740  0.3332 -1.4843
  125MOL   C19835166   6.630   7.812   2.732  0.6086 -0.4695  0.1543
  125MOL   C19935167   6.578   7.712   2.644  0.0956 -0.4992 -0.8855
  125MOL   C20035168   6.445   7.715   2.603  0.7761 -0.0110 -0.1738
  125MOL   C20135169   6.357   7.815   2.658 -0.3712 -0.2192  0.3560
  125MOL   C20235170   6.217   7.811   2.614  0.1409 -0.1709 -0.2018
  125MOL   C20335171   6.130   7.907   2.639  0.7484  0.4089  0.6490
  125MOL   C20435172   6.405   7.918   2.743 -0.4752 -0.4087 -0.3520
  125MOL   C20535173   6.539   7.906   2.787  0.1076  0.1592  0.7762
  125MOL   H20635174   6.643   7.636   2.603 -0.0720 -1.4246  0.5371
  125MOL   H20735175   6.410   7.640   2.534 -1.5208 -0.1190  1.0400
  125MOL   H20835176   6.185   7.724   2.558  0.6886  0.3047 -1.2689
  125MOL   H20935177   6.159   7.987   2.705 -0.2043  1.1076  0.2376
  125MOL   H21035178   6.345   8.000   2.780  0.2841 -0.5003  1.1594
  125MOL   H21135179   6.578   7.974   2.862 -2.1338  0.4789  1.6930
  125MOL   C21235180   6.004   7.926   2.576 -0.1952 -0.3127  0.2101
  125MOL   C21335181   5.933   8.041   2.609 -0.4315  0.6619  0.3310
  125MOL   C21435182   5.814   8.069   2.546 -1.0786  0.2960  0.4775
  125MOL   C21535183   5.758   7.984   2.444 -0.8967  1.0293 -0.2227
  125MOL   C21635184   5.633   8.005   2.367  0.3959 -0.7327  0.6611
  125MOL   C21735185   5.555   8.110   2.398  0.1320 -0.0433  0.7193
  125MOL   C21835186   5.842   7.873   2.407 -0.2662 -0.5524 -0.5104
  125MOL   C21935187   5.966   7.848   2.470  0.3174  0.4832 -0.7474
  125MOL   H22035188   5.981   8.110   2.676  1.0836 -0.5323  0.5026
  125MOL   H22135189   5.752   0.006   2.581 -0.6725  0.8606 -0.1048
  125MOL   H22235190   5.606   7.931   2.293 -3.0729  0.1522  0.9515
  125MOL   H22335191   5.580   0.038   2.475  0.1281  1.3007 -0.5212
  125MOL   H22435192   5.807   7.807   2.329 -1.2922 -0.9057  0.2371
  125MOL   H22535193   6.016   7.761   2.429 -3.0190 -1.9524  0.1313
  125MOL   C22635194   5.423   0.000   2.335  0.0251 -0.6070  0.5784
  125MOL   C22735195   5.365   8.062   2.240 -0.1652  0.5316 -0.7864
  125MOL   C22835196   5.237   8.082   2.189 -0.1195  0.4638 -0.0823
  125MOL   C22935197   5.157   0.050   2.221 -0.4981  0.1657  0.2111
  125MOL   C23035198   5.027   0.072   2.158 -0.9636  0.1981  0.1398
  125MOL   C23135199   4.952   0.185   2.157  0.2248  0.1741 -0.5213
  125MOL   C23235200   5.214   0.136   2.322 -0.0364  0.3586  0.0753
  125MOL   C23335201   5.345   0.116   2.372  0.1148 -0.1906  0.2511
  125MOL   H23435202   5.418   7.975   2.204  0.0878  0.6440 -0.6845
  125MOL   H23535203   5.190   8.006   2.129  0.2653  0.0012  0.2039
  125MOL   H23635204   4.993   8.136   2.095  1.1488 -0.4748 -0.1795
  125MOL   H23735205   4.981   0.270   2.216 -0.6676 -0.3300  0.6694
  125MOL   H23835206   5.157   0.225   2.344  0.5746  0.3238  1.9155
  125MOL   H23935207   5.394   0.182   2.442 -0.2834  0.4392 -0.0518
  125MOL   C24035208   4.826   0.201   2.080  0.2684 -0.1898 -0.3662
  125MOL   C24135209   4.782   0.333   2.077  0.7329  0.0984 -0.1879
  125MOL   C24235210   4.668   0.367   2.000  0.3970  0.2124  0.1490
  125MOL   C24335211   4.611   0.274   1.913  0.0364 -0.9010 -0.0540
  125MOL   C24435212   4.494   0.309   1.830 -0.1559 -0.3458 -0.3402
  125MOL   C24535213   4.467   0.434   1.787 -0.0746  0.5988  0.0932
  125MOL   C24635214   4.652   0.144   1.916 -0.2526 -0.3723 -0.0029
  125MOL   C24735215   4.758   0.112   2.002 -0.0833  0.3418 -0.0848
  125MOL   H24835216   4.829   0.418   2.123  0.8183  0.8754 -1.6823
  125MOL   H24935217   4.645   0.473   2.006  0.0305  0.2256 -1.4226
  125MOL   H25035218   4.427   0.226   1.812 -0.5420 -0.3866  1.1986
  125MOL   H25135219   4.540   0.508   1.818  1.0113 -1.2628  2.1552
  125MOL   H25235220   4.607   0.062   1.863  0.7397  0.0576 -1.5553
  125MOL   H25335221   4.779   0.006   2.009 -2.5841 -0.1919  0.0736
  125MOL   C25435222   4.343   0.470   1.715 -0.4778  0.0664  0.2322
  125MOL   C25535223   4.244   0.379   1.677  0.1258 -0.2419  0.4775
  125MOL   C25635224   4.128   0.424   1.613 -0.1562 -0.1115  0.2181
  125MOL   C25735225   4.103   0.558   1.591  0.1792 -0.6008  0.2016
  125MOL   C25835226   3.974   0.598   1.519 -0.0984 -0.6114  0.4731
  125MOL   C25935227   3.877   0.685   1.560 -0.2941 -0.2961  0.3388
  125MOL   C26035228   4.200   0.656   1.621  0.8976  0.3679 -0.1211
  125MOL   C26135229   4.316   0.609   1.686 -0.0482  0.3599  1.1032
  125MOL   H26235230   4.254   0.273   1.696  2.2930 -0.0353  0.6253
  125MOL   H26335231   4.041   0.362   1.596  0.1377 -1.5111  3.6116
  125MOL   H26435232   3.954   0.538   1.432  0.3087  0.3378 -0.2774
  125MOL   H26535233   3.796   0.712   1.495  0.1525 -0.5005 -0.3136
  125MOL   H26635234   4.174   0.760   1.605 -1.6095 -0.1687  0.3577
  125MOL   H26735235   4.388   0.686   1.709 -0.7779  1.6072 -0.5994
  125MOL   C26835236   3.879   0.749   1.697  0.1049 -0.3955 -0.2636
  125MOL   C26935237   3.830   0.883   1.711  0.0929  0.0458 -0.0879
  125MOL   C27035238   3.831   0.949   1.837  0.1709 -1.1452 -0.9459
  125MOL   C27135239   3.895   0.891   1.946  0.0789  0.4754 -0.4524
  125MOL   C27235240   3.905   0.968   2.071 -0.3616 -0.1351  0.1042
  125MOL   C27335241   3.870   1.097   2.099  0.2248 -0.2303  0.0081
  125MOL   C27435242   3.945   0.763   1.933 -0.1360 -0.0135 -0.0191
  125MOL   C27535243   3.943   0.693   1.809  0.3196 -0.1430 -0.1227
  125MOL   H27635244   3.770   0.927   1.633  0.7317  1.5259  0.2459
  125MOL   H27735245   3.774   1.040   1.844  0.0335 -1.3564  1.1875
  125MOL   H27835246   3.956   0.923   2.154 -1.0765 -0.9124  0.1277
  125MOL   H27935247   3.822   1.163   2.028  0.9819  2.5903  2.0397
  125MOL   H28035248   3.990   0.700   2.008 -3.8075 -1.2351  1.2653
  125MOL   H28135249   3.981   0.593   1.798  2.8752  0.9741 -2.0451
  125MOL   H28235250   3.887   1.141   2.196 -1.3766  0.1430  0.1250
  126MOL     C135251   2.214   4.619   5.041  0.8678 -0.7477 -0.8783
  126MOL     C235252   2.126   4.510   5.060 -0.1775  0.3381  0.3361
  126MOL     C335253   2.012   4.487   4.983 -0.3611 -0.0409  0.4483
  126MOL     C435254   1.982   4.575   4.877  0.5228  0.6373  0.4771
  126MOL     C535255   1.861   4.565   4.803 -0.3658 -0.2135 -0.4224
  126MOL     C635256   1.791   4.668   4.755  0.3301 -0.0924  0.5606
  126MOL     C735257   2.072   4.684   4.848  0.3072  0.1975  0.4535
  126MOL     C835258   2.179   4.713   4.939 -0.3602  0.0077  0.1129
  126MOL     H935259   2.145   4.435   5.136 -0.6607  0.7931  0.9095
  126MOL    H1035260   1.960   4.393   4.999  0.3610 -0.5703 -0.2867
  126MOL    H1135261   1.825   4.464   4.787 -0.6072  0.0692 -1.7292
  126MOL    H1235262   1.830   4.764   4.783  2.6124 -0.6666 -0.5006
  126MOL    H1335263   2.041   4.754   4.773  2.6620  1.7319  0.8475
  126MOL    H1435264   2.231   4.807   4.950 -2.2815  1.0912  0.3032
  126MOL    H1535265   2.304   4.645   5.095  0.1439 -0.7648  0.3423
  126MOL    C1635266   1.663   4.663   4.673  0.1799 -0.0958 -0.0535
  126MOL    C1735267   1.584   4.780   4.661  0.5534  0.0115  0.2977
  126MOL    C1835268   1.469   4.778   4.577 -1.0243  0.4650 -0.1990
  126MOL    C1935269   1.426   4.652   4.522  0.1146 -0.0917 -0.3370
  126MOL    C2035270   1.299   4.638   4.439 -1.0781  0.2336 -0.4625
  126MOL    C2135271   1.210   4.735   4.408  0.2377 -0.3764 -0.2276
  126MOL    C2235272   1.507   4.542   4.537  0.3956 -0.1235 -0.2837
  126MOL    C2335273   1.627   4.545   4.603  0.0346 -0.3673  0.5868
  126MOL    H2435274   1.620   4.873   4.703 -0.1373  0.9461 -1.1474
  126MOL    H2535275   1.406   4.866   4.580 -1.2916  0.2682  0.0188
  126MOL    H2635276   1.281   4.535   4.412  0.2270 -0.4477  1.1659
  126MOL    H2735277   1.232   4.829   4.456  0.3044 -0.9598  0.9008
  126MOL    H2835278   1.467   4.449   4.497  3.0065 -0.9134 -1.2282
  126MOL    H2935279   1.692   4.458   4.604  2.1706  1.1714  0.1933
  126MOL    C3035280   1.091   4.723   4.315 -0.3113 -0.8874 -0.6705
  126MOL    C3135281   1.002   4.831   4.298  0.5962 -0.3034  0.0343
  126MOL    C3235282   0.884   4.812   4.223 -0.5046 -1.1975 -0.0009
  126MOL    C3335283   0.847   4.689   4.165  0.8732  0.1224  0.2716
  126MOL    C3435284   0.721   4.663   4.088 -0.1442  0.2040 -0.5178
  126MOL    C3535285   0.637   4.759   4.051  0.6429 -0.6290  0.0052
  126MOL    C3635286   0.937   4.584   4.180  0.6350 -0.4162 -0.0716
  126MOL    C3735287   1.054   4.602   4.255 -0.4167  0.6734  0.0535
  126MOL    H3835288   1.024   4.926   4.344  2.4284 -0.6740 -0.0566
  126MOL    H3935289   0.828   4.903   4.212  1.0841 -0.1484  0.3510
  126MOL    H4035290   0.700   4.557   4.075  4.4051 -1.0365  1.1224
  126MOL    H4135291   0.664   4.860   4.078 -3.0016  0.3718  0.2686
  126MOL    H4235292   0.920   4.484   4.142 -0.8668  0.2295 -1.1316
  126MOL    H4335293   1.119   4.516   4.253  0.5282  1.3774 -0.3229
  126MOL    C4435294   0.513   4.735   3.982  0.3706 -0.0487  0.0710
  126MOL    C4535295   0.464   4.607   3.952 -0.5798  0.0886 -0.7585
  126MOL    C4635296   0.339   4.581   3.911  0.4535  0.4568  0.2665
  126MOL    C4735297   0.254   4.690   3.878  0.5555  0.5761  0.1030
  126MOL    C4835298   0.124   4.662   3.818  0.4763  0.0245  0.1675
  126MOL    C4935299   0.081   4.550   3.754  0.4851 -0.6191 -0.2562
  126MOL    C5035300   0.298   4.822   3.901  0.4283  0.1714 -0.0013
  126MOL    C5135301   0.425   4.841   3.960  0.2810 -0.1336 -0.6613
  126MOL    H5235302   0.527   4.522   3.973  0.7804  0.6831 -2.3303
  126MOL    H5335303   0.309   4.477   3.906  0.8324  0.2031  2.6621
  126MOL    H5435304   0.062   4.749   3.828 -1.0584 -1.2226  1.7687
  126MOL    H5535305   0.156   4.472   3.749  0.9295 -0.0463 -2.9583
  126MOL    H5635306   0.229   4.903   3.882 -0.2212 -0.4529 -0.3582
  126MOL    H5735307   0.455   4.944   3.976 -0.1744 -0.4680  2.6571
  126MOL    C5835308   8.086   4.520   3.702  0.4605 -0.8236  0.5149
  126MOL    C5935309   7.985   4.607   3.724  0.1346 -0.3631 -0.9770
  126MOL    C6035310   7.857   4.579   3.673 -0.2855  1.0123  0.6587
  126MOL    C6135311   7.825   4.460   3.601  0.2762  0.1432  0.2724
  126MOL    C6235312   7.690   4.429   3.553 -0.1100 -0.1104  0.0620
  126MOL    C6335313   7.655   4.320   3.476 -0.6698  0.7267  0.0327
  126MOL    C6435314   7.936   4.374   3.576 -0.1239 -0.4851  0.8357
  126MOL    C6535315   8.066   4.399   3.629 -0.1435 -0.0751  0.5377
  126MOL    H6635316   8.005   4.703   3.768  0.0945 -0.3620 -0.9600
  126MOL    H6735317   7.774   4.648   3.685 -1.2807 -0.2114  0.9432
  126MOL    H6835318   7.613   4.503   3.570  2.4192  2.5838  0.3254
  126MOL    H6935319   7.728   4.250   3.437 -1.5099  1.0068 -2.1389
  126MOL    H7035320   7.930   4.276   3.532  1.6447 -0.2057 -0.0823
  126MOL    H7135321   0.006   4.333   3.612 -0.2459 -1.0499  3.5465
  126MOL    C7235322   7.517   4.279   3.449  0.1533  0.2307 -0.0749
  126MOL    C7335323   7.497   4.140   3.443 -0.4590  0.2652  0.1272
  126MOL    C7435324   7.369   4.091   3.410  0.4100  0.2055  0.0996
  126MOL    C7535325   7.264   4.181   3.393  0.3448 -0.1266 -0.3995
  126MOL    C7635326   7.128   4.140   3.355  0.4815  0.0549  0.2314
  126MOL    C7735327   7.083   4.012   3.369  0.0802 -0.0862  0.3102
  126MOL    C7835328   7.280   4.317   3.414  0.7339  0.4558  0.4147
  126MOL    C7935329   7.404   4.362   3.451 -0.4532 -0.4573 -0.6998
  126MOL    H8035330   7.579   4.075   3.473 -1.3324 -0.2098  1.5181
  126MOL    H8135331   7.352   3.985   3.426 -1.8184  0.7164  1.3850
  126MOL    H8235332   7.070   4.222   3.316  0.7541  0.0871 -0.1153
  126MOL    H8335333   7.151   3.939   3.411 -0.9159 -1.3685 -0.2743
  126MOL    H8435334   7.206   4.395   3.415  1.5546  1.2570 -0.1673
  126MOL    H8535335   7.410   4.468   3.471  0.9082 -0.8614  1.1717
  126MOL    C8635336   6.947   3.967   3.334  0.5895 -0.5630  0.6205
  126MOL    C8735337   6.842   4.052   3.306 -0.3998 -0.0423  0.2828
  126MOL    C8835338   6.713   4.005   3.283  0.4254 -0.3973 -0.0456
  126MOL    C8935339   6.682   3.867   3.277  0.1004  0.1903 -0.2377
  126MOL    C9035340   6.547   3.814   3.254 -0.1553 -0.1986 -0.3760
  126MOL    C9135341   6.434   3.884   3.265  0.1377 -0.1226 -0.1590
  126MOL    C9235342   6.797   3.780   3.288  0.0282  0.3865  0.0494
  126MOL    C9335343   6.923   3.828   3.326  0.9204  0.2725 -0.0088
  126MOL    H9435344   6.853   4.160   3.298 -2.7355  0.0571 -2.4149
  126MOL    H9535345   6.627   4.069   3.269  0.0999 -0.6878  0.6551
  126MOL    H9635346   6.551   3.710   3.225 -0.9010  0.2724 -2.2501
  126MOL    H9735347   6.448   3.989   3.286 -1.7585 -0.0022  0.5741
  126MOL    H9835348   6.790   3.673   3.281 -0.0502  0.3382  0.8151
  126MOL    H9935349   7.011   3.767   3.345  0.7074  0.2958  1.0359
  126MOL   C10035350   6.296   3.834   3.251 -0.3917 -1.4289 -0.8778
  126MOL   C10135351   6.268   3.699   3.219  0.5312  0.3935 -0.2660
  126MOL   C10235352   6.134   3.656   3.216  0.3232  0.0590  0.0557
  126MOL   C10335353   6.027   3.753   3.225 -0.5032  0.4539 -0.2476
  126MOL   C10435354   5.887   3.705   3.205  0.0008  0.2770  0.4386
  126MOL   C10535355   5.770   3.762   3.248 -0.1935 -0.7532  0.4419
  126MOL   C10635356   6.057   3.884   3.257 -0.4846  0.5981  0.1128
  126MOL   C10735357   6.189   3.931   3.276  0.4241 -0.4626  0.5876
  126MOL   H10835358   6.351   3.633   3.197 -0.2658 -0.3611 -1.0990
  126MOL   H10935359   6.106   3.554   3.195 -1.0968  0.2126  1.0589
  126MOL   H11035360   5.872   3.617   3.143  2.2080  0.7468 -0.8253
  126MOL   H11135361   5.778   3.857   3.299 -1.1600 -0.1128 -0.5983
  126MOL   H11235362   5.974   3.953   3.264  0.2409  1.5408 -0.2747
  126MOL   H11335363   6.205   4.036   3.296 -1.1312 -0.0793 -0.0766
  126MOL   C11435364   5.629   3.733   3.216  0.1519  0.1602  0.5775
  126MOL   C11535365   5.594   3.640   3.120  0.0644  0.6268 -0.5018
  126MOL   C11635366   5.457   3.610   3.098  0.1622  0.0960  0.6588
  126MOL   C11735367   5.356   3.671   3.172 -0.0771 -0.0597  0.0946
  126MOL   C11835368   5.220   3.624   3.156  0.1082 -0.7060  0.0184
  126MOL   C11935369   5.186   3.495   3.125  0.3085 -0.5372  0.1878
  126MOL   C12035370   5.390   3.769   3.261  0.9655  0.4801  1.0294
  126MOL   C12135371   5.527   3.798   3.289  0.3656  0.6506  0.3324
  126MOL   H12235372   5.666   3.590   3.056  0.1854  1.8351 -1.3203
  126MOL   H12335373   5.434   3.546   3.014 -0.5464  1.1001  0.0894
  126MOL   H12435374   5.142   3.699   3.162  1.4617  0.7756 -0.6707
  126MOL   H12535375   5.254   3.411   3.127 -1.3633 -1.9031  1.5818
  126MOL   H12635376   5.306   3.817   3.309  1.0766  2.0894 -0.3559
  126MOL   H12735377   5.541   3.890   3.343 -0.3509 -0.7410  2.9467
  126MOL   C12835378   5.049   3.452   3.079 -0.1662 -0.6657 -0.4472
  126MOL   C12935379   5.030   3.316   3.078  0.4132 -0.4812  0.4630
  126MOL   C13035380   4.909   3.266   3.020  0.4990  0.3033  0.3833
  126MOL   C13135381   4.811   3.350   2.967 -0.0784  0.2927 -0.4865
  126MOL   C13235382   4.690   3.298   2.902  0.1340 -0.3356 -0.2939
  126MOL   C13335383   4.643   3.169   2.900 -0.7073 -0.0149  0.1387
  126MOL   C13435384   4.829   3.486   2.982  0.0585  0.1755  0.1757
  126MOL   C13535385   4.946   3.536   3.040 -1.2508 -0.2812 -0.2784
  126MOL   H13635386   5.102   3.243   3.110 -1.6289 -2.4398  0.7347
  126MOL   H13735387   4.903   3.159   3.012  0.3267  0.3697 -0.4437
  126MOL   H13835388   4.625   3.375   2.863 -0.7531 -1.1027 -0.3331
  126MOL   H13935389   4.694   3.088   2.950 -0.5560 -0.9285 -1.4919
  126MOL   H14035390   4.749   3.547   2.942 -1.0734 -1.5875 -0.3011
  126MOL   H14135391   4.961   3.643   3.048 -0.2707 -0.4910  0.8672
  126MOL   C14235392   4.517   3.127   2.837  0.4745 -0.1348 -0.2074
  126MOL   C14335393   4.488   2.983   2.818  0.0376 -0.0859 -0.6676
  126MOL   C14435394   4.379   2.950   2.733 -0.1189 -0.5892 -0.2835
  126MOL   C14535395   4.297   3.048   2.675  0.0454  0.1307 -0.1645
  126MOL   C14635396   4.171   3.004   2.609 -0.1788 -0.3173  0.0727
  126MOL   C14735397   4.111   2.883   2.621  0.0069  0.1427  0.3302
  126MOL   C14835398   4.322   3.183   2.695 -0.4209  0.1035 -0.0056
  126MOL   C14935399   4.433   3.228   2.773  0.9285  0.4197 -0.2334
  126MOL   H15035400   4.557   2.908   2.854  0.2571  0.3781 -0.1125
  126MOL   H15135401   4.374   2.844   2.713  1.1793 -0.1479 -3.2042
  126MOL   H15235402   4.140   3.077   2.536  0.5383 -0.8722 -0.7960
  126MOL   H15335403   4.147   2.813   2.695 -2.3224 -0.1432  1.2499
  126MOL   H15435404   4.243   3.255   2.675 -1.9507 -0.6167  3.1298
  126MOL   H15535405   4.440   3.330   2.808  1.6823 -1.2201  4.8834
  126MOL   C15635406   3.990   2.836   2.548 -0.3886  0.6728 -0.1068
  126MOL   C15735407   3.908   2.931   2.480  0.3361  0.3537 -0.2007
  126MOL   C15835408   3.789   2.890   2.413  0.0184  0.5838 -0.3631
  126MOL   C15935409   3.751   2.754   2.406  0.1076  0.0567  0.0316
  126MOL   C16035410   3.639   2.723   2.315  0.7552  0.2224  0.3903
  126MOL   C16135411   3.615   2.602   2.257 -0.0598 -0.1325 -0.4505
  126MOL   C16235412   3.840   2.654   2.459  0.7527  0.3536 -0.0194
  126MOL   C16335413   3.955   2.698   2.533  0.7659  0.5803 -0.3948
  126MOL   H16435414   3.933   3.037   2.477 -1.1261  0.7162  0.2398
  126MOL   H16535415   3.735   2.964   2.356 -0.4698  0.6964  0.2436
  126MOL   H16635416   3.576   2.807   2.291 -2.4348 -2.3838 -0.8268
  126MOL   H16735417   3.683   2.524   2.289 -0.9102 -0.6394  0.1529
  126MOL   H16835418   3.816   2.549   2.448 -1.0798  0.8364 -0.8062
  126MOL   H16935419   4.016   2.623   2.582 -2.5632 -1.7541  0.3701
  126MOL   C17035420   3.515   2.571   2.156 -0.1119 -0.0560 -0.1327
  126MOL   C17135421   3.497   2.434   2.120  0.4068 -0.3057 -0.3436
  126MOL   C17235422   3.387   2.399   2.038 -0.6096  0.4008  0.5859
  126MOL   C17335423   3.292   2.498   2.000 -0.2843  0.5789 -0.2374
  126MOL   C17435424   3.173   2.471   1.919 -0.1897  0.1137  0.8542
  126MOL   C17535425   3.103   2.356   1.912  0.0242  0.5453  0.2694
  126MOL   C17635426   3.317   2.632   2.035 -0.0837  0.1360  0.0227
  126MOL   C17735427   3.429   2.666   2.110  0.0808  0.0878  0.2800
  126MOL   H17835428   3.572   2.371   2.164  0.7519 -0.2531 -0.8546
  126MOL   H17935429   3.368   2.296   2.010  1.1722 -0.5354  2.6233
  126MOL   H18035430   3.138   2.554   1.860  2.3943  1.8966  1.7543
  126MOL   H18135431   3.141   2.278   1.976  2.0132  0.6020 -0.8068
  126MOL   H18235432   3.251   2.712   2.004  1.2373  0.3766 -2.2962
  126MOL   H18335433   3.429   2.773   2.127 -0.1439  0.0776  0.3380
  126MOL   C18435434   2.989   2.322   1.824 -0.4624  0.3621 -0.8849
  126MOL   C18535435   2.984   2.376   1.694 -0.3221 -0.7929  0.2065
  126MOL   C18635436   2.881   2.345   1.604 -0.0729 -0.2291 -0.5383
  126MOL   C18735437   2.788   2.245   1.640  0.2910 -0.8487  0.7401
  126MOL   C18835438   2.695   2.214   1.530 -0.0606  0.2721 -0.3520
  126MOL   C18935439   2.596   2.124   1.547  0.1118  0.1918 -0.2946
  126MOL   C19035440   2.791   2.192   1.770  0.1935 -0.4520 -0.2879
  126MOL   C19135441   2.887   2.231   1.867 -0.1662 -0.8247  0.1845
  126MOL   H19235442   3.053   2.453   1.661 -0.8505 -0.2203  0.4263
  126MOL   H19335443   2.894   2.391   1.507 -0.7797  0.1146 -0.4768
  126MOL   H19435444   2.712   2.262   1.435 -1.2308 -1.1461 -1.2938
  126MOL   H19535445   2.580   2.087   1.647 -0.9851  0.3853 -0.3951
  126MOL   H19635446   2.715   2.120   1.797  0.2703 -1.4360 -2.5580
  126MOL   H19735447   2.886   2.201   1.971 -0.8043 -0.4041  0.2993
  126MOL   C19835448   2.497   2.093   1.444 -0.3627  0.1113  0.8912
  126MOL   C19935449   2.512   2.142   1.312  0.1311 -0.9466 -0.2404
  126MOL   C20035450   2.426   2.088   1.220 -0.1301 -0.0278  0.5305
  126MOL   C20135451   2.317   2.008   1.257  0.0514  0.1958 -0.3467
  126MOL   C20235452   2.228   1.950   1.150  0.1020 -0.3075 -0.0205
  126MOL   C20335453   2.109   1.887   1.177 -0.0503 -0.7163  0.4507
  126MOL   C20435454   2.295   1.969   1.390  0.5873  0.3203  0.4671
  126MOL   C20535455   2.388   2.006   1.478  0.1714 -0.1831  0.1769
  126MOL   H20635456   2.586   2.211   1.277 -0.3227  0.6112  1.7689
  126MOL   H20735457   2.439   2.120   1.118  0.9828  1.4677  1.1245
  126MOL   H20835458   2.258   1.958   1.046  2.5977  0.2767  0.6914
  126MOL   H20935459   2.084   1.881   1.282 -2.4788 -0.2072 -0.0754
  126MOL   H21035460   2.229   1.890   1.422  0.8381 -0.2649 -0.4352
  126MOL   H21135461   2.396   1.948   1.569 -1.3292 -0.2218  0.3009
  126MOL   C21235462   2.017   1.827   1.073  0.4336 -0.1921  0.5370
  126MOL   C21335463   2.060   1.807   0.941  0.3124 -0.3737  0.0038
  126MOL   C21435464   1.967   1.756   0.847 -0.2514 -0.7802  0.7607
  126MOL   C21535465   1.840   1.707   0.889  0.5215 -0.5553 -0.1939
  126MOL   C21635466   1.744   1.641   0.799 -0.1475  0.4039 -0.3413
  126MOL   C21735467   1.741   1.642   0.666 -0.1706  0.6518  0.0544
  126MOL   C21835468   1.803   1.717   1.025  0.4355  0.4181  0.2518
  126MOL   C21935469   1.897   1.775   1.112  0.3092  0.2853  0.4548
  126MOL   H22035470   2.159   1.841   0.913  0.0777  0.0852 -0.2733
  126MOL   H22135471   2.000   1.747   0.744 -2.4644 -2.1154  0.1172
  126MOL   H22235472   1.673   1.587   0.860 -1.4802  1.1877 -1.1734
  126MOL   H22335473   1.813   1.697   0.607 -1.0978  2.3549  0.4652
  126MOL   H22435474   1.709   1.684   1.066  1.6725 -2.0233  1.2475
  126MOL   H22535475   1.863   1.784   1.214 -0.6523 -0.8570  0.2313
  126MOL   C22635476   1.641   1.566   0.588 -0.9856 -0.6042  0.1183
  126MOL   C22735477   1.509   1.540   0.636  0.3765 -0.2161  0.3958
  126MOL   C22835478   1.426   1.444   0.576 -0.1660  0.1011 -0.0867
  126MOL   C22935479   1.471   1.369   0.465 -0.5991  0.1534 -0.0188
  126MOL   C23035480   1.386   1.264   0.413 -0.7081  0.0786  0.0115
  126MOL   C23135481   1.259   1.238   0.442  0.5101 -0.3497 -0.7012
  126MOL   C23235482   1.598   1.405   0.411 -0.1779  0.1808 -0.0602
  126MOL   C23335483   1.687   1.494   0.474 -0.0345 -0.3159  0.7580
  126MOL   H23435484   1.488   1.601   0.722  2.0055  0.3961  0.3740
  126MOL   H23535485   1.338   1.413   0.630  0.7010  0.4456  1.5466
  126MOL   H23635486   1.437   1.193   0.349  1.0027  0.8128  0.5439
  126MOL   H23735487   1.202   1.300   0.510 -0.2510 -0.9119 -0.8280
  126MOL   H23835488   1.629   1.343   0.328  4.9514  2.4418 -0.0011
  126MOL   H23935489   1.792   1.508   0.451 -0.6298 -0.2771 -2.1408
  126MOL   C24035490   1.194   1.119   0.381 -0.2916  0.6776 -0.4344
  126MOL   C24135491   1.067   1.079   0.424  0.4475  1.0903 -0.2545
  126MOL   C24235492   1.012   0.958   0.379 -0.0998 -0.6236  0.8445
  126MOL   C24335493   1.084   0.872   0.291  0.1454  0.5727  0.4107
  126MOL   C24435494   1.013   0.747   0.258  0.5851 -0.0050 -0.2077
  126MOL   C24535495   1.066   0.662   0.171  0.4497 -0.5687  1.0183
  126MOL   C24635496   1.213   0.906   0.255  0.1480  0.1476  0.7079
  126MOL   C24735497   1.266   1.032   0.291 -0.0413  0.8985 -0.0384
  126MOL   H24835498   1.007   1.126   0.500  1.3489 -1.4129  2.0545
  126MOL   H24935499   0.909   0.937   0.405 -0.9198 -0.3471 -1.9700
  126MOL   H25035500   0.918   0.730   0.306 -0.1184 -0.6207 -1.7460
  126MOL   H25135501   1.164   0.685   0.131  0.5005  0.4033  1.6710
  126MOL   H25235502   1.271   0.844   0.189 -0.7878 -1.5330  1.4244
  126MOL   H25335503   1.362   1.047   0.244 -0.7185 -0.8555 -2.1089
  126MOL   C25435504   1.015   0.534   0.127 -1.4128  0.0024 -0.2002
  126MOL   C25535505   0.917   0.459   0.197 -0.5847  0.1852 -0.2271
  126MOL   C25635506   0.864   0.333   0.153  0.2159 -0.4278 -0.1693
  126MOL   C25735507   0.917   0.282   0.032  0.4540 -0.2620 -0.1933
  126MOL   C25835508   0.874   0.146   0.005 -0.0724 -0.9844 -0.0963
  126MOL   C25935509   0.888   0.074   8.039  0.2792 -0.2741 -0.1896
  126MOL   C26035510   1.010   0.355   8.097 -0.3523 -0.0582 -0.0628
  126MOL   C26135511   1.053   0.483   8.142  0.2849 -0.1474  0.1877
  126MOL   H26235512   0.874   0.498   0.288  2.8275 -0.1959  1.6179
  126MOL   H26335513   0.794   0.284   0.219 -0.4208 -2.0006 -1.9699
  126MOL   H26435514   0.829   0.098   0.091  2.4809 -0.7803  1.3941
  126MOL   H26535515   0.853   8.118   8.025  0.0579 -0.4079  1.2752
  126MOL   H26635516   1.057   0.313   8.010 -0.7323  2.6035 -1.6273
  126MOL   H26735517   1.132   0.530   8.085  0.1879  1.7766  1.6030
  126MOL   C26835518   0.943   0.119   7.907  0.2618 -0.1871 -0.2082
  126MOL   C26935519   0.874   0.222   7.841 -0.6048 -0.7796  0.2983
  126MOL   C27035520   0.920   0.262   7.710 -0.0482  0.3463 -0.0004
  126MOL   C27135521   1.028   0.203   7.643  0.4412 -0.2800  0.4220
  126MOL   C27235522   1.065   0.222   7.497  0.0628  0.2125  0.1725
  126MOL   C27335523   0.985   0.276   7.400 -0.7826  0.2524  0.5837
  126MOL   C27435524   1.100   0.103   7.714 -0.1883  0.4495 -0.3130
  126MOL   C27535525   1.051   0.056   7.841 -0.2747 -0.4513 -0.3585
  126MOL   H27635526   0.779   0.259   7.874 -0.4235  1.2084 -1.2951
  126MOL   H27735527   0.858   0.328   7.650 -1.4863 -1.9524 -1.1209
  126MOL   H27835528   1.162   0.191   7.461  0.2494  1.0597 -0.0881
  126MOL   H27935529   0.890   0.315   7.432 -0.2895  0.5454  1.7301
  126MOL   H28035530   1.170   0.050   7.651  0.6320  0.3402  0.6879
  126MOL   H28135531   1.098   8.112   7.881  1.0701  0.9459  1.1980
  126MOL   H28235532   1.022   0.288   7.300  0.3107 -0.1262  0.9323
  127MOL     C135533   6.498   4.350   3.275  0.0309 -0.1551  0.0643
  127MOL     C235534   6.464   4.273   3.387  0.8673 -0.3464  0.6164
  127MOL     C335535   6.331   4.253   3.427  1.0024  0.7480 -0.2781
  127MOL     C435536   6.226   4.315   3.360 -0.4865  0.3062 -0.0770
  127MOL     C535537   6.094   4.285   3.394  0.8625  0.2036  0.3500
  127MOL     C635538   6.051   4.214   3.504 -0.0212  0.0271 -0.5225
  127MOL     C735539   6.258   4.390   3.246 -0.4442  0.0801 -0.6198
  127MOL     C835540   6.390   4.409   3.204 -1.2726 -0.7404 -0.5798
  127MOL     H935541   6.545   4.217   3.432  1.8081  0.1771 -0.3866
  127MOL    H1035542   6.327   4.175   3.502  2.6888 -0.9151 -1.8648
  127MOL    H1135543   6.023   4.316   3.319 -1.1172  1.1694  2.5405
  127MOL    H1235544   6.133   4.188   3.570 -0.5253 -2.1622 -0.7263
  127MOL    H1335545   6.185   4.450   3.193  0.1499 -0.3684 -1.9913
  127MOL    H1435546   6.408   4.480   3.124 -3.2336 -1.2045 -1.4824
  127MOL    H1535547   6.602   4.356   3.245 -0.0885  1.0978 -0.1217
  127MOL    C1635548   5.914   4.181   3.539 -0.2248  0.1442  0.5513
  127MOL    C1735549   5.884   4.129   3.662 -0.2448  0.6945  0.2414
  127MOL    C1835550   5.748   4.084   3.690  0.3894 -0.3735  0.4015
  127MOL    C1935551   5.648   4.086   3.588 -0.1279 -0.0943  0.8657
  127MOL    C2035552   5.513   4.033   3.619 -0.0361  0.1076 -0.1803
  127MOL    C2135553   5.396   4.089   3.585  0.2604 -0.7269 -0.4453
  127MOL    C2235554   5.686   4.149   3.470  0.2567  0.4533  0.3544
  127MOL    C2335555   5.815   4.193   3.443  0.3812  0.0995  0.1609
  127MOL    H2435556   5.957   4.113   3.740  0.7728 -0.1604 -0.8678
  127MOL    H2535557   5.726   4.047   3.789 -1.5612  0.0939  0.1628
  127MOL    H2635558   5.510   3.936   3.668 -2.0210 -0.0002 -0.4852
  127MOL    H2735559   5.401   4.186   3.536 -0.7777 -1.3283 -1.7835
  127MOL    H2835560   5.611   4.158   3.392  0.9003  0.4355 -0.2727
  127MOL    H2935561   5.844   4.227   3.344 -1.1071  0.4088 -0.1803
  127MOL    C3035562   5.268   4.026   3.612  0.7003  0.1684 -0.6476
  127MOL    C3135563   5.242   3.888   3.591 -0.5619  0.2238 -0.5606
  127MOL    C3235564   5.119   3.829   3.629  0.3584 -0.0658  0.5950
  127MOL    C3335565   5.008   3.913   3.665 -0.0239  0.8363  0.1821
  127MOL    C3435566   4.872   3.860   3.677  0.4550  0.2223  0.9327
  127MOL    C3535567   4.830   3.731   3.700 -0.1996  0.0638 -0.2531
  127MOL    C3635568   5.035   4.051   3.690  0.5355 -0.0552  0.6577
  127MOL    C3735569   5.164   4.102   3.660 -0.2925  0.1740  0.2168
  127MOL    H3835570   5.324   3.827   3.559 -0.8232 -0.0579 -0.6974
  127MOL    H3935571   5.106   3.722   3.636 -0.6795 -0.1415 -2.0247
  127MOL    H4035572   4.794   3.934   3.664  0.8056  0.6830  1.4441
  127MOL    H4135573   4.911   3.659   3.707  0.9347  1.1848 -1.6976
  127MOL    H4235574   4.960   4.121   3.724 -0.6004  0.1370 -2.1034
  127MOL    H4335575   5.180   4.207   3.681  2.4503  0.0745 -1.1275
  127MOL    C4435576   4.693   3.677   3.718  0.3238  1.4704 -0.4816
  127MOL    C4535577   4.672   3.548   3.780  0.6411 -0.0051 -0.0184
  127MOL    C4635578   4.541   3.499   3.788 -0.4286  0.4001  0.1665
  127MOL    C4735579   4.430   3.573   3.742 -0.5838 -0.3201 -0.4681
  127MOL    C4835580   4.293   3.526   3.741  0.0869 -0.0050  0.4206
  127MOL    C4935581   4.252   3.402   3.775 -0.5034 -0.1682  0.2961
  127MOL    C5035582   4.459   3.696   3.684  0.1111 -0.0041  0.3461
  127MOL    C5135583   4.587   3.752   3.675  0.1319  0.7551  0.3274
  127MOL    H5235584   4.752   3.486   3.817  1.0010  0.3101 -0.2647
  127MOL    H5335585   4.514   3.404   3.832 -3.7694  0.4662 -1.5888
  127MOL    H5435586   4.227   3.600   3.700 -1.5838 -0.8358  1.5696
  127MOL    H5535587   4.324   3.329   3.809  0.2155  0.8133  0.8843
  127MOL    H5635588   4.385   3.757   3.635  0.8353 -0.0484 -0.8151
  127MOL    H5735589   4.600   3.848   3.626  1.3961 -2.0705 -5.3071
  127MOL    C5835590   4.113   3.360   3.753 -0.9829 -0.1854 -0.2244
  127MOL    C5935591   4.015   3.461   3.751  0.4756  0.1550 -0.1337
  127MOL    C6035592   3.883   3.422   3.721  0.4456  0.3679 -0.0808
  127MOL    C6135593   3.858   3.285   3.682  0.0487  0.0033 -1.4513
  127MOL    C6235594   3.731   3.256   3.627  0.1492 -0.4454  0.2506
  127MOL    C6335595   3.669   3.136   3.620  0.2644  0.5268  0.1006
  127MOL    C6435596   3.962   3.187   3.681 -0.3892  0.3123 -0.9808
  127MOL    C6535597   4.089   3.225   3.724  0.2004  0.4431  0.4128
  127MOL    H6635598   4.038   3.566   3.764  1.6242 -0.0613 -0.3359
  127MOL    H6735599   3.800   3.492   3.716 -1.2088 -1.4778  0.8952
  127MOL    H6835600   3.680   3.340   3.582 -0.0965 -2.2797 -3.0957
  127MOL    H6935601   3.722   3.053   3.663 -1.2241 -0.6664 -0.3130
  127MOL    H7035602   3.949   3.090   3.635  1.7867  0.7679 -2.6750
  127MOL    H7135603   4.177   3.167   3.701  0.8744  1.7089 -0.2766
  127MOL    C7235604   3.539   3.110   3.562 -0.0009 -0.2555 -0.2057
  127MOL    C7335605   3.466   2.996   3.610 -0.0073  0.0508 -0.4664
  127MOL    C7435606   3.334   2.974   3.556  0.1614  0.3928 -0.5608
  127MOL    C7535607   3.261   3.061   3.473 -0.0676  0.0291  0.5327
  127MOL    C7635608   3.126   3.028   3.432 -0.3503  0.1450 -0.1502
  127MOL    C7735609   3.049   3.080   3.337  0.3583 -0.2662  0.2217
  127MOL    C7835610   3.336   3.173   3.431 -0.4949 -0.6632  0.0711
  127MOL    C7935611   3.470   3.194   3.473  0.0148  0.2461  0.9546
  127MOL    H8035612   3.516   2.932   3.681  2.5235  2.8283  0.3664
  127MOL    H8135613   3.278   2.886   3.585  2.2219 -0.4323  1.0547
  127MOL    H8235614   3.084   2.955   3.500 -1.0908  1.2058  0.5454
  127MOL    H8335615   3.089   3.154   3.269 -1.3580 -0.4959 -1.0833
  127MOL    H8435616   3.291   3.241   3.360  0.9252  0.2223 -0.0151
  127MOL    H8535617   3.519   3.281   3.430 -1.1691  0.0357 -0.8978
  127MOL    C8635618   2.905   3.041   3.323 -0.3613 -0.0645 -0.3835
  127MOL    C8735619   2.840   2.955   3.413  0.8125  0.3795 -0.3108
  127MOL    C8835620   2.713   2.906   3.388 -0.7374 -0.3725  0.1775
  127MOL    C8935621   2.644   2.948   3.275 -0.9884  0.4519  0.6707
  127MOL    C9035622   2.505   2.896   3.249  0.1177 -0.0931 -0.2471
  127MOL    C9135623   2.425   2.929   3.148 -0.5271 -0.0121  0.2153
  127MOL    C9235624   2.705   3.031   3.180  0.0397 -0.1319  0.8412
  127MOL    C9335625   2.834   3.088   3.206 -0.2000  0.8406  0.6493
  127MOL    H9435626   2.882   2.915   3.504 -2.4841 -0.6231  0.8572
  127MOL    H9535627   2.673   2.830   3.453  0.3347 -1.1499 -0.0563
  127MOL    H9635628   2.480   2.829   3.330  0.7095 -0.7886 -0.6261
  127MOL    H9735629   2.462   2.998   3.074  0.6151 -1.0888 -0.2420
  127MOL    H9835630   2.651   3.081   3.101  1.4204  2.0734  1.2416
  127MOL    H9935631   2.881   3.160   3.141  1.5666 -0.8751 -0.0208
  127MOL   C10035632   2.289   2.890   3.109  1.2274 -0.8523 -0.3681
  127MOL   C10135633   2.236   2.930   2.981 -0.2760 -0.5092  0.3359
  127MOL   C10235634   2.110   2.899   2.945  0.0205  0.2736  0.2691
  127MOL   C10335635   2.026   2.827   3.033  0.1914  0.3681  0.9423
  127MOL   C10435636   1.893   2.796   2.984  0.5067 -0.2408 -0.3229
  127MOL   C10535637   1.827   2.686   3.019  0.1437 -0.4836 -0.0303
  127MOL   C10635638   2.076   2.791   3.160 -0.7472  1.1756 -0.0250
  127MOL   C10735639   2.207   2.818   3.197 -0.7640 -0.2888  0.4684
  127MOL   H10835640   2.294   2.996   2.918  0.5986  0.2173  1.8583
  127MOL   H10935641   2.077   2.933   2.848 -0.3339 -0.4283  0.1341
  127MOL   H11035642   1.853   2.863   2.909 -0.3375 -0.7576 -0.3382
  127MOL   H11135643   1.878   2.612   3.078 -0.2017  0.7619  1.9093
  127MOL   H11235644   2.017   2.740   3.234 -2.1794  2.0124 -0.5670
  127MOL   H11335645   2.248   2.787   3.292 -0.4028  0.0279  0.4187
  127MOL   C11435646   1.685   2.651   2.985  0.7318  0.1492  0.4229
  127MOL   C11535647   1.612   2.711   2.875  0.2541  0.3201  0.3143
  127MOL   C11635648   1.484   2.663   2.836 -0.5729 -0.7204  0.4289
  127MOL   C11735649   1.433   2.558   2.907  1.2574  0.1048  0.5389
  127MOL   C11835650   1.291   2.523   2.889  0.3952  0.0608 -0.1802
  127MOL   C11935651   1.215   2.548   2.783  0.1436 -0.1952  0.1133
  127MOL   C12035652   1.493   2.498   3.017  0.9751 -0.7054  0.0980
  127MOL   C12135653   1.626   2.540   3.047  0.2215  0.0666 -0.5438
  127MOL   H12235654   1.657   2.785   2.811  0.1353 -0.6239 -0.8592
  127MOL   H12335655   1.433   2.721   2.761  1.6889  0.4197 -0.2804
  127MOL   H12435656   1.245   2.465   2.968  0.1358  0.4835 -0.0164
  127MOL   H12535657   1.257   2.593   2.695 -0.7059 -2.1565 -1.3329
  127MOL   H12635658   1.446   2.422   3.078  2.2638 -0.4810  1.4000
  127MOL   H12735659   1.669   2.493   3.134 -0.2548 -0.5073 -0.6131
  127MOL   C12835660   1.070   2.525   2.760 -0.8382 -0.3718  0.1489
  127MOL   C12935661   0.979   2.472   2.853  0.4670 -0.8588  0.2272
  127MOL   C13035662   0.842   2.467   2.826  0.7184 -0.1151 -0.8814
  127MOL   C13135663   0.793   2.500   2.699 -0.1768 -1.5321 -0.2523
  127MOL   C13235664   0.650   2.503   2.667 -0.4383 -0.2069 -0.4675
  127MOL   C13335665   0.549   2.499   2.753  0.2198  0.5071  0.4545
  127MOL   C13435666   0.885   2.555   2.603  0.2023  0.0308  0.3718
  127MOL   C13535667   1.022   2.562   2.635 -0.8495  0.1859 -0.0380
  127MOL   H13635668   1.008   2.441   2.952 -2.7162 -2.2711  0.7881
  127MOL   H13735669   0.775   2.433   2.904 -1.4300  2.9345 -1.2967
  127MOL   H13835670   0.634   2.509   2.561  1.5936  2.6653 -0.6780
  127MOL   H13935671   0.581   2.490   2.855  0.3642  1.8486  0.5405
  127MOL   H14035672   0.848   2.607   2.516 -1.5561  0.5103  1.3826
  127MOL   H14135673   1.083   2.610   2.560  0.0244  0.6279  0.9523
  127MOL   C14235674   0.406   2.513   2.728 -0.1144  0.3158  0.3388
  127MOL   C14335675   0.358   2.590   2.620 -0.4753  0.5273  0.5683
  127MOL   C14435676   0.221   2.597   2.591 -0.0508  0.0369 -0.2325
  127MOL   C14535677   0.128   2.528   2.675 -0.0313 -0.3387 -0.3665
  127MOL   C14635678   8.127   2.531   2.656 -0.4067 -0.5298 -0.9071
  127MOL   C14735679   8.054   2.594   2.561 -0.0327  0.7072  0.1902
  127MOL   C14835680   0.177   2.457   2.790 -0.4635  0.0984  0.3339
  127MOL   C14935681   0.317   2.442   2.813 -0.2897 -0.2894  0.6304
  127MOL   H15035682   0.419   2.632   2.542 -0.8176 -0.0803 -0.0401
  127MOL   H15135683   0.187   2.657   2.509  1.3330 -1.8246 -2.2184
  127MOL   H15235684   8.088   2.477   2.741  1.2302 -1.7047 -0.8760
  127MOL   H15335685   8.109   2.647   2.485 -0.2187 -0.0629 -0.4818
  127MOL   H15435686   0.113   2.403   2.858 -0.7851  2.4454  1.9656
  127MOL   H15535687   0.356   2.379   2.892  1.0133 -1.9552 -1.2822
  127MOL   C15635688   7.905   2.587   2.558  0.0870  0.4168  0.6737
  127MOL   C15735689   7.821   2.515   2.645 -0.4326 -0.1327 -0.4861
  127MOL   C15835690   7.682   2.529   2.639  0.4825 -0.5483  0.0094
  127MOL   C15935691   7.624   2.619   2.544 -0.4655  0.1067 -0.1864
  127MOL   C16035692   7.475   2.620   2.530 -0.0494  0.4119  0.2239
  127MOL   C16135693   7.387   2.532   2.576  0.5400 -0.8217 -0.2064
  127MOL   C16235694   7.712   2.687   2.457 -0.3674 -0.2363  0.1730
  127MOL   C16335695   7.851   2.673   2.466  0.8350 -0.2647 -0.0726
  127MOL   H16435696   7.878   2.464   2.721 -2.7442  1.5014  2.4153
  127MOL   H16535697   7.619   2.473   2.707 -1.4998  1.6356  0.0285
  127MOL   H16635698   7.450   2.708   2.473  2.9051  1.1194 -0.0552
  127MOL   H16735699   7.428   2.445   2.625  0.8792 -0.7285 -0.3265
  127MOL   H16835700   7.682   2.757   2.380 -0.0054 -1.2809 -0.9230
  127MOL   H16935701   7.915   2.727   2.397 -1.3712  3.1411  0.3948
  127MOL   C17035702   7.243   2.546   2.552  0.1931 -0.1732 -0.5907
  127MOL   C17135703   7.142   2.470   2.619  0.3999  0.6863 -0.2787
  127MOL   C17235704   7.005   2.491   2.592  0.0333 -0.2639 -0.1481
  127MOL   C17335705   6.964   2.577   2.487  0.0779 -0.6270 -0.1188
  127MOL   C17435706   6.824   2.578   2.441 -0.3070 -0.8572  0.0972
  127MOL   C17535707   6.759   2.684   2.388  0.2103  0.5530 -0.3577
  127MOL   C17635708   7.063   2.649   2.425  0.3472  0.2078  0.2490
  127MOL   C17735709   7.198   2.638   2.458  0.7368 -0.9606  0.9403
  127MOL   H17835710   7.174   2.400   2.694 -2.1713 -1.3158 -0.9873
  127MOL   H17935711   6.931   2.444   2.655 -0.5250  0.1202 -0.5096
  127MOL   H18035712   6.768   2.486   2.456 -2.3252  0.1891 -0.7886
  127MOL   H18135713   6.813   2.777   2.381  1.5856 -0.0202  2.1966
  127MOL   H18235714   7.032   2.712   2.343  0.3673  0.9239  0.7821
  127MOL   H18335715   7.266   2.691   2.392 -1.1102 -0.4250 -0.5778
  127MOL   C18435716   6.617   2.686   2.345  0.0842  0.4385  0.6532
  127MOL   C18535717   6.556   2.568   2.300  0.2415  0.0052  0.1628
  127MOL   C18635718   6.421   2.566   2.260  0.1363  0.5239  0.0598
  127MOL   C18735719   6.345   2.684   2.256  0.4742  0.1016 -0.3050
  127MOL   C18835720   6.219   2.684   2.178 -0.2981 -0.2964 -0.0322
  127MOL   C18935721   6.123   2.777   2.182  0.1277 -0.5376  0.3985
  127MOL   C19035722   6.409   2.803   2.297 -0.0875  0.1669 -0.3254
  127MOL   C19135723   6.540   2.801   2.349  0.0052  0.1529 -0.3085
  127MOL   H19235724   6.596   2.468   2.297 -0.2126 -0.2341  1.6925
  127MOL   H19335725   6.379   2.467   2.247  0.0835  0.6181 -0.5147
  127MOL   H19435726   6.216   2.598   2.113  1.0100 -0.6882  0.4085
  127MOL   H19535727   6.135   2.862   2.247 -0.6158  1.1807 -1.6383
  127MOL   H19635728   6.351   2.891   2.274 -0.5176 -0.4382 -1.6114
  127MOL   H19735729   6.588   2.896   2.369  1.2490 -0.7252  0.9754
  127MOL   C19835730   6.003   2.775   2.096  0.6392 -0.3935 -0.6684
  127MOL   C19935731   5.918   2.892   2.097  0.8235 -0.8240  0.0115
  127MOL   C20035732   5.813   2.900   2.005  0.5896 -0.1197 -0.4982
  127MOL   C20135733   5.779   2.791   1.922  0.0956  0.3094 -0.0617
  127MOL   C20235734   5.659   2.806   1.830  0.2355  0.4510 -0.3731
  127MOL   C20335735   5.612   2.713   1.737 -0.1324 -0.1559  0.1293
  127MOL   C20435736   5.856   2.675   1.931 -0.2921 -0.4565 -0.1053
  127MOL   C20535737   5.971   2.665   2.016 -0.4650  0.0183  0.6099
  127MOL   H20635738   5.947   2.977   2.156  0.4211 -1.4006  1.0553
  127MOL   H20735739   5.761   2.994   1.999 -1.6946 -1.2364  0.7573
  127MOL   H20835740   5.599   2.895   1.833 -3.9734 -2.2699 -0.3033
  127MOL   H20935741   5.669   2.620   1.737 -1.6369 -1.1191 -2.0947
  127MOL   H21035742   5.837   2.582   1.880 -0.5156 -0.2479 -0.4018
  127MOL   H21135743   6.031   2.575   2.009  0.3993  0.6439  0.0185
  127MOL   C21235744   5.494   2.720   1.648 -0.3207 -0.4030 -0.0572
  127MOL   C21335745   5.474   2.621   1.549  0.1168  0.0872 -0.3763
  127MOL   C21435746   5.360   2.625   1.463 -0.7066  0.1107  0.1620
  127MOL   C21535747   5.266   2.726   1.469  0.4399 -0.3226 -0.4142
  127MOL   C21635748   5.159   2.710   1.371 -0.3428  0.5000  0.5596
  127MOL   C21735749   5.059   2.799   1.353  0.2840  0.3366  0.0883
  127MOL   C21835750   5.286   2.828   1.564 -0.0670  0.2434  0.1863
  127MOL   C21935751   5.397   2.824   1.651  0.3380  0.2388  0.9324
  127MOL   H22035752   5.548   2.543   1.550  2.5495  2.3112 -1.1266
  127MOL   H22135753   5.349   2.552   1.384 -0.4356  2.3867 -2.0851
  127MOL   H22235754   5.164   2.616   1.317  1.1018  0.4584  0.7394
  127MOL   H22335755   5.055   2.886   1.417 -4.3667  0.4027 -0.1381
  127MOL   H22435756   5.214   2.905   1.587 -1.3371 -1.6123  2.7156
  127MOL   H22535757   5.405   2.898   1.730 -0.2450  1.8046 -0.4461
  127MOL   C22635758   4.950   2.794   1.250  0.2045  0.3880  0.2598
  127MOL   C22735759   4.938   2.687   1.161 -0.0234  0.3381  0.1161
  127MOL   C22835760   4.831   2.680   1.068 -0.6275 -0.0886 -0.2188
  127MOL   C22935761   4.743   2.789   1.062  0.9914 -0.3135 -0.6717
  127MOL   C23035762   4.626   2.798   0.966  0.0034 -1.1254 -0.8629
  127MOL   C23135763   4.581   2.695   0.900 -0.4085  0.7822 -0.0388
  127MOL   C23235764   4.758   2.897   1.151  0.1859  0.4330  1.2335
  127MOL   C23335765   4.857   2.896   1.243 -0.3106  0.9105 -0.1774
  127MOL   H23435766   5.007   2.603   1.157  0.6304  0.7762  1.8513
  127MOL   H23535767   4.829   2.602   0.994 -1.1395 -1.5503  1.3052
  127MOL   H23635768   4.578   2.894   0.965  0.2677 -1.0033 -2.0262
  127MOL   H23735769   4.627   2.598   0.910  0.5685  1.2481  0.0432
  127MOL   H23835770   4.686   2.978   1.143  0.4890  0.8340  2.4875
  127MOL   H23935771   4.860   2.986   1.302 -1.2596  1.5994 -1.1565
  127MOL   C24035772   4.473   2.681   0.799  0.2431 -0.4007  0.2940
  127MOL   C24135773   4.400   2.796   0.753 -0.0111  0.7150  0.2388
  127MOL   C24235774   4.302   2.778   0.657 -0.0603  0.5030  0.0135
  127MOL   C24335775   4.267   2.650   0.607  0.0208 -0.2855  0.2913
  127MOL   C24435776   4.166   2.624   0.505 -0.3602 -0.1171  0.9389
  127MOL   C24535777   4.100   2.721   0.433 -0.3798 -0.0570  0.1073
  127MOL   C24635778   4.331   2.535   0.662  0.5080 -0.1786 -0.2876
  127MOL   C24735779   4.427   2.552   0.765 -0.6846  0.2150  0.3273
  127MOL   H24835780   4.418   2.898   0.780  0.1952  1.1597 -1.5442
  127MOL   H24935781   4.250   2.865   0.622 -1.4411 -0.2975  0.0314
  127MOL   H25035782   4.150   2.518   0.492  1.3152 -0.2258 -0.3777
  127MOL   H25135783   4.140   2.821   0.446  0.2312 -0.1250 -1.1366
  127MOL   H25235784   4.296   2.435   0.641 -0.1899 -0.3805  1.7316
  127MOL   H25335785   4.461   2.457   0.805 -0.8120  0.1538  0.2881
  127MOL   C25435786   3.997   2.698   0.324  0.0229 -0.0061 -0.5160
  127MOL   C25535787   3.930   2.576   0.320 -0.1396 -0.7856 -0.5245
  127MOL   C25635788   3.828   2.548   0.224 -0.3559  0.0474 -0.5335
  127MOL   C25735789   3.813   2.647   0.121  0.8877 -0.0647  0.0590
  127MOL   C25835790   3.724   2.614   0.012 -0.4257  0.0215 -0.2415
  127MOL   C25935791   3.597   2.647   8.123  0.5106  0.3575 -0.2520
  127MOL   C26035792   3.897   2.764   0.110  0.3084 -0.6658 -0.4465
  127MOL   C26135793   3.990   2.793   0.218 -0.2536 -0.2258  0.9346
  127MOL   H26235794   3.951   2.497   0.391  0.2959  1.0167  1.4317
  127MOL   H26335795   3.773   2.457   0.240 -0.9440  0.6678  1.0630
  127MOL   H26435796   3.769   2.547   8.085  0.2262  2.0375 -1.7844
  127MOL   H26535797   3.563   2.601   8.032 -0.2854  1.5830 -0.5719
  127MOL   H26635798   3.886   2.825   0.021 -0.7406  1.9501  1.4038
  127MOL   H26735799   4.062   2.873   0.210 -0.3628 -0.1221  0.9786
  127MOL   C26835800   3.495   2.725   0.043  0.8817 -0.4422  0.2013
  127MOL   C26935801   3.537   2.818   0.143  0.3184 -0.0933  0.1359
  127MOL   C27035802   3.432   2.891   0.207  0.0543 -0.3344  0.3901
  127MOL   C27135803   3.296   2.871   0.173  0.0205 -0.1876  0.7463
  127MOL   C27235804   3.190   2.955   0.240 -0.2098 -0.8859  0.1052
  127MOL   C27335805   3.205   3.042   0.338  0.1134  0.4630  0.2748
  127MOL   C27435806   3.262   2.779   0.071  0.0107 -0.0355 -0.1463
  127MOL   C27535807   3.361   2.705   0.010 -0.3670  0.3303  0.0956
  127MOL   H27635808   3.639   2.851   0.157  0.1551  0.5169 -0.0835
  127MOL   H27735809   3.452   2.967   0.281 -1.5885 -1.6925  2.2785
  127MOL   H27835810   3.087   2.950   0.207  0.8721 -1.7245 -3.3093
  127MOL   H27935811   3.301   3.063   0.382  0.3173 -0.1925  0.1476
  127MOL   H28035812   3.162   2.754   0.037 -0.5281 -1.6338  2.4696
  127MOL   H28135813   3.333   2.633   8.079 -0.1630 -0.4497  0.7571
  127MOL   H28235814   3.126   3.099   0.385  0.6034  1.5852 -0.2357
  128MOL     C135815   5.268   3.248   6.115  0.0404  0.3105  0.4269
  128MOL     C235816   5.179   3.300   6.023  0.2053 -0.1075 -0.3806
  128MOL     C335817   5.050   3.249   6.008 -0.8309 -0.2064 -0.7661
  128MOL     C435818   5.022   3.126   6.071  0.1678  0.4528 -0.7044
  128MOL     C535819   4.901   3.053   6.059 -0.1515 -0.3763 -0.1916
  128MOL     C635820   4.802   3.082   5.970 -0.3888 -0.2355 -0.6271
  128MOL     C735821   5.118   3.066   6.152 -0.0314  0.1290 -0.7863
  128MOL     C835822   5.240   3.132   6.184  0.1049  0.2526  0.8731
  128MOL     H935823   5.207   3.399   5.988 -1.6661  1.0641  1.3529
  128MOL    H1035824   4.969   3.295   5.954 -1.0858  0.6915  0.3519
  128MOL    H1135825   4.881   2.973   6.129 -2.0784 -0.7700 -1.1558
  128MOL    H1235826   4.817   3.166   5.903 -0.0780 -0.1486 -0.4539
  128MOL    H1335827   5.106   2.966   6.190 -0.7733  1.5559  2.9022
  128MOL    H1435828   5.309   3.084   6.251  0.7801  0.4134  0.3007
  128MOL    H1535829   5.367   3.286   6.131  0.7400 -1.7120  1.0754
  128MOL    C1635830   4.678   3.006   5.943  0.1118 -0.1270 -0.2705
  128MOL    C1735831   4.568   3.073   5.894  0.2432 -0.2979  0.0393
  128MOL    C1835832   4.452   3.003   5.850  0.7777  0.0845 -0.1223
  128MOL    C1935833   4.435   2.866   5.881  0.8601 -0.2223 -0.1541
  128MOL    C2035834   4.315   2.795   5.860 -0.1200 -0.2182  0.1530
  128MOL    C2135835   4.218   2.838   5.774 -0.0878  0.3182  0.9696
  128MOL    C2235836   4.539   2.801   5.953 -0.1181  0.2308 -0.0406
  128MOL    C2335837   4.661   2.869   5.972 -0.8817 -0.2706 -0.6808
  128MOL    H2435838   4.578   3.178   5.868 -0.2094 -0.4124 -0.6176
  128MOL    H2535839   4.365   3.053   5.811  0.6308  0.4681  0.6932
  128MOL    H2635840   4.312   2.702   5.915 -0.3238  0.3134  1.0434
  128MOL    H2735841   4.237   2.927   5.716 -0.0417  1.2057  2.3237
  128MOL    H2835842   4.536   2.696   5.978  2.2313 -0.0956 -1.0291
  128MOL    H2935843   4.743   2.817   6.020 -1.1290  1.6337  1.9063
  128MOL    C3035844   4.088   2.777   5.738  0.2170 -0.2726 -0.2761
  128MOL    C3135845   4.048   2.644   5.778  0.4344 -0.3623 -0.4138
  128MOL    C3235846   3.916   2.605   5.750 -0.1114  0.5318  0.7512
  128MOL    C3335847   3.829   2.695   5.676 -0.1166 -0.6190  0.4110
  128MOL    C3435848   3.692   2.652   5.636  0.5166  0.3012 -0.0764
  128MOL    C3535849   3.631   2.543   5.680 -0.5149 -0.0153  0.1185
  128MOL    C3635850   3.868   2.823   5.645  0.3717 -0.6310  0.0194
  128MOL    C3735851   3.997   2.866   5.678  0.4746 -0.1878 -0.4037
  128MOL    H3835852   4.106   2.574   5.836 -1.2716 -1.3961  0.1133
  128MOL    H3935853   3.887   2.507   5.784  0.9200 -0.4210 -1.0924
  128MOL    H4035854   3.644   2.718   5.564 -0.5718 -0.6774 -0.2581
  128MOL    H4135855   3.674   2.479   5.757 -2.1436  0.0836  1.1277
  128MOL    H4235856   3.792   2.885   5.599 -2.3764 -2.6716  1.6289
  128MOL    H4335857   4.016   2.971   5.659 -3.3753  1.2238  2.9408
  128MOL    C4435858   3.499   2.497   5.639  0.2196  0.2747  0.0103
  128MOL    C4535859   3.454   2.376   5.700  0.4701  0.3367  0.7631
  128MOL    C4635860   3.329   2.320   5.669 -0.5415 -0.1096  0.3031
  128MOL    C4735861   3.241   2.386   5.586  0.9248  0.2386  0.1401
  128MOL    C4835862   3.103   2.328   5.572  0.1337 -0.1545  0.4608
  128MOL    C4935863   3.003   2.378   5.501  0.7889  0.5401 -0.5008
  128MOL    C5035864   3.285   2.507   5.524 -0.7506  0.5329  0.6884
  128MOL    C5135865   3.411   2.558   5.549  0.0950 -0.4415 -0.2137
  128MOL    H5235866   3.524   2.327   5.766  0.6583  1.2878  1.2804
  128MOL    H5335867   3.297   2.240   5.734 -1.1413 -1.9819 -2.2388
  128MOL    H5435868   3.091   2.235   5.626 -0.9565 -2.5930 -3.7590
  128MOL    H5535869   3.022   2.462   5.436 -1.2399  0.9244 -0.6060
  128MOL    H5635870   3.219   2.570   5.466  1.4409  1.8435 -0.4471
  128MOL    H5735871   3.437   2.651   5.501  0.8318 -1.5273 -1.9786
  128MOL    C5835872   2.865   2.323   5.494  0.6834 -0.2184 -0.6624
  128MOL    C5935873   2.765   2.381   5.421 -0.6217  0.3820 -0.1201
  128MOL    C6035874   2.641   2.320   5.413 -0.2595  0.3146 -0.1516
  128MOL    C6135875   2.614   2.200   5.489  0.0665  0.2561  0.1947
  128MOL    C6235876   2.482   2.128   5.471  0.7936  0.5587 -0.2097
  128MOL    C6335877   2.386   2.158   5.375  0.3474  0.0390  0.5395
  128MOL    C6435878   2.714   2.142   5.566 -0.1971 -0.4041  0.2321
  128MOL    C6535879   2.841   2.204   5.560  0.4568  0.4169 -0.6058
  128MOL    H6635880   2.785   2.479   5.379  0.0555  0.5870  0.6764
  128MOL    H6735881   2.562   2.365   5.355 -1.4917 -1.0699  0.4254
  128MOL    H6835882   2.467   2.045   5.537 -0.5934  1.9825  1.3139
  128MOL    H6935883   2.397   2.233   5.299 -0.8453 -1.5958 -1.2739
  128MOL    H7035884   2.716   2.038   5.597 -1.7748 -0.9127 -1.2703
  128MOL    H7135885   2.917   2.140   5.605 -1.0957 -1.9548 -1.2365
  128MOL    C7235886   2.256   2.096   5.360 -0.0871 -0.3157  0.9714
  128MOL    C7335887   2.169   2.138   5.257  0.8771 -0.3250 -0.5478
  128MOL    C7435888   2.035   2.086   5.251  0.1206  0.6932  0.5492
  128MOL    C7535889   1.991   1.991   5.345  0.8152  0.2761  0.2422
  128MOL    C7635890   1.857   1.926   5.352  0.8854 -0.8787 -0.1779
  128MOL    C7735891   1.823   1.816   5.414 -0.3127 -0.4505  0.1419
  128MOL    C7835892   2.078   1.957   5.448 -0.1050  0.8186 -0.5775
  128MOL    C7935893   2.207   2.007   5.454 -0.3026  0.1847 -0.2167
  128MOL    H8035894   2.198   2.214   5.186  1.7584  1.9284  2.1096
  128MOL    H8135895   1.981   2.123   5.166  1.3196  0.7596 -0.1891
  128MOL    H8235896   1.782   1.982   5.297  1.4748 -1.0929 -1.2177
  128MOL    H8335897   1.893   1.759   5.472 -0.5669 -0.5675  0.3342
  128MOL    H8435898   2.048   1.894   5.531 -1.7654  0.0558 -1.7235
  128MOL    H8535899   2.271   1.985   5.538 -0.3489  1.2284  0.0968
  128MOL    C8635900   1.691   1.768   5.420  0.3193 -0.2175  0.2900
  128MOL    C8735901   1.573   1.848   5.400  0.0481  0.7878 -0.2944
  128MOL    C8835902   1.453   1.779   5.387  0.3344 -0.1023  0.8511
  128MOL    C8935903   1.436   1.645   5.417  0.6035 -0.0738  0.0534
  128MOL    C9035904   1.303   1.588   5.423  0.4104 -0.1250  0.3389
  128MOL    C9135905   1.181   1.649   5.431  0.0490 -0.4240  0.4093
  128MOL    C9235906   1.552   1.569   5.448  0.0185  0.2426 -0.5303
  128MOL    C9335907   1.677   1.627   5.448 -1.4773  0.1113  1.4755
  128MOL    H9435908   1.575   1.955   5.385  0.7050  0.8357  0.1200
  128MOL    H9535909   1.363   1.837   5.370  0.0432 -0.6611  0.4700
  128MOL    H9635910   1.304   1.480   5.418 -0.9463 -0.1352  0.0939
  128MOL    H9735911   1.180   1.756   5.435 -1.1071 -0.4985  2.6244
  128MOL    H9835912   1.563   1.462   5.460 -0.1315  0.3777  1.0193
  128MOL    H9935913   1.765   1.566   5.464  0.3235  0.9143 -4.2227
  128MOL   C10035914   1.051   1.591   5.420  0.0545  0.2825 -0.5643
  128MOL   C10135915   0.941   1.676   5.387 -1.2005  0.1419  0.0509
  128MOL   C10235916   0.811   1.625   5.370 -0.1287  0.7696  0.0374
  128MOL   C10335917   0.787   1.484   5.381 -0.1906 -0.1158 -0.2302
  128MOL   C10435918   0.663   1.419   5.346  0.7166 -0.0514 -0.1331
  128MOL   C10535919   0.543   1.472   5.311 -0.1505 -0.3384 -0.0787
  128MOL   C10635920   0.897   1.398   5.419  0.1934  0.1566  0.6638
  128MOL   C10735921   1.027   1.450   5.438  0.7251 -0.0437  0.0792
  128MOL   H10835922   0.969   1.780   5.376 -4.5405  1.0258 -0.4802
  128MOL   H10935923   0.730   1.691   5.346 -1.1885  0.2932  2.2337
  128MOL   H11035924   0.666   1.311   5.340  0.9479 -0.0287 -0.4724
  128MOL   H11135925   0.529   1.579   5.308 -1.1059 -0.4345  0.7194
  128MOL   H11235926   0.889   1.291   5.432 -0.4053  0.1935  0.6260
  128MOL   H11335927   1.107   1.381   5.460  2.2875  1.3028 -1.1607
  128MOL   C11435928   0.431   1.391   5.255  1.1466 -0.1020  0.2951
  128MOL   C11535929   0.306   1.455   5.218 -0.6262 -0.3544 -0.1971
  128MOL   C11635930   0.205   1.394   5.144 -0.8719 -0.3950  0.4155
  128MOL   C11735931   0.219   1.254   5.117 -0.0267  0.3534  0.1146
  128MOL   C11835932   0.110   1.174   5.043 -0.3682  0.4361 -0.2154
  128MOL   C11935933   0.016   1.228   4.967  0.7325  0.3381 -0.2170
  128MOL   C12035934   0.340   1.182   5.164  0.6566  0.0831  0.0476
  128MOL   C12135935   0.436   1.253   5.227  0.1103  0.3460  0.9855
  128MOL   H12235936   0.296   1.561   5.232  2.5725  0.2777 -2.0408
  128MOL   H12335937   0.115   1.451   5.125 -1.6743 -1.8900 -0.3631
  128MOL   H12435938   0.117   1.067   5.052 -0.8036  0.4375  0.1486
  128MOL   H12535939   0.023   1.335   4.957 -1.1505  0.6455  1.3305
  128MOL   H12635940   0.351   1.078   5.141 -0.4874  0.2554 -1.3881
  128MOL   H12735941   0.520   1.192   5.252 -1.8436 -1.3850  3.5280
  128MOL   C12835942   8.059   1.145   4.904 -0.8235 -0.5040  0.1286
  128MOL   C12935943   8.001   1.030   4.968  0.6272 -0.6243  0.3295
  128MOL   C13035944   7.908   0.955   4.897 -0.0207  0.4846 -0.0903
  128MOL   C13135945   7.856   1.002   4.777  0.0969 -0.2545 -0.6070
  128MOL   C13235946   7.741   0.934   4.708  0.0240  0.0524  0.0930
  128MOL   C13335947   7.699   0.809   4.724  1.1140  0.1035 -0.5687
  128MOL   C13435948   7.917   1.103   4.709 -0.5071  0.6832 -0.1296
  128MOL   C13535949   8.016   1.179   4.777 -0.1695 -0.1952 -0.1885
  128MOL   H13635950   8.010   1.010   5.073 -0.1866 -0.3562  0.4551
  128MOL   H13735951   7.864   0.875   4.955 -2.3056  0.8587 -1.2668
  128MOL   H13835952   7.692   1.002   4.639  0.4176  0.0130 -0.2251
  128MOL   H13935953   7.751   0.750   4.797  3.4674  1.0246 -1.4497
  128MOL   H14035954   7.881   1.132   4.611  0.7850 -0.8959 -1.0978
  128MOL   H14135955   8.045   1.274   4.736 -1.2133 -0.1681 -0.8976
  128MOL   C14235956   7.587   0.748   4.643  0.3590  0.2070 -0.1118
  128MOL   C14335957   7.525   0.636   4.699 -0.4096  0.2012 -0.2040
  128MOL   C14435958   7.407   0.578   4.634  0.2083  0.0872  0.2459
  128MOL   C14535959   7.349   0.642   4.526  0.5503  0.0273  0.1909
  128MOL   C14635960   7.217   0.617   4.467  0.0181 -0.1386 -0.1465
  128MOL   C14735961   7.113   0.552   4.529  0.0821 -0.6520 -0.2296
  128MOL   C14835962   7.421   0.746   4.464 -0.2944 -0.4500  0.3023
  128MOL   C14935963   7.534   0.802   4.525  0.1122 -0.5246 -0.0716
  128MOL   H15035964   7.567   0.594   4.789 -0.0565  1.2634  0.1314
  128MOL   H15135965   7.361   0.493   4.683 -1.0442  0.3792 -0.4256
  128MOL   H15235966   7.204   0.657   4.367  0.6617 -1.8779 -0.9313
  128MOL   H15335967   7.125   0.524   4.633  0.9477 -0.7565 -0.3585
  128MOL   H15435968   7.389   0.796   4.373  1.5446  0.7206  0.2779
  128MOL   H15535969   7.580   0.890   4.482  0.2547  0.1087  1.3440
  128MOL   C15635970   6.985   0.522   4.474  0.6123  0.4273  0.0794
  128MOL   C15735971   6.959   0.547   4.338  1.1969 -0.0875 -0.5232
  128MOL   C15835972   6.838   0.514   4.285 -0.2501 -0.2498 -0.1854
  128MOL   C15935973   6.739   0.449   4.361 -0.0271  0.0015  0.0300
  128MOL   C16035974   6.602   0.416   4.312 -0.3917  0.7474  0.7526
  128MOL   C16135975   6.541   0.480   4.210  0.7695 -0.4330  0.6227
  128MOL   C16235976   6.757   0.425   4.499 -0.1181  0.8085  0.8398
  128MOL   C16335977   6.885   0.461   4.551  0.6312 -0.2680 -0.2029
  128MOL   H16435978   7.035   0.585   4.270  0.6038 -0.1604 -1.2396
  128MOL   H16535979   6.812   0.528   4.181 -0.1664 -1.3701 -0.3551
  128MOL   H16635980   6.555   0.331   4.360 -1.0835 -0.0718 -1.3182
  128MOL   H16735981   6.577   0.574   4.172  1.3839 -1.3925 -1.2551
  128MOL   H16835982   6.682   0.382   4.563 -0.3207 -0.6952 -0.3776
  128MOL   H16935983   6.903   0.440   4.656 -2.6327  0.1217  0.5032
  128MOL   C17035984   6.416   0.429   4.147 -0.0158  0.0051 -0.6382
  128MOL   C17135985   6.338   0.506   4.052  0.1433  0.6451  0.5498
  128MOL   C17235986   6.219   0.459   3.988  1.2087  0.5111 -0.0879
  128MOL   C17335987   6.172   0.327   4.012  0.2481  0.2778  0.1742
  128MOL   C17435988   6.030   0.286   3.970  0.3704  0.0492  0.1262
  128MOL   C17535989   5.948   0.359   3.895 -0.7892 -0.3162  0.0036
  128MOL   C17635990   6.249   0.248   4.106 -0.1494 -0.1480  1.1215
  128MOL   C17735991   6.374   0.292   4.157 -0.4629 -0.0523  0.2110
  128MOL   H17835992   6.373   0.600   4.012  0.0647 -0.0653 -1.2017
  128MOL   H17935993   6.175   0.536   3.926  1.6294  0.8726  0.0562
  128MOL   H18035994   5.990   0.189   3.996  0.5039 -0.0829 -0.1553
  128MOL   H18135995   5.988   0.451   3.854 -0.8627 -0.6621 -0.8517
  128MOL   H18235996   6.221   0.146   4.124  0.2990 -0.6798 -0.9740
  128MOL   H18335997   6.440   0.218   4.199  0.2659  0.2956 -0.3206
  128MOL   C18435998   5.802   0.331   3.861 -0.4283  0.6164 -0.3854
  128MOL   C18535999   5.727   0.435   3.801  0.5909  0.1722 -0.0288
  128MOL   C18636000   5.596   0.417   3.768 -1.1024  0.2701  0.7052
  128MOL   C18736001   5.535   0.291   3.790  0.9430  0.1766 -0.6824
  128MOL   C18836002   5.393   0.274   3.730 -0.8673  0.0982 -0.9809
  128MOL   C18936003   5.322   0.377   3.673  0.3800 -0.0900 -0.2112
  128MOL   C19036004   5.606   0.182   3.847  0.6406  0.2590 -0.0477
  128MOL   C19136005   5.735   0.201   3.886  0.1564 -0.3579  0.2176
  128MOL   H19236006   5.782   0.526   3.782  0.0682  0.5824  0.4224
  128MOL   H19336007   5.558   0.507   3.720  0.2253 -0.0718 -1.0321
  128MOL   H19436008   5.351   0.175   3.735  1.9229 -1.2432 -2.5658
  128MOL   H19536009   5.359   0.478   3.665 -1.4851  0.6478  0.3005
  128MOL   H19636010   5.554   0.092   3.876  1.9725 -1.0498 -1.6638
  128MOL   H19736011   5.792   0.119   3.926  0.0751  0.3538  1.8272
  128MOL   C19836012   5.189   0.356   3.615  0.6648 -0.4074  0.0738
  128MOL   C19936013   5.108   0.244   3.647 -0.6125 -0.2672 -0.2677
  128MOL   C20036014   4.983   0.229   3.587  0.3039  0.8139  0.0882
  128MOL   C20136015   4.937   0.321   3.492 -0.1475 -0.0939 -0.1582
  128MOL   C20236016   4.807   0.297   3.433  0.1270  0.4567 -0.1050
  128MOL   C20336017   4.747   0.368   3.335  0.2127  0.3724  0.2226
  128MOL   C20436018   5.018   0.432   3.458 -0.5119  0.2751  0.1699
  128MOL   C20536019   5.146   0.441   3.515  0.1910  0.6257 -0.5265
  128MOL   H20636020   5.126   0.169   3.721  0.5698  0.5962  0.3277
  128MOL   H20736021   4.926   0.145   3.623 -0.0093  0.7529 -0.5400
  128MOL   H20836022   4.759   0.210   3.477  0.6596 -0.0649 -0.5525
  128MOL   H20936023   4.798   0.459   3.307 -0.1399  0.6543  0.4865
  128MOL   H21036024   4.989   0.497   3.377 -0.9504  1.0154  0.9190
  128MOL   H21136025   5.211   0.519   3.478  3.8525 -0.9645  2.2937
  128MOL   C21236026   4.626   0.331   3.257  1.3432  0.0024 -0.2983
  128MOL   C21336027   4.580   0.416   3.147  0.1981 -0.0972 -0.1159
  128MOL   C21436028   4.467   0.381   3.072 -0.2998 -0.0830  0.3173
  128MOL   C21536029   4.398   0.259   3.096  0.0035  0.0411  0.3338
  128MOL   C21636030   4.293   0.206   3.011 -0.0723 -0.9836  0.7002
  128MOL   C21736031   4.248   0.264   2.898 -0.7849 -0.0546 -0.3672
  128MOL   C21836032   4.436   0.178   3.199 -0.0703 -0.2497  0.1559
  128MOL   C21936033   4.548   0.213   3.282 -0.1837  0.1764  0.2044
  128MOL   H22036034   4.617   0.517   3.136 -0.0758 -0.1913 -1.9731
  128MOL   H22136035   4.429   0.444   2.992 -0.3130  1.0025  1.1748
  128MOL   H22236036   4.247   0.114   3.043 -1.4656 -1.1915 -1.8088
  128MOL   H22336037   4.296   0.352   2.860 -0.6377 -0.4269 -1.0546
  128MOL   H22436038   4.392   0.080   3.213  1.1754 -0.6487  1.5014
  128MOL   H22536039   4.585   0.138   3.351 -0.1456  0.1969  0.2062
  128MOL   C22636040   4.133   0.213   2.825 -0.1561  0.1232 -0.1251
  128MOL   C22736041   4.036   0.128   2.879  0.3687 -0.2813  0.1058
  128MOL   C22836042   3.915   0.106   2.810  0.4062  0.3939 -0.7673
  128MOL   C22936043   3.900   0.178   2.694  0.2940  0.4630  0.0830
  128MOL   C23036044   3.761   0.183   2.645 -0.1816  0.2519  0.1534
  128MOL   C23136045   3.725   0.193   2.518 -0.3336  0.5196  0.1309
  128MOL   C23236046   4.002   0.247   2.626 -0.5376  0.0749 -0.2413
  128MOL   C23336047   4.124   0.256   2.695 -0.3910  0.4260  0.0516
  128MOL   H23436048   4.054   0.081   2.974  1.7523 -2.5513 -1.2227
  128MOL   H23536049   3.839   0.042   2.852 -0.3939  1.0253 -1.2486
  128MOL   H23636050   3.688   0.177   2.725 -2.9245  0.2166 -2.2583
  128MOL   H23736051   3.801   0.185   2.441  1.4596  0.0674  1.9254
  128MOL   H23836052   3.985   0.300   2.534 -0.4789  0.4658 -0.0277
  128MOL   H23936053   4.190   0.323   2.641  0.3022  0.4117  0.8757
  128MOL   C24036054   3.586   0.206   2.470  0.1060 -0.1064 -0.3721
  128MOL   C24136055   3.554   0.211   2.331 -0.1491 -0.8509 -0.3935
  128MOL   C24236056   3.423   0.225   2.284 -0.7693 -0.4258 -0.0270
  128MOL   C24336057   3.315   0.251   2.377 -0.1728  0.2472 -0.5484
  128MOL   C24436058   3.170   0.285   2.335 -0.6478  0.0832  0.9446
  128MOL   C24536059   3.131   0.310   2.209 -0.3572 -0.1949  0.6372
  128MOL   C24636060   3.345   0.247   2.513 -0.1965  0.2401 -0.1206
  128MOL   C24736061   3.476   0.220   2.561 -0.5038  0.2626  0.5353
  128MOL   H24836062   3.634   0.196   2.260  0.2956 -1.5294  0.2356
  128MOL   H24936063   3.407   0.218   2.178  0.6746 -1.7161 -0.1608
  128MOL   H25036064   3.102   0.303   2.417 -1.9617 -0.5873  0.0229
  128MOL   H25136065   3.201   0.314   2.126 -0.8643 -0.1068  0.2088
  128MOL   H25236066   3.255   0.259   2.571  1.1017 -0.5404  2.1344
  128MOL   H25336067   3.490   0.213   2.668  3.0842 -1.5078  0.0187
  128MOL   C25436068   2.996   0.336   2.173 -0.6249 -0.6324 -0.5351
  128MOL   C25536069   2.897   0.348   2.268 -0.4362 -0.8267  0.0507
  128MOL   C25636070   2.768   0.397   2.236  0.0862  0.0986  0.8797
  128MOL   C25736071   2.733   0.424   2.098  0.3841 -0.1183  0.0649
  128MOL   C25836072   2.601   0.489   2.082 -0.1454  0.2900  0.7234
  128MOL   C25936073   2.538   0.500   1.964  0.5436  0.4264  0.2130
  128MOL   C26036074   2.838   0.405   2.001  0.4140 -0.0661  0.2865
  128MOL   C26136075   2.963   0.350   2.036 -0.5288  0.5572 -0.3931
  128MOL   H26236076   2.924   0.346   2.373 -0.9931  1.4191  0.2602
  128MOL   H26336077   2.703   0.407   2.321  0.5627 -0.1809  1.2782
  128MOL   H26436078   2.560   0.534   2.170 -0.4527  0.0254  0.7169
  128MOL   H26536079   2.454   0.568   1.963  0.4988  0.3611 -0.3984
  128MOL   H26636080   2.815   0.428   1.898  1.1612  3.2451  0.7916
  128MOL   H26736081   3.044   0.351   1.965 -0.0790  0.8042  0.1227
  128MOL   C26836082   2.568   0.438   1.838  0.7831 -0.6965  0.0460
  128MOL   C26936083   2.589   0.299   1.839  0.2842 -0.0504  0.3013
  128MOL   C27036084   2.627   0.230   1.723 -0.6348  0.2412  0.2723
  128MOL   C27136085   2.634   0.295   1.599  0.4126 -0.2701  0.1190
  128MOL   C27236086   2.672   0.212   1.486  0.6312 -0.3317  0.3370
  128MOL   C27336087   2.666   0.252   1.358 -0.2080  0.2148 -0.1489
  128MOL   C27436088   2.614   0.442   1.596  0.1546 -0.7352 -0.6925
  128MOL   C27536089   2.584   0.507   1.718  0.0225 -0.1281  0.2248
  128MOL   H27636090   2.578   0.242   1.930  0.8438 -0.1258  0.3266
  128MOL   H27736091   2.636   0.124   1.742  1.7606  0.4782  0.5766
  128MOL   H27836092   2.701   0.110   1.503 -2.9822 -0.9549  3.6231
  128MOL   H27936093   2.655   0.352   1.319 -1.3360 -0.0576 -0.5666
  128MOL   H28036094   2.635   0.506   1.512  1.3291  0.1966  0.2955
  128MOL   H28136095   2.572   0.614   1.712  2.1526  0.2090  1.3498
  128MOL   H28236096   2.684   0.178   1.280  3.6502 -0.2119  1.0633
  129MOL     C136097   7.813   6.695   3.813 -0.2745  0.2084  0.0592
  129MOL     C236098   7.762   6.598   3.721 -0.0501 -0.4265 -0.0548
  129MOL     C336099   7.635   6.612   3.671 -0.0759  0.5951 -0.5065
  129MOL     C436100   7.555   6.719   3.706 -0.2853  0.0554  0.2747
  129MOL     C536101   7.417   6.729   3.647 -0.7933  0.2402 -0.0930
  129MOL     C636102   7.348   6.633   3.591 -0.8761  0.1058  0.5354
  129MOL     C736103   7.602   6.810   3.796  0.1700  0.3248 -0.2838
  129MOL     C836104   7.728   6.798   3.855  0.8497 -0.4791 -0.1285
  129MOL     H936105   7.832   6.525   3.685  1.4176  0.3554  1.1619
  129MOL    H1036106   7.593   6.540   3.602 -0.0484 -1.3875  1.4954
  129MOL    H1136107   7.372   6.827   3.649 -0.1724  0.5194  0.2319
  129MOL    H1236108   7.392   6.534   3.590 -0.0728  0.4488  1.3928
  129MOL    H1336109   7.541   6.894   3.824 -0.7519 -0.0722 -1.0588
  129MOL    H1436110   7.758   6.870   3.930 -2.6625 -0.5208  1.4431
  129MOL    H1536111   7.918   6.692   3.839 -1.1305 -0.0040  3.6435
  129MOL    C1636112   7.220   6.644   3.522  0.1061 -0.0496  0.2095
  129MOL    C1736113   7.142   6.533   3.499  0.0130 -0.6434 -0.0121
  129MOL    C1836114   7.019   6.541   3.444 -0.1408  0.2164  0.2839
  129MOL    C1936115   6.959   6.672   3.407  0.2080  0.0826 -0.2571
  129MOL    C2036116   6.823   6.698   3.363 -0.3496 -0.0766 -0.0769
  129MOL    C2136117   6.733   6.605   3.342 -0.7002 -0.0773 -0.2173
  129MOL    C2236118   7.039   6.789   3.423  0.4796  0.5845 -0.5173
  129MOL    C2336119   7.164   6.768   3.489 -0.3063  0.2949  0.3314
  129MOL    H2436120   7.177   6.433   3.518 -1.3215 -0.9228  1.0401
  129MOL    H2536121   6.970   6.447   3.422  1.7222 -0.9551  1.0060
  129MOL    H2636122   6.811   6.804   3.345 -0.3097  0.0595  0.6882
  129MOL    H2736123   6.760   6.504   3.371 -1.6954  0.6638  3.5366
  129MOL    H2836124   7.008   6.888   3.390  1.5539  1.3705  0.8036
  129MOL    H2936125   7.221   6.859   3.505  0.8438 -0.4931  0.8288
  129MOL    C3036126   6.597   6.634   3.284  0.2137 -0.2062  0.0170
  129MOL    C3136127   6.545   6.768   3.269 -0.4541  0.4999 -0.5321
  129MOL    C3236128   6.415   6.785   3.215  0.2353 -0.1705  0.2213
  129MOL    C3336129   6.343   6.673   3.179  0.0143  0.2540  0.2248
  129MOL    C3436130   6.211   6.707   3.130 -0.0640 -0.5776  0.1205
  129MOL    C3536131   6.108   6.621   3.118 -0.1548  0.1633  0.6299
  129MOL    C3636132   6.392   6.539   3.191  0.5067  0.1121 -0.4193
  129MOL    C3736133   6.519   6.520   3.243  0.4864 -0.1040  0.6726
  129MOL    H3836134   6.601   6.856   3.298 -0.1102 -0.0268  0.4066
  129MOL    H3936135   6.373   6.884   3.205 -1.2021 -0.9011 -1.2680
  129MOL    H4036136   6.209   6.808   3.093  0.8308 -0.5522  0.1159
  129MOL    H4136137   6.129   6.519   3.148  1.8800  0.9322  1.9267
  129MOL    H4236138   6.330   6.455   3.164  2.3676 -2.3040  2.5221
  129MOL    H4336139   6.559   6.420   3.246  1.4342  0.2415 -0.1596
  129MOL    C4436140   5.977   6.650   3.060 -0.0465  0.6046  0.7213
  129MOL    C4536141   5.888   6.543   3.038 -0.3431  0.2186  0.3648
  129MOL    C4636142   5.755   6.567   3.010  0.5296 -0.7055 -0.3449
  129MOL    C4736143   5.705   6.700   3.002 -0.4121  0.6407  0.1293
  129MOL    C4836144   5.564   6.729   2.973 -0.0257  0.7818 -0.3629
  129MOL    C4936145   5.481   6.639   2.919 -0.1323 -0.0853 -0.4296
  129MOL    C5036146   5.792   6.811   3.018  0.0630  0.2279 -0.8043
  129MOL    C5136147   5.927   6.784   3.046 -0.2516 -0.0849  0.0771
  129MOL    H5236148   5.910   6.438   3.054 -1.5713 -0.6675 -3.3021
  129MOL    H5336149   5.703   6.473   3.000  1.8018 -1.5172  0.5590
  129MOL    H5436150   5.536   6.830   2.999  3.0647  1.6348 -0.1014
  129MOL    H5536151   5.525   6.543   2.894  1.5858  0.2600  1.2329
  129MOL    H5636152   5.758   6.913   3.020 -2.1439 -0.4819 -0.8236
  129MOL    H5736153   5.995   6.867   3.062  0.9794 -1.0289 -0.1460
  129MOL    C5836154   5.337   6.655   2.906 -0.3472  0.4578  0.5208
  129MOL    C5936155   5.273   6.778   2.927 -0.1155  0.1166 -0.4506
  129MOL    C6036156   5.135   6.786   2.909  0.3608  0.4907 -0.2182
  129MOL    C6136157   5.059   6.670   2.885  0.5930 -0.4929  0.4788
  129MOL    C6236158   4.912   6.687   2.879 -0.2816 -0.3825  0.2536
  129MOL    C6336159   4.844   6.801   2.864  0.1150 -0.1247 -0.4260
  129MOL    C6436160   5.121   6.545   2.871 -0.1964  0.1448  0.7793
  129MOL    C6536161   5.260   6.535   2.877 -0.0635 -0.0619  0.6274
  129MOL    H6636162   5.332   6.862   2.961  0.2834 -0.4434  0.2613
  129MOL    H6736163   5.087   6.881   2.926 -0.3043 -0.4121  3.5159
  129MOL    H6836164   4.846   6.605   2.903  1.2386 -2.0271 -1.0726
  129MOL    H6936165   4.895   6.889   2.829  1.3515 -0.7290 -0.1640
  129MOL    H7036166   5.061   6.456   2.853 -0.1234  0.1968  0.2639
  129MOL    H7136167   5.308   6.439   2.862 -0.8775 -0.2340 -0.9344
  129MOL    C7236168   4.704   6.821   2.878 -0.2647  0.8995 -0.0830
  129MOL    C7336169   4.608   6.717   2.892  0.2760 -0.2946  0.1899
  129MOL    C7436170   4.473   6.742   2.891  0.8463  0.1901  0.3629
  129MOL    C7536171   4.423   6.874   2.880 -0.0811 -1.0079  0.3392
  129MOL    C7636172   4.278   6.898   2.859  0.5123  0.2980 -0.3816
  129MOL    C7736173   4.228   7.016   2.812 -0.2891 -0.5315  0.6143
  129MOL    C7836174   4.515   6.975   2.868  0.2060  0.0497 -0.3158
  129MOL    C7936175   4.654   6.955   2.873  0.1034  0.1195 -0.7231
  129MOL    H8036176   4.634   6.613   2.904  0.7126 -0.1083  0.8897
  129MOL    H8136177   4.405   6.660   2.905  0.5309  0.2769 -0.6222
  129MOL    H8236178   4.214   6.816   2.886 -1.7015  1.9077 -0.5769
  129MOL    H8336179   4.293   7.100   2.791 -1.0942 -0.0591  0.0133
  129MOL    H8436180   4.491   7.078   2.849 -0.9541 -0.0978  0.3089
  129MOL    H8536181   4.716   7.042   2.856  0.4492 -0.0400 -0.2819
  129MOL    C8636182   4.085   7.045   2.781  0.4329 -0.6812 -0.0024
  129MOL    C8736183   4.061   7.160   2.699  0.0367 -0.0862  0.0052
  129MOL    C8836184   3.930   7.189   2.665 -0.4806  0.5151 -0.7114
  129MOL    C8936185   3.822   7.111   2.709  0.1470 -0.0285  0.4811
  129MOL    C9036186   3.677   7.147   2.695  0.4160  0.5377 -0.0088
  129MOL    C9136187   3.613   7.263   2.688 -0.0297 -0.6525 -0.3681
  129MOL    C9236188   3.853   6.990   2.767  0.3048  0.4541 -0.0184
  129MOL    C9336189   3.979   6.961   2.816  0.0186 -0.5204 -0.3003
  129MOL    H9436190   4.138   7.228   2.664  1.2599 -0.7519  1.3149
  129MOL    H9536191   3.906   7.286   2.626 -1.6071  0.4116 -0.2861
  129MOL    H9636192   3.608   7.064   2.695  0.1374  0.7443 -1.5178
  129MOL    H9736193   3.674   7.352   2.682  0.8376 -1.1875  0.3145
  129MOL    H9836194   3.770   6.926   2.793  0.8452  0.0832  0.7829
  129MOL    H9936195   3.991   6.871   2.874  0.8117  0.7672  1.5915
  129MOL   C10036196   3.475   7.291   2.676 -0.2253  0.2837 -0.5073
  129MOL   C10136197   3.440   7.425   2.638  0.3622 -0.8774  0.4260
  129MOL   C10236198   3.304   7.464   2.640 -0.1315  0.1789 -0.0259
  129MOL   C10336199   3.201   7.374   2.660 -0.3653 -0.1435 -0.0785
  129MOL   C10436200   3.058   7.413   2.638  0.7901  0.2845 -0.4919
  129MOL   C10536201   2.954   7.389   2.723 -0.4215  0.8170  0.2420
  129MOL   C10636202   3.231   7.242   2.697  0.9498  0.5559  0.0910
  129MOL   C10736203   3.373   7.199   2.707  0.0732  0.0320 -0.6632
  129MOL   H10836204   3.518   7.494   2.611  0.0907 -1.2006 -1.2436
  129MOL   H10936205   3.274   7.562   2.604  2.4076  1.3944  1.0414
  129MOL   H11036206   3.033   7.463   2.546 -0.5240  0.3198 -0.1308
  129MOL   H11136207   2.979   7.334   2.813  0.9621  1.4105  0.2310
  129MOL   H11236208   3.145   7.181   2.722  1.3367 -0.0249  0.0196
  129MOL   H11336209   3.395   7.102   2.748 -2.2866 -0.9917 -1.7572
  129MOL   C11436210   2.815   7.431   2.695  0.4308  0.1227  0.2857
  129MOL   C11536211   2.773   7.505   2.586 -0.1158 -0.7828 -0.0924
  129MOL   C11636212   2.644   7.552   2.569  0.0883 -0.0965 -0.5937
  129MOL   C11736213   2.548   7.522   2.668  0.2683  0.2506  0.1360
  129MOL   C11836214   2.413   7.583   2.664  0.1933  0.7648  0.1384
  129MOL   C11936215   2.307   7.539   2.736  1.1623 -0.1269  0.4224
  129MOL   C12036216   2.592   7.448   2.782  0.0904 -0.0172  0.0109
  129MOL   C12136217   2.724   7.396   2.791  0.4691 -0.6223 -0.2086
  129MOL   H12236218   2.839   7.532   2.505 -0.9465  0.2292 -0.4421
  129MOL   H12336219   2.611   7.609   2.483 -0.8724 -0.4716 -0.4798
  129MOL   H12436220   2.397   7.666   2.597 -1.5321  1.9758  1.9940
  129MOL   H12536221   2.325   7.464   2.812  0.1041 -0.1487  0.6571
  129MOL   H12636222   2.527   7.425   2.865  0.6205  0.4742  0.5634
  129MOL   H12736223   2.757   7.342   2.878 -1.1954 -0.6437  0.4299
  129MOL   C12836224   2.163   7.586   2.716 -0.7622 -0.8698 -0.5462
  129MOL   C12936225   2.134   7.703   2.647 -0.8185 -0.2753 -0.4502
  129MOL   C13036226   1.999   7.742   2.633  0.1190  0.2650  0.7852
  129MOL   C13136227   1.898   7.668   2.688  0.3461  0.6857  0.2800
  129MOL   C13236228   1.753   7.710   2.670  0.2512  0.8050 -0.2953
  129MOL   C13336229   1.650   7.632   2.698  0.2592 -0.2996  0.7078
  129MOL   C13436230   1.925   7.544   2.749  0.4657  0.1606 -0.1639
  129MOL   C13536231   2.057   7.504   2.768  0.0334 -0.6444 -0.2430
  129MOL   H13636232   2.203   7.774   2.602 -1.0573  0.1951 -0.0744
  129MOL   H13736233   1.991   7.834   2.577 -0.6176 -0.5927 -0.5507
  129MOL   H13836234   1.739   7.810   2.632  1.3527  0.1570 -2.5000
  129MOL   H13936235   1.660   7.531   2.736 -1.1170 -0.9052 -0.4801
  129MOL   H14036236   1.852   7.471   2.781 -0.2246  1.7413  1.9633
  129MOL   H14136237   2.087   7.416   2.825 -1.0184 -0.2234  0.9902
  129MOL   C14236238   1.509   7.663   2.667 -0.5218 -0.9608 -0.2830
  129MOL   C14336239   1.455   7.796   2.666  0.2231  0.3361 -0.8115
  129MOL   C14436240   1.316   7.815   2.648  0.1539  0.3398  0.7075
  129MOL   C14536241   1.232   7.703   2.640  0.2498  0.5149  0.3279
  129MOL   C14636242   1.086   7.718   2.616  0.4267 -0.7489  0.4276
  129MOL   C14736243   1.025   7.838   2.626  0.7453  0.2229  0.1494
  129MOL   C14836244   1.286   7.577   2.645  0.5537  0.1984  0.5433
  129MOL   C14936245   1.420   7.552   2.654 -0.0983  0.7104 -0.5804
  129MOL   H15036246   1.515   7.886   2.671  1.0603 -0.2519 -0.0817
  129MOL   H15136247   1.277   7.911   2.620 -0.8411  0.0323  1.0092
  129MOL   H15236248   1.037   7.630   2.578 -0.0439  0.0842 -0.9524
  129MOL   H15336249   1.075   7.928   2.659  1.3041 -0.3465  0.8693
  129MOL   H15436250   1.230   7.485   2.640  0.2443  0.3896  0.4827
  129MOL   H15536251   1.452   7.450   2.664  1.6131  1.4307  1.8517
  129MOL   C15636252   0.881   7.863   2.598 -0.5085  1.0017 -0.5529
  129MOL   C15736253   0.825   7.990   2.620  0.2432  0.5135 -0.4622
  129MOL   C15836254   0.690   8.024   2.587 -0.6148  0.3543 -0.2643
  129MOL   C15936255   0.604   7.916   2.543  0.0714 -0.3255 -0.1094
  129MOL   C16036256   0.461   7.959   2.519 -0.7727  0.3651 -0.1931
  129MOL   C16136257   0.389   8.077   2.534  0.4822  0.3251  0.8572
  129MOL   C16236258   0.661   7.790   2.523  0.3287  0.5371  0.0385
  129MOL   C16336259   0.795   7.761   2.552  1.1281  0.2762  0.6838
  129MOL   H16436260   0.898   8.068   2.640  0.5046 -0.3980  2.2401
  129MOL   H16536261   0.654   8.124   2.605 -1.4458  0.0789 -0.3654
  129MOL   H16636262   0.400   7.876   2.489 -0.7684 -0.2009  1.3261
  129MOL   H16736263   0.438   0.007   2.595  0.2818 -1.0535  2.7602
  129MOL   H16836264   0.592   7.717   2.485  2.1310 -1.1501 -0.0631
  129MOL   H16936265   0.837   7.662   2.541  0.1880 -0.1196  0.5994
  129MOL   C17036266   0.254   8.108   2.497  0.7281  0.3212  0.0569
  129MOL   C17136267   0.193   0.075   2.553 -0.2867 -0.4936 -0.3724
  129MOL   C17236268   0.055   0.115   2.530 -0.0152  0.5985 -0.5075
  129MOL   C17336269   8.118   0.029   2.445 -0.3506 -0.4641  0.0812
  129MOL   C17436270   7.978   0.048   2.409  0.4543  0.0183 -0.2988
  129MOL   C17536271   7.895   0.147   2.448  0.1358 -0.1471 -0.2445
  129MOL   C17636272   0.039   8.057   2.398  0.4840  0.1901  0.3596
  129MOL   C17736273   0.171   8.027   2.420 -0.1541  0.1633 -0.5362
  129MOL   H17836274   0.247   0.131   2.628  2.3599 -2.8892 -0.4154
  129MOL   H17936275   0.004   0.197   2.578  0.3831  0.1379  0.7001
  129MOL   H18036276   7.936   8.119   2.342  1.2338  0.8582 -1.7590
  129MOL   H18136277   7.927   0.220   2.521 -1.5581  2.1798 -1.7738
  129MOL   H18236278   8.123   7.987   2.343  1.0849 -1.4823  1.7971
  129MOL   H18336279   0.213   7.936   2.381 -1.2255 -0.3932 -0.3913
  129MOL   C18436280   7.753   0.164   2.404 -0.5008  0.5498 -0.6367
  129MOL   C18536281   7.699   0.095   2.296  0.6857  0.2607  0.0901
  129MOL   C18636282   7.565   0.118   2.254  0.0841  0.7926  0.6742
  129MOL   C18736283   7.488   0.217   2.315  0.5176  0.0401 -0.0077
  129MOL   C18836284   7.352   0.253   2.273 -0.1878 -0.3870  0.2914
  129MOL   C18936285   7.287   0.208   2.162 -0.1774 -0.0512 -0.1592
  129MOL   C19036286   7.537   0.284   2.428  0.2447  0.2354 -0.1887
  129MOL   C19136287   7.669   0.256   2.468  0.0977  0.0704 -0.0915
  129MOL   H19236288   7.765   0.022   2.251  1.9556  0.9665  0.7596
  129MOL   H19336289   7.526   0.049   2.180 -1.4985  1.9701  0.3828
  129MOL   H19436290   7.291   0.310   2.342  1.4864 -0.2404  1.6784
  129MOL   H19536291   7.356   0.148   2.105  0.8051  0.8929  0.0159
  129MOL   H19636292   7.487   0.369   2.470 -2.1080  0.0024 -2.4190
  129MOL   H19736293   7.707   0.321   2.545  3.1323 -2.1264  0.3767
  129MOL   C19836294   7.157   0.237   2.119  0.4244  0.2350  0.3814
  129MOL   C19936295   7.069   0.333   2.174 -0.4437 -0.6393 -0.1189
  129MOL   C20036296   6.935   0.345   2.129  0.2558 -0.4908  0.1169
  129MOL   C20136297   6.889   0.262   2.028 -0.1681  1.2877 -0.0189
  129MOL   C20236298   6.746   0.255   1.985 -0.5732 -0.2571  0.1737
  129MOL   C20336299   6.644   0.340   1.999 -0.6715 -0.4576 -0.1885
  129MOL   C20436300   6.973   0.166   1.975  0.2925  0.1952 -0.2749
  129MOL   C20536301   7.110   0.147   2.022  0.2388 -0.6344 -0.0427
  129MOL   H20636302   7.107   0.398   2.251 -0.0688  0.0631 -0.8754
  129MOL   H20736303   6.871   0.422   2.168  2.4876  1.7056 -0.3930
  129MOL   H20836304   6.725   0.168   1.926  0.3262 -0.2751 -0.1248
  129MOL   H20936305   6.656   0.431   2.056 -0.4542  0.5604 -1.8542
  129MOL   H21036306   6.945   0.106   1.890  2.5368 -2.6178  0.8845
  129MOL   H21136307   7.174   0.070   1.983 -0.0680 -0.8380 -0.1515
  129MOL   C21236308   6.508   0.334   1.954  0.3785 -1.2579  1.4972
  129MOL   C21336309   6.448   0.221   1.897  0.2168  0.0200  0.0656
  129MOL   C21436310   6.319   0.219   1.835 -0.2860 -0.2429 -0.2198
  129MOL   C21536311   6.242   0.338   1.845  0.1962  0.3896  0.2328
  129MOL   C21636312   6.113   0.352   1.778  0.9376  0.8318 -0.4648
  129MOL   C21736313   6.079   0.274   1.673  0.1127 -0.3262  0.0037
  129MOL   C21836314   6.295   0.450   1.908  0.1845 -0.4334 -0.5449
  129MOL   C21936315   6.430   0.459   1.952 -0.0485 -0.2636  0.2950
  129MOL   H22036316   6.509   0.132   1.895  0.1224 -0.0455  0.1040
  129MOL   H22136317   6.279   0.129   1.791 -0.7599  1.0243 -2.4406
  129MOL   H22236318   6.038   0.420   1.815  1.2415  0.2857  1.1911
  129MOL   H22336319   6.146   0.202   1.627 -2.0452 -1.5546 -1.3427
  129MOL   H22436320   6.231   0.536   1.916  1.7422  0.7788 -0.9776
  129MOL   H22536321   6.471   0.547   1.998 -1.2735 -0.0438  1.0160
  129MOL   C22636322   5.947   0.275   1.606  0.7202 -0.0127 -0.0140
  129MOL   C22736323   5.843   0.359   1.639 -0.5373  0.4937 -0.1229
  129MOL   C22836324   5.724   0.339   1.572  0.0258 -0.4231 -0.9989
  129MOL   C22936325   5.699   0.254   1.465  0.6961  0.6316  0.3180
  129MOL   C23036326   5.562   0.233   1.415  0.6372  0.0178 -0.8927
  129MOL   C23136327   5.517   0.160   1.310  0.4699 -0.1278  0.4387
  129MOL   C23236328   5.803   0.173   1.420  0.1979  0.3520  0.0865
  129MOL   C23336329   5.924   0.185   1.490  0.4856 -0.3246  0.1655
  129MOL   H23436330   5.857   0.427   1.722 -3.1487  1.2493 -0.2282
  129MOL   H23536331   5.638   0.400   1.600 -1.1524 -2.4303 -0.1053
  129MOL   H23636332   5.482   0.286   1.465  0.7597 -1.4048  0.8722
  129MOL   H23736333   5.586   0.100   1.253 -0.5427 -2.0506  1.1913
  129MOL   H23836334   5.791   0.103   1.340  1.3004 -0.3438  0.5106
  129MOL   H23936335   5.999   0.112   1.464  1.7902  0.8767  0.4699
  129MOL   C24036336   5.383   0.159   1.247  0.1401  0.7484 -0.2637
  129MOL   C24136337   5.346   0.046   1.165 -0.0584 -0.0208 -0.1733
  129MOL   C24236338   5.226   0.048   1.097  0.2600 -0.3366  0.2508
  129MOL   C24336339   5.133   0.145   1.115  0.4107 -0.2050  0.0431
  129MOL   C24436340   5.000   0.126   1.049  0.2547  0.5422 -0.8892
  129MOL   C24536341   4.893   0.212   1.050 -0.1315  0.6334  0.2046
  129MOL   C24636342   5.152   0.259   1.204 -0.1239 -0.5797  0.3608
  129MOL   C24736343   5.282   0.258   1.270  0.5780  0.5184 -0.3559
  129MOL   H24836344   5.410   8.104   1.159  0.0870  0.0380  0.4880
  129MOL   H24936345   5.193   8.102   1.048 -0.7105  0.0351  0.2192
  129MOL   H25036346   4.985   0.036   0.991 -0.2470 -0.9398  1.4825
  129MOL   H25136347   4.903   0.303   1.108 -0.4998  1.5498 -1.1635
  129MOL   H25236348   5.078   0.336   1.219 -1.1391 -1.5215  0.2158
  129MOL   H25336349   5.308   0.346   1.327 -0.3160  0.7553 -0.2970
  129MOL   C25436350   4.764   0.193   0.969  0.0056  0.1572 -0.1941
  129MOL   C25536351   4.730   0.070   0.908 -0.3327 -0.2181 -0.1456
  129MOL   C25636352   4.608   0.054   0.835  0.1604 -0.6810  0.0375
  129MOL   C25736353   4.520   0.165   0.826  0.0070  0.2278  0.2854
  129MOL   C25836354   4.412   0.158   0.734 -0.1742 -0.3215  0.2236
  129MOL   C25936355   4.403   0.095   0.612  0.1477 -0.0577 -0.1212
  129MOL   C26036356   4.546   0.282   0.894 -0.0435  0.1417 -0.3972
  129MOL   C26136357   4.670   0.300   0.959  0.2463 -0.0561  0.1184
  129MOL   H26236358   4.796   8.129   0.912  1.2795  1.0818  2.0588
  129MOL   H26336359   4.581   8.107   0.783 -0.5402 -0.7326  0.4841
  129MOL   H26436360   4.321   0.209   0.762 -1.0515 -1.6181 -0.1887
  129MOL   H26536361   4.314   0.111   0.552  0.9898 -0.5187 -1.5030
  129MOL   H26636362   4.471   0.358   0.882  0.2918  0.6149  0.4832
  129MOL   H26736363   4.703   0.392   1.006  0.3339  0.0331 -0.1166
  129MOL   C26836364   4.508   0.017   0.548 -0.8200 -0.2989 -0.2630
  129MOL   C26936365   4.471   8.039   0.492  0.4733 -0.3145  0.5395
  129MOL   C27036366   4.574   7.954   0.434  0.3287 -0.5512 -0.4513
  129MOL   C27136367   4.711   7.999   0.423 -0.2969  0.2598 -0.3383
  129MOL   C27236368   4.817   7.912   0.368  0.9488  0.1006 -0.4952
  129MOL   C27336369   4.817   7.776   0.374 -0.3352 -0.6134  0.0887
  129MOL   C27436370   4.744   8.127   0.475 -0.4307  0.5743 -0.3749
  129MOL   C27536371   4.640   0.060   0.532 -0.1394  0.5481  0.1179
  129MOL   H27636372   4.371   7.997   0.498  0.3983 -0.4694 -1.4220
  129MOL   H27736373   4.543   7.858   0.397  3.1088 -1.8445  0.4104
  129MOL   H27836374   4.901   7.964   0.325 -0.0638  0.6301 -1.8558
  129MOL   H27936375   4.737   7.719   0.420  0.3906 -1.2059  0.6382
  129MOL   H28036376   4.846   0.016   0.467 -0.4597  0.5142 -1.0241
  129MOL   H28136377   4.666   0.157   0.572  1.5725  0.2442 -0.2331
  129MOL   H28236378   4.901   7.722   0.333  0.4571  2.1970 -2.1576
  130MOL     C136379   2.328   2.339   6.571 -0.4998  0.1647 -0.0924
  130MOL     C236380   2.260   2.216   6.592  0.3388 -0.0346  0.6043
  130MOL     C336381   2.283   2.115   6.495  0.0368  0.1646  0.2720
  130MOL     C436382   2.373   2.126   6.387 -0.1883 -1.0437  0.0403
  130MOL     C536383   2.387   2.014   6.289 -0.5370  0.3222 -0.6570
  130MOL     C636384   2.299   1.913   6.273 -0.6373 -0.1490 -0.0604
  130MOL     C736385   2.435   2.251   6.373  0.2008  0.3218 -0.8895
  130MOL     C836386   2.409   2.355   6.459 -0.8187  0.0887  0.8236
  130MOL     H936387   2.189   2.201   6.671  1.2536 -0.7539  1.3095
  130MOL    H1036388   2.231   2.020   6.500 -0.3802  0.4488  1.8293
  130MOL    H1136389   2.476   2.014   6.227 -2.3966  1.7042 -3.4504
  130MOL    H1236390   2.209   1.905   6.332  0.2275  1.9692  1.6026
  130MOL    H1336391   2.496   2.271   6.286  0.3518  0.8276 -0.6655
  130MOL    H1436392   2.457   2.451   6.446  0.2339 -0.4932  0.3111
  130MOL    H1536393   2.311   2.421   6.640  0.1147  1.5204 -1.5253
  130MOL    C1636394   2.324   1.792   6.183  0.4989  0.2775  0.2283
  130MOL    C1736395   2.210   1.710   6.153  0.6286 -0.0119  0.0968
  130MOL    C1836396   2.218   1.600   6.063  0.0621 -0.5648  0.1056
  130MOL    C1936397   2.341   1.560   6.008 -0.1616 -0.6046 -1.1995
  130MOL    C2036398   2.356   1.447   5.918  0.4817  0.5742  0.4060
  130MOL    C2136399   2.264   1.368   5.864  0.1595 -0.8256 -0.3061
  130MOL    C2236400   2.455   1.639   6.040 -0.2303 -0.1924 -0.4298
  130MOL    C2336401   2.445   1.754   6.129 -0.1858  0.1588 -0.1235
  130MOL    H2436402   2.122   1.744   6.204  2.8306  2.2104  2.6025
  130MOL    H2536403   2.131   1.540   6.040 -1.1246  1.4969 -0.9736
  130MOL    H2636404   2.461   1.424   5.904  0.9868  3.1364 -0.0999
  130MOL    H2736405   2.166   1.398   5.898  1.4096  3.1977 -0.1027
  130MOL    H2836406   2.554   1.602   6.019 -0.3425  1.4393 -4.1581
  130MOL    H2936407   2.537   1.804   6.154 -0.9150  1.9219 -0.8647
  130MOL    C3036408   2.287   1.258   5.769  0.7529  0.0482 -0.3737
  130MOL    C3136409   2.412   1.243   5.710 -0.5437 -0.1734 -0.3095
  130MOL    C3236410   2.444   1.137   5.628  0.2850 -0.0432 -0.4788
  130MOL    C3336411   2.346   1.036   5.604  0.0330  0.4942 -0.5353
  130MOL    C3436412   2.389   0.935   5.507 -0.3951  0.3927 -0.7196
  130MOL    C3536413   2.320   0.827   5.461 -0.0288  0.3405 -0.8903
  130MOL    C3636414   2.216   1.050   5.666  0.8636 -0.4677  0.2394
  130MOL    C3736415   2.188   1.163   5.745  0.4874  0.2342 -0.6523
  130MOL    H3836416   2.485   1.318   5.738 -0.3653  0.1118 -1.5220
  130MOL    H3936417   2.546   1.113   5.600  0.3795 -0.4168  0.1614
  130MOL    H4036418   2.484   0.955   5.462 -0.1271  1.2447  0.1922
  130MOL    H4136419   2.221   0.805   5.497  1.3956 -1.2767  2.1889
  130MOL    H4236420   2.136   0.984   5.637 -3.2337  4.4861 -0.5057
  130MOL    H4336421   2.091   1.184   5.788  1.3794  3.9333 -0.2951
  130MOL    C4436422   2.364   0.734   5.359  0.3699  0.2747  0.0409
  130MOL    C4536423   2.472   0.769   5.275  0.5763 -0.5839 -0.4729
  130MOL    C4636424   2.516   0.680   5.180 -0.1451 -0.5685 -0.2441
  130MOL    C4736425   2.461   0.549   5.162  0.0334 -0.3601  0.5973
  130MOL    C4836426   2.514   0.456   5.061  0.1776 -0.0593  0.6952
  130MOL    C4936427   2.556   0.499   4.939 -0.0331  0.0796 -0.0184
  130MOL    C5036428   2.351   0.514   5.245  0.1230 -0.5308  0.0676
  130MOL    C5136429   2.311   0.603   5.344 -0.7122 -1.1337 -0.0747
  130MOL    H5236430   2.516   0.868   5.283  1.9727 -1.3509  1.7424
  130MOL    H5336431   2.590   0.726   5.117 -0.1223  1.0820  0.9595
  130MOL    H5436432   2.513   0.351   5.084 -2.4113 -0.3213 -0.5063
  130MOL    H5536433   2.536   0.599   4.902  1.6637 -0.4778 -2.5614
  130MOL    H5636434   2.296   0.421   5.248  0.5619 -0.7638  1.0804
  130MOL    H5736435   2.219   0.597   5.401  1.2372 -1.9476  3.0559
  130MOL    C5836436   2.642   0.417   4.837 -0.2560  0.0323  0.2133
  130MOL    C5936437   2.678   0.281   4.863  0.0509  0.1630 -0.3358
  130MOL    C6036438   2.784   0.221   4.788  0.2118  0.3347 -0.1778
  130MOL    C6136439   2.841   0.293   4.681  0.6987 -0.4086  0.3103
  130MOL    C6236440   2.960   0.239   4.615 -0.1486 -0.5515  0.1399
  130MOL    C6336441   3.073   0.299   4.573 -0.6141  0.6634  0.5074
  130MOL    C6436442   2.797   0.427   4.653 -0.1688 -0.7961 -0.7549
  130MOL    C6536443   2.701   0.496   4.734  0.1244  0.2714 -0.1380
  130MOL    H6636444   2.629   0.224   4.940 -1.3159  0.5836 -0.8740
  130MOL    H6736445   2.816   0.119   4.802 -0.7953 -0.1956 -1.5522
  130MOL    H6836446   2.952   0.132   4.603  1.2747 -0.8070  1.3209
  130MOL    H6936447   3.083   0.406   4.587  1.9243  0.3798  1.1207
  130MOL    H7036448   2.848   0.480   4.573 -1.5537 -1.3319 -2.0120
  130MOL    H7136449   2.675   0.600   4.724  0.2990  0.3681  0.3786
  130MOL    C7236450   3.188   0.228   4.511  0.1273 -0.5702  0.0227
  130MOL    C7336451   3.180   0.091   4.464  0.7893 -0.5427  0.3065
  130MOL    C7436452   3.290   0.043   4.391  0.0140 -0.5838 -0.6009
  130MOL    C7536453   3.403   0.121   4.364  0.8294  0.2385  0.3774
  130MOL    C7636454   3.506   0.055   4.291  0.9472 -0.0321 -0.0720
  130MOL    C7736455   3.613   0.116   4.236  0.1570  0.5782 -0.4568
  130MOL    C7836456   3.414   0.248   4.418  0.5083 -0.3136 -0.3202
  130MOL    C7936457   3.308   0.299   4.496 -0.4510 -0.1233 -0.2675
  130MOL    H8036458   3.096   0.025   4.480 -0.9850  1.0877 -1.9791
  130MOL    H8136459   3.296   8.083   4.364 -0.1312 -0.5198 -0.8806
  130MOL    H8236460   3.501   8.091   4.295 -2.7540  0.1375  2.9206
  130MOL    H8336461   3.628   0.222   4.242  2.9454  0.3384 -1.9457
  130MOL    H8436462   3.507   0.301   4.407  1.1078 -1.5459 -1.2923
  130MOL    H8536463   3.323   0.398   4.537  1.2406 -0.6704  0.5000
  130MOL    C8636464   3.732   0.045   4.175 -0.1341  0.3578  0.5674
  130MOL    C8736465   3.715   8.050   4.135 -1.0076  0.5037  0.5597
  130MOL    C8836466   3.837   7.987   4.093 -0.3174 -0.0017  0.0048
  130MOL    C8936467   3.964   8.045   4.096 -0.6976  0.4456 -0.1877
  130MOL    C9036468   4.085   7.967   4.083 -0.3900  0.4761  0.4278
  130MOL    C9136469   4.096   7.831   4.092 -0.2748  0.1847  0.0342
  130MOL    C9236470   3.975   0.037   4.134 -0.2366 -0.7418 -0.2709
  130MOL    C9336471   3.860   0.107   4.176  0.5172  0.5525 -0.6785
  130MOL    H9436472   3.621   7.999   4.130  1.1240 -3.4255 -1.5434
  130MOL    H9536473   3.824   7.887   4.054  2.4456 -0.0526 -0.9136
  130MOL    H9636474   4.178   8.019   4.066  0.4895 -1.1997 -0.1081
  130MOL    H9736475   4.012   7.770   4.122 -0.0765 -1.2365 -2.1954
  130MOL    H9836476   4.070   0.087   4.126 -0.8263  0.3524 -0.5053
  130MOL    H9936477   3.881   0.210   4.202 -1.4835  0.8738 -0.3005
  130MOL   C10036478   4.216   7.747   4.065 -0.5301  0.3335  0.2498
  130MOL   C10136479   4.205   7.627   3.986  0.1478  0.0411 -0.2914
  130MOL   C10236480   4.318   7.545   3.967  0.0338  0.0868  0.7677
  130MOL   C10336481   4.440   7.567   4.037  0.1258 -0.0112  0.0052
  130MOL   C10436482   4.553   7.469   4.029  0.3493  0.2530 -0.4050
  130MOL   C10536483   4.642   7.440   4.124 -0.0318 -0.3691 -0.4697
  130MOL   C10636484   4.445   7.682   4.124  1.1871  0.0749 -0.5361
  130MOL   C10736485   4.338   7.773   4.123  0.3307  0.2120  0.4280
  130MOL   H10836486   4.109   7.617   3.938 -0.3361  1.1660  0.4154
  130MOL   H10936487   4.306   7.464   3.897  2.0883 -0.7807  1.3939
  130MOL   H11036488   4.563   7.411   3.938  3.3004 -0.5569  0.3991
  130MOL   H11136489   4.644   7.500   4.214  0.3708  0.9649 -1.3575
  130MOL   H11236490   4.530   7.695   4.190 -0.4640  1.0572  1.4067
  130MOL   H11336491   4.337   7.866   4.180 -1.7708  0.2773  0.3231
  130MOL   C11436492   4.753   7.348   4.113  0.0643 -0.2754  0.3095
  130MOL   C11536493   4.785   7.281   3.992 -0.0713 -0.2567 -0.6251
  130MOL   C11636494   4.891   7.185   3.995 -0.3055 -0.4940  0.3785
  130MOL   C11736495   4.958   7.158   4.121 -0.0443  0.5859 -0.3866
  130MOL   C11836496   5.059   7.049   4.138  0.5234 -0.0414 -0.5330
  130MOL   C11936497   5.128   7.003   4.032 -0.4562 -0.4062 -0.1337
  130MOL   C12036498   4.924   7.230   4.235  0.4112  0.4216 -0.8720
  130MOL   C12136499   4.819   7.318   4.231 -0.0742 -0.6506 -0.2286
  130MOL   H12236500   4.735   7.304   3.899 -2.0831 -0.8312  0.2831
  130MOL   H12336501   4.913   7.139   3.900 -0.5919  1.6094 -0.7330
  130MOL   H12436502   5.062   6.995   4.231 -0.4202  0.0071 -0.4672
  130MOL   H12536503   5.113   7.051   3.937 -0.2520 -0.3243 -0.1244
  130MOL   H12636504   4.959   7.216   4.337 -2.6597 -0.1439  0.1527
  130MOL   H12736505   4.787   7.369   4.321 -0.2427 -0.5665 -0.3378
  130MOL   C12836506   5.230   6.895   4.041  0.4969 -0.2664 -0.2319
  130MOL   C12936507   5.287   6.849   4.164 -0.7101  0.0170  0.5850
  130MOL   C13036508   5.394   6.754   4.159 -0.3122 -0.1148 -0.2642
  130MOL   C13136509   5.446   6.702   4.035  0.4209  0.2783 -1.0268
  130MOL   C13236510   5.551   6.596   4.021  0.2425  0.4179 -0.4167
  130MOL   C13336511   5.607   6.542   4.127 -1.0055  0.2061  0.3156
  130MOL   C13436512   5.379   6.746   3.917 -0.6162  0.1420  0.2120
  130MOL   C13536513   5.277   6.839   3.917 -0.6441  0.1952  0.4074
  130MOL   H13636514   5.258   6.902   4.254 -1.4417  1.7460 -0.6579
  130MOL   H13736515   5.443   6.734   4.253  1.2224  3.8313 -0.1391
  130MOL   H13836516   5.584   6.569   3.922 -1.7544 -2.2038 -0.4409
  130MOL   H13936517   5.570   6.573   4.223 -0.5330 -2.4348  1.3871
  130MOL   H14036518   5.423   6.708   3.825  0.3343 -0.1470  0.7737
  130MOL   H14136519   5.228   6.868   3.825 -0.7181 -0.6725  0.1715
  130MOL   C14236520   5.721   6.445   4.130  0.0291  0.1723  0.4031
  130MOL   C14336521   5.759   6.385   4.248  0.2525  0.6143 -0.9677
  130MOL   C14436522   5.871   6.297   4.250 -0.1502  0.4445  0.1976
  130MOL   C14536523   5.963   6.282   4.148 -0.0261  0.3325 -0.2207
  130MOL   C14636524   6.080   6.199   4.156 -0.3915  0.3399  0.3259
  130MOL   C14736525   6.185   6.213   4.069  0.4298  0.0641  0.8375
  130MOL   C14836526   5.924   6.344   4.025  0.0349 -0.6455  0.8156
  130MOL   C14936527   5.804   6.420   4.019 -0.1341 -0.2444 -0.0366
  130MOL   H15036528   5.692   6.397   4.332 -1.3463 -0.5829 -2.0343
  130MOL   H15136529   5.894   6.235   4.335 -0.0012 -1.6645 -1.3447
  130MOL   H15236530   6.080   6.121   4.230  0.3901 -2.5544 -2.5923
  130MOL   H15336531   6.185   6.286   3.990 -0.1435  0.4158  1.1612
  130MOL   H15436532   5.989   6.343   3.940  0.9302  0.5013  1.4761
  130MOL   H15536533   5.783   6.459   3.920  3.5827  0.1754 -0.7185
  130MOL   C15636534   6.309   6.126   4.073 -0.8936  0.8408  0.4664
  130MOL   C15736535   6.327   6.028   4.179 -0.0629 -0.1285  0.3814
  130MOL   C15836536   6.451   5.956   4.180  0.2818  0.3796  0.3553
  130MOL   C15936537   6.554   5.977   4.084  0.0998 -0.4325 -0.3384
  130MOL   C16036538   6.681   5.902   4.093  0.3115 -0.5418 -0.6499
  130MOL   C16136539   6.741   5.854   4.204  0.2159 -0.7645 -0.4304
  130MOL   C16236540   6.534   6.068   3.986  0.8585  0.1633  0.3509
  130MOL   C16336541   6.416   6.150   3.986  0.2904 -0.2756 -0.5850
  130MOL   H16436542   6.252   5.998   4.250 -0.1363 -1.8805 -0.4068
  130MOL   H16536543   6.469   5.894   4.267  2.0381  0.4140  0.0393
  130MOL   H16636544   6.730   5.896   3.997 -1.6124 -0.8130 -1.6408
  130MOL   H16736545   6.693   5.872   4.299  0.6542  0.7086 -0.4726
  130MOL   H16836546   6.617   6.093   3.922  0.4023  2.3783  0.5755
  130MOL   H16936547   6.411   6.234   3.918 -1.0198 -0.5174 -0.7895
  130MOL   C17036548   6.877   5.790   4.206  0.9985 -0.2632  1.0344
  130MOL   C17136549   6.922   5.780   4.339 -0.5471 -0.0596 -0.1273
  130MOL   C17236550   7.057   5.744   4.365 -0.5567  0.6956 -0.8446
  130MOL   C17336551   7.146   5.719   4.254  0.0833  0.0525 -0.7640
  130MOL   C17436552   7.288   5.691   4.268  0.1338  0.3388  0.0466
  130MOL   C17536553   7.345   5.670   4.386 -0.6063 -0.6651 -0.1516
  130MOL   C17636554   7.092   5.729   4.126 -0.5399  1.1801  0.7808
  130MOL   C17736555   6.959   5.765   4.096  0.1272 -0.1711 -0.4455
  130MOL   H17836556   6.859   5.804   4.423  0.4367 -0.6596  0.8032
  130MOL   H17936557   7.095   5.740   4.467  2.7322  0.1793 -2.0113
  130MOL   H18036558   7.338   5.685   4.173 -0.1220 -0.0574 -0.0657
  130MOL   H18136559   7.291   5.673   4.479  0.0415 -1.7018  0.2695
  130MOL   H18236560   7.155   5.709   4.040  0.6098 -0.8297  2.0522
  130MOL   H18336561   6.945   5.786   3.991 -0.8659  2.2469  0.1258
  130MOL   C18436562   7.485   5.645   4.403  0.2268  0.6468 -0.6053
  130MOL   C18536563   7.527   5.615   4.535 -0.4252  0.3343  0.2983
  130MOL   C18636564   7.666   5.604   4.569  0.6147 -0.0857 -0.1166
  130MOL   C18736565   7.763   5.599   4.463 -0.1011 -0.2439 -0.4824
  130MOL   C18836566   7.909   5.583   4.480  0.1836 -0.0823 -0.1702
  130MOL   C18936567   7.987   5.544   4.375 -0.6937  0.0872  0.2730
  130MOL   C19036568   7.714   5.612   4.330  0.5166 -0.0648 -0.4485
  130MOL   C19136569   7.581   5.639   4.303 -0.7543 -0.4789 -0.2488
  130MOL   H19236570   7.460   5.615   4.620  1.1573  1.6967  1.5661
  130MOL   H19336571   7.698   5.596   4.672 -0.6473  0.0878  0.2877
  130MOL   H19436572   7.939   5.602   4.582 -0.6489  0.3168 -0.0006
  130MOL   H19536573   7.957   5.514   4.276  1.1732 -1.1613  0.0738
  130MOL   H19636574   7.771   5.605   4.238 -0.4741 -1.8338 -0.9386
  130MOL   H19736575   7.551   5.656   4.201  1.4905 -1.7893 -1.1672
  130MOL   C19836576   8.133   5.540   4.387 -0.5495  1.1682 -0.0445
  130MOL   C19936577   0.062   5.529   4.267  0.6433 -0.1175  0.1588
  130MOL   C20036578   0.200   5.550   4.261 -0.1416  0.3862  0.0708
  130MOL   C20136579   0.277   5.570   4.384  0.1933  0.2289  0.3831
  130MOL   C20236580   0.423   5.584   4.391 -0.4422  0.3945 -0.5263
  130MOL   C20336581   0.506   5.624   4.491  0.0054  0.4430 -0.0661
  130MOL   C20436582   0.198   5.563   4.505 -0.3916 -0.3655 -0.3629
  130MOL   C20536583   0.059   5.557   4.510 -0.1265  0.0698  0.1528
  130MOL   H20636584   0.015   5.537   4.170  0.7042 -1.6910 -0.0153
  130MOL   H20736585   0.254   5.564   4.168 -0.3060 -1.6934 -0.3577
  130MOL   H20836586   0.477   5.547   4.305  1.0224  1.2899  0.0009
  130MOL   H20936587   0.462   5.661   4.582  0.5763  0.5443  0.1755
  130MOL   H21036588   0.252   5.565   4.599  1.0230  1.0464 -1.1781
  130MOL   H21136589   0.008   5.557   4.605 -0.1037  1.9256  0.1838
  130MOL   C21236590   0.653   5.624   4.502 -0.9028  0.1998  0.1187
  130MOL   C21336591   0.741   5.596   4.393  0.2689 -0.3810  0.2886
  130MOL   C21436592   0.883   5.584   4.415  0.5571  0.0772 -0.3030
  130MOL   C21536593   0.935   5.613   4.546  0.3922  0.2773  0.2118
  130MOL   C21636594   1.071   5.586   4.580  0.2955 -0.1486 -0.5851
  130MOL   C21736595   1.126   5.604   4.707 -0.2891 -0.4179  0.0700
  130MOL   C21836596   0.842   5.661   4.644 -0.0718  0.3725 -0.0011
  130MOL   C21936597   0.707   5.677   4.621  0.4426  0.2108 -0.3362
  130MOL   H22036598   0.693   5.574   4.298  0.5655  1.5215 -0.3183
  130MOL   H22136599   0.943   5.561   4.329 -0.5149  2.0860 -1.6167
  130MOL   H22236600   1.127   5.545   4.497  0.9088 -0.7186  0.1013
  130MOL   H22336601   1.057   5.635   4.784 -1.6250 -1.5464 -0.6560
  130MOL   H22436602   0.868   5.673   4.748 -0.7544 -1.9252  0.4689
  130MOL   H22536603   0.648   5.706   4.707 -0.3140 -0.7991 -0.5068
  130MOL   C22636604   1.256   5.560   4.762 -0.2367  0.1490  0.3811
  130MOL   C22736605   1.278   5.552   4.896  0.0429 -0.6607  0.0863
  130MOL   C22836606   1.400   5.502   4.952 -0.1871 -0.5047  0.1838
  130MOL   C22936607   1.489   5.429   4.858 -0.7095  0.2353 -0.2447
  130MOL   C23036608   1.606   5.349   4.913  0.2438 -0.4640 -0.0678
  130MOL   C23136609   1.661   5.368   5.034 -0.4850 -0.2106 -0.1885
  130MOL   C23236610   1.467   5.449   4.718  0.2479 -0.0516 -0.0560
  130MOL   C23336611   1.353   5.511   4.671 -0.3104  0.1068  0.0493
  130MOL   H23436612   1.205   5.599   4.960 -1.3439 -0.6396 -1.4915
  130MOL   H23536613   1.425   5.505   5.057  4.2532 -1.1964 -0.7682
  130MOL   H23636614   1.637   5.278   4.839 -1.8961 -0.3234 -1.1368
  130MOL   H23736615   1.631   5.451   5.096 -1.2371 -1.5082  1.2133
  130MOL   H23836616   1.523   5.392   4.646  0.5043  0.4386 -0.2442
  130MOL   H23936617   1.321   5.515   4.568  1.0858  0.1127 -0.3912
  130MOL   C24036618   1.757   5.274   5.090  0.0557  0.2971  0.1698
  130MOL   C24136619   1.782   5.153   5.023  0.5454 -0.1309 -0.2726
  130MOL   C24236620   1.862   5.056   5.081 -0.1600 -0.9579  0.7016
  130MOL   C24336621   1.916   5.075   5.212 -0.0481  0.2873 -0.3344
  130MOL   C24436622   1.982   4.962   5.271 -0.8173  0.1316 -0.1229
  130MOL   C24536623   2.052   4.946   5.384 -0.1588 -0.0745 -0.0391
  130MOL   C24636624   1.883   5.192   5.284 -0.3426  0.2752  0.0399
  130MOL   C24736625   1.812   5.290   5.220  0.4465 -0.2619 -0.1459
  130MOL   H24836626   1.730   5.121   4.933 -1.8323 -4.5140  2.4478
  130MOL   H24936627   1.884   4.964   5.029  1.2125  1.0124 -2.3413
  130MOL   H25036628   1.980   4.876   5.206  0.6370  0.4666 -0.6410
  130MOL   H25136629   2.069   5.024   5.457  1.7110 -0.3782 -0.1247
  130MOL   H25236630   1.928   5.204   5.382  0.0806  3.3036 -0.4863
  130MOL   H25336631   1.798   5.380   5.278  0.7007  0.1764 -0.7645
  130MOL   C25436632   2.118   4.818   5.432 -0.4009  0.3468 -0.6827
  130MOL   C25536633   2.120   4.701   5.355 -0.1323  0.1716  0.4631
  130MOL   C25636634   2.174   4.574   5.394  0.9784 -0.3878 -0.5629
  130MOL   C25736635   2.218   4.560   5.529 -0.5720  0.3187  0.0179
  130MOL   C25836636   2.258   4.437   5.596 -0.3837 -0.1546 -0.1863
  130MOL   C25936637   2.235   4.312   5.554  0.1808  0.1027 -0.5810
  130MOL   C26036638   2.227   4.682   5.610  0.0976 -0.2861  0.1342
  130MOL   C26136639   2.179   4.809   5.562 -0.7484  0.7456 -0.8533
  130MOL   H26236640   2.082   4.701   5.254  2.6223 -4.4556 -0.7275
  130MOL   H26336641   2.174   4.490   5.326  1.1260  0.1340 -1.2198
  130MOL   H26436642   2.319   4.444   5.684  1.1177  0.2172 -1.2348
  130MOL   H26536643   2.282   4.243   5.623  0.5425  1.1410  0.2241
  130MOL   H26636644   2.267   4.678   5.710 -1.5789 -0.3518  0.8275
  130MOL   H26736645   2.176   4.896   5.625 -1.2725 -0.9074  1.4617
  130MOL   C26836646   2.176   4.258   5.434 -0.6746 -0.0539  0.6463
  130MOL   C26936647   2.255   4.216   5.326 -0.4575 -0.2565 -0.1645
  130MOL   C27036648   2.190   4.166   5.213  0.3871 -0.1426 -0.3907
  130MOL   C27136649   2.050   4.155   5.206 -0.3116  1.1646 -0.0838
  130MOL   C27236650   1.992   4.119   5.075  0.3936 -0.5341 -0.3714
  130MOL   C27336651   1.862   4.128   5.044 -0.1259  0.1513 -0.4444
  130MOL   C27436652   1.971   4.198   5.316 -0.1646  0.3457  0.1549
  130MOL   C27536653   2.036   4.254   5.427 -0.4677  0.3914  0.1907
  130MOL   H27636654   2.363   4.214   5.325 -0.2998 -1.4556  5.2620
  130MOL   H27736655   2.249   4.140   5.126 -0.5414  1.7129 -1.5931
  130MOL   H27836656   2.054   4.071   5.001 -0.2222 -2.5888  0.4084
  130MOL   H27936657   1.788   4.167   5.113 -0.2273 -1.4850  0.3856
  130MOL   H28036658   1.864   4.214   5.315 -0.2310 -0.0779 -3.3923
  130MOL   H28136659   1.984   4.294   5.513  0.0696  0.8213  0.3133
  130MOL   H28236660   1.822   4.089   4.952  1.5353 -1.4184 -0.5234
  131MOL     C136661   3.782   0.167   1.607 -0.4078 -0.7120  0.4105
  131MOL     C236662   3.768   0.175   1.748 -0.1954  0.1802 -0.2690
  131MOL     C336663   3.876   0.121   1.826  0.0591  0.2894 -0.6522
  131MOL     C436664   3.999   0.074   1.770 -0.4116 -0.7858  0.3367
  131MOL     C536665   4.100   0.047   1.869 -0.2861 -1.3276  0.6613
  131MOL     C636666   4.193   8.093   1.854 -0.1251  0.3314  0.4337
  131MOL     C736667   4.011   0.070   1.629 -0.5856  0.6474 -0.2093
  131MOL     C836668   3.899   0.119   1.554 -0.1878  0.2144  0.4701
  131MOL     H936669   3.682   0.224   1.792 -0.4309  0.3061 -0.8619
  131MOL    H1036670   3.871   0.127   1.934  1.5733 -0.2347 -0.5477
  131MOL    H1136671   4.113   0.113   1.954  1.9645 -0.5573 -0.2486
  131MOL    H1236672   4.187   8.031   1.765 -0.7579  1.1496 -0.1006
  131MOL    H1336673   4.096   0.016   1.589 -0.2434  0.1081  1.1995
  131MOL    H1436674   3.900   0.104   1.447  0.6653 -2.6713  0.8467
  131MOL    H1536675   3.696   0.199   1.549  0.1429 -0.1113 -0.0707
  131MOL    C1636676   4.308   8.068   1.949 -0.1450 -0.3706  0.3222
  131MOL    C1736677   4.395   7.957   1.930  0.9460 -0.2177  0.0809
  131MOL    C1836678   4.507   7.930   2.013  0.3485  0.0828 -0.1161
  131MOL    C1936679   4.535   8.016   2.121  0.7331  0.9806 -0.5074
  131MOL    C2036680   4.660   7.999   2.202 -0.2598  0.9857 -0.0403
  131MOL    C2136681   4.696   8.056   2.318  0.4388  0.3444  0.4664
  131MOL    C2236682   4.450   8.126   2.141 -0.0065 -0.2554 -0.4866
  131MOL    C2336683   4.339   0.007   2.060  0.7044  0.3883  0.7940
  131MOL    H2436684   4.378   7.889   1.848 -0.3136 -2.9811  2.5408
  131MOL    H2536685   4.572   7.847   1.985  2.1848  0.5456  2.5830
  131MOL    H2636686   4.740   7.937   2.165 -0.2244 -0.1362  1.8616
  131MOL    H2736687   4.626   8.126   2.359  0.0786 -0.5381  1.3854
  131MOL    H2836688   4.466   0.048   2.225 -1.6279  2.0228 -1.9282
  131MOL    H2936689   4.269   0.088   2.072 -0.5799 -0.4054 -0.9974
  131MOL    C3036690   4.824   8.025   2.392 -0.4414 -0.6331  0.0467
  131MOL    C3136691   4.861   8.124   2.482 -0.1346 -0.2786 -0.2481
  131MOL    C3236692   4.985   8.110   2.560  0.4053 -1.1990 -0.1766
  131MOL    C3336693   5.075   8.002   2.527  0.6019 -0.0474 -0.6726
  131MOL    C3436694   5.209   7.977   2.591  0.0505  0.0766 -0.1009
  131MOL    C3536695   5.285   8.078   2.639 -0.7738 -0.2157 -0.0994
  131MOL    C3636696   5.036   7.911   2.422 -0.4272  0.0293  0.3377
  131MOL    C3736697   4.907   7.917   2.362  0.1801  1.5543 -0.2579
  131MOL    H3836698   4.809   0.074   2.488 -0.9835 -0.8329  1.6619
  131MOL    H3936699   5.016   0.043   2.627 -3.5889 -1.1548  1.7531
  131MOL    H4036700   5.238   7.874   2.603 -0.3089  0.3596  3.4539
  131MOL    H4136701   5.253   0.037   2.635  1.0402  0.3792  0.4075
  131MOL    H4236702   5.103   7.829   2.400  0.3999  0.1191  2.3458
  131MOL    H4336703   4.876   7.843   2.290  1.1423  0.5399  0.3501
  131MOL    C4436704   5.421   8.059   2.703 -0.3517  0.1671 -0.6018
  131MOL    C4536705   5.478   0.010   2.787 -0.1743 -0.2650 -0.5316
  131MOL    C4636706   5.600   8.137   2.855  0.2308  0.5228  0.7289
  131MOL    C4736707   5.675   8.021   2.836 -0.4931 -0.2532 -0.4099
  131MOL    C4836708   5.806   8.006   2.895  0.0486  0.7768 -0.3734
  131MOL    C4936709   5.879   8.093   2.965 -0.2889  0.0649 -0.3012
  131MOL    C5036710   5.615   7.922   2.753  0.1269 -0.5047 -0.2468
  131MOL    C5136711   5.495   7.940   2.686 -1.0012 -0.1823 -0.5191
  131MOL    H5236712   5.412   0.094   2.802  1.0681  0.1491  3.0434
  131MOL    H5336713   5.615   0.067   2.932  1.4085 -1.2395  2.2317
  131MOL    H5436714   5.854   7.913   2.867 -0.5428  0.3859 -0.0951
  131MOL    H5536715   5.845   0.049   2.986 -2.3630 -1.0321  1.8298
  131MOL    H5636716   5.662   7.826   2.737 -0.5212 -0.8859  0.1423
  131MOL    H5736717   5.454   7.861   2.624 -1.6477  0.7307 -1.2641
  131MOL    C5836718   6.017   8.074   3.009  0.1923  0.3838  0.7618
  131MOL    C5936719   6.066   0.017   3.100 -0.4071 -0.0151 -0.8659
  131MOL    C6036720   6.192   8.133   3.157 -0.2624 -0.2648 -0.3942
  131MOL    C6136721   6.270   8.027   3.121  0.3299  0.8745  0.3791
  131MOL    C6236722   6.404   8.018   3.181  0.5400 -0.2646  0.2609
  131MOL    C6336723   6.503   7.933   3.149 -0.0671 -1.1492 -0.1123
  131MOL    C6436724   6.220   7.941   3.025  0.1320 -0.3937  0.4738
  131MOL    C6536725   6.092   7.956   2.977 -0.2822  0.2224 -0.4335
  131MOL    H6636726   6.016   0.107   3.132  0.8921  0.3527  0.2078
  131MOL    H6736727   6.240   0.056   3.226  0.9300 -0.5655 -0.9239
  131MOL    H6836728   6.419   8.087   3.263 -2.5915  1.3921 -0.4920
  131MOL    H6936729   6.485   7.858   3.073  1.6114 -0.7710 -0.9075
  131MOL    H7036730   6.280   7.857   2.994 -0.3588 -0.5432 -0.0839
  131MOL    H7136731   6.050   7.873   2.922  1.0169 -0.2180 -0.7709
  131MOL    C7236732   6.638   7.924   3.209 -0.6897 -0.0360 -0.3440
  131MOL    C7336733   6.680   8.003   3.319 -0.6379  0.1091  0.2209
  131MOL    C7436734   6.801   7.985   3.382  0.3200  0.5765 -0.0344
  131MOL    C7536735   6.897   7.894   3.330 -0.3441  0.2163 -1.2740
  131MOL    C7636736   7.025   7.879   3.402  0.2471 -0.1317 -0.4756
  131MOL    C7736737   7.120   7.791   3.377 -0.2169 -0.5687 -0.0019
  131MOL    C7836738   6.868   7.824   3.212  1.0936 -0.6459 -0.5071
  131MOL    C7936739   6.738   7.834   3.154  0.0161 -0.3623 -0.0947
  131MOL    H8036740   6.619   8.085   3.354  1.4709  1.9127 -0.1792
  131MOL    H8136741   6.834   8.051   3.461  0.8016  0.5267 -0.1910
  131MOL    H8236742   7.046   7.940   3.488  1.3016 -0.0948 -0.7541
  131MOL    H8336743   7.100   7.711   3.307 -2.7297 -0.7965  0.9218
  131MOL    H8436744   6.939   7.756   3.166 -0.9690 -2.5025 -1.0170
  131MOL    H8536745   6.717   7.777   3.065  1.2174 -1.6348  0.4377
  131MOL    C8636746   7.250   7.780   3.441 -0.3717  0.4566  0.2280
  131MOL    C8736747   7.296   7.856   3.554 -0.0066 -0.5719  0.1600
  131MOL    C8836748   7.434   7.837   3.601  0.5427  0.5587 -0.2253
  131MOL    C8936749   7.524   7.740   3.540  1.1307  0.4755  0.3375
  131MOL    C9036750   7.659   7.732   3.594  1.0263  0.0765  0.6542
  131MOL    C9136751   7.744   7.633   3.567  1.1413 -0.0067 -0.7759
  131MOL    C9236752   7.473   7.668   3.428  0.2278 -0.0019 -0.1535
  131MOL    C9336753   7.338   7.686   3.383 -0.1712 -0.5037 -0.5233
  131MOL    H9436754   7.231   7.934   3.592  1.6565 -0.0055  1.9085
  131MOL    H9536755   7.459   7.898   3.687  2.5610 -0.2187 -0.2322
  131MOL    H9636756   7.692   7.814   3.656  1.0183 -0.5677  1.5263
  131MOL    H9736757   7.710   7.549   3.509  1.0854 -0.9134  0.5445
  131MOL    H9836758   7.537   7.606   3.367  1.4400  1.0090  0.0965
  131MOL    H9936759   7.312   7.635   3.291 -1.9294  0.5422 -0.6374
  131MOL   C10036760   7.885   7.627   3.619  1.1737  0.0023  0.6026
  131MOL   C10136761   7.969   7.521   3.573  0.1436  0.1766  0.4044
  131MOL   C10236762   8.104   7.523   3.611  0.5191 -1.1468  0.8692
  131MOL   C10336763   0.018   7.622   3.701  0.3098  0.1895 -0.3701
  131MOL   C10436764   0.160   7.613   3.739 -0.0075  0.6991 -0.1453
  131MOL   C10536765   0.239   7.713   3.790  0.6601  0.3153 -0.3362
  131MOL   C10636766   8.078   7.730   3.747  0.5060  0.2504 -0.6384
  131MOL   C10736767   7.943   7.729   3.701  0.2146  0.0709  0.1744
  131MOL   H10836768   7.931   7.446   3.506 -0.6167  1.0434 -0.1527
  131MOL   H10936769   0.022   7.445   3.569 -0.5423 -2.5606  1.8841
  131MOL   H11036770   0.208   7.522   3.708 -1.6016 -0.7273  1.3932
  131MOL   H11136771   0.202   7.811   3.816  0.1364 -0.0157  0.1722
  131MOL   H11236772   8.115   7.813   3.804  0.1306  0.2773 -0.4358
  131MOL   H11336773   7.879   7.812   3.727 -0.2107 -0.1620 -0.1052
  131MOL   C11436774   0.377   7.707   3.829 -0.8130 -0.0576 -0.3555
  131MOL   C11536775   0.433   7.582   3.869 -1.4265  0.4796 -0.0450
  131MOL   C11636776   0.567   7.574   3.909 -0.8055  0.7766 -0.4084
  131MOL   C11736777   0.648   7.692   3.894  0.0680 -0.2209  0.2661
  131MOL   C11836778   0.779   7.682   3.955 -0.3614  0.4472 -0.5703
  131MOL   C11936779   0.887   7.758   3.929  0.2099 -0.5142  0.2166
  131MOL   C12036780   0.593   7.811   3.844 -0.0393 -0.0853 -0.3902
  131MOL   C12136781   0.462   7.820   3.807  0.5131  0.0424 -0.2364
  131MOL   H12236782   0.373   7.493   3.883 -1.4136  0.7505  1.9701
  131MOL   H12336783   0.606   7.484   3.956 -1.9742  0.4112 -0.1193
  131MOL   H12436784   0.788   7.604   4.029 -3.0371  1.3030  0.7106
  131MOL   H12536785   0.881   7.840   3.859  0.9262  1.4778  2.4803
  131MOL   H12636786   0.642   7.907   3.843  0.3579 -0.2649  0.9492
  131MOL   H12736787   0.419   7.913   3.773 -0.0694 -0.1429 -0.0064
  131MOL   C12836788   1.013   7.740   3.993  0.1132 -0.1098 -0.1707
  131MOL   C12936789   1.020   7.723   4.130  0.5365 -0.0438  0.1337
  131MOL   C13036790   1.138   7.677   4.189  0.5794 -0.6426  0.2652
  131MOL   C13136791   1.255   7.659   4.113  0.4561 -0.2238  0.1853
  131MOL   C13236792   1.379   7.618   4.177  0.6623  1.2026 -0.8869
  131MOL   C13336793   1.504   7.599   4.126  0.3127 -0.4070 -0.7638
  131MOL   C13436794   1.251   7.690   3.975  0.3845 -0.4697  0.8852
  131MOL   C13536795   1.129   7.724   3.916  0.3517 -0.9180  0.9442
  131MOL   H13636796   0.932   7.722   4.193 -0.2575  2.6435 -0.8725
  131MOL   H13736797   1.150   7.645   4.291 -0.2844  2.1680  1.2817
  131MOL   H13836798   1.356   7.588   4.278  1.7534  1.3289 -0.6036
  131MOL   H13936799   1.518   7.635   4.025  1.3857 -0.1818 -0.5429
  131MOL   H14036800   1.337   7.676   3.911  0.0025  0.7776  0.0758
  131MOL   H14136801   1.127   7.724   3.808 -1.0021 -1.4173  0.9557
  131MOL   C14236802   1.622   7.546   4.200 -0.3046  0.5620 -0.0262
  131MOL   C14336803   1.603   7.504   4.331 -0.8785 -0.1624 -0.1737
  131MOL   C14436804   1.708   7.433   4.394 -0.1000 -0.2112 -0.4522
  131MOL   C14536805   1.837   7.425   4.342  0.4106 -0.3688 -0.1371
  131MOL   C14636806   1.946   7.352   4.408 -0.0636 -0.0216 -0.0178
  131MOL   C14736807   2.075   7.369   4.383 -0.5028  0.0122  1.0602
  131MOL   C14836808   1.855   7.476   4.209 -0.5441  0.2295 -0.4770
  131MOL   C14936809   1.748   7.532   4.137  0.1200  0.5469  0.5659
  131MOL   H15036810   1.507   7.509   4.380  0.1617  1.6799  1.7724
  131MOL   H15136811   1.690   7.385   4.489  2.4962 -1.0354 -0.3209
  131MOL   H15236812   1.911   7.282   4.482  0.2358  0.6403  0.7597
  131MOL   H15336813   2.118   7.440   4.313  1.5181 -1.9761  0.2331
  131MOL   H15436814   1.951   7.483   4.161  0.1361 -1.0189  0.6681
  131MOL   H15536815   1.757   7.563   4.034 -1.2600  3.0165  1.1674
  131MOL   C15636816   2.188   7.293   4.445  1.1027  0.3403  0.0308
  131MOL   C15736817   2.173   7.223   4.566 -0.3344 -0.3730  0.2357
  131MOL   C15836818   2.275   7.137   4.614  0.3851 -0.3407 -0.6779
  131MOL   C15936819   2.394   7.119   4.544  0.8003  0.5475 -0.1901
  131MOL   C16036820   2.508   7.035   4.597  0.7457  0.1494 -0.3206
  131MOL   C16136821   2.623   7.009   4.528  0.0205 -0.2668 -0.9671
  131MOL   C16236822   2.405   7.193   4.421  0.2861  0.6623  0.5686
  131MOL   C16336823   2.303   7.271   4.368 -0.1828  0.0411  0.5463
  131MOL   H16436824   2.082   7.234   4.623 -1.2796 -0.0674 -1.2761
  131MOL   H16536825   2.252   7.088   4.708 -2.6568 -1.2738 -1.8780
  131MOL   H16636826   2.495   7.000   4.698  1.7492  2.6414  0.7224
  131MOL   H16736827   2.635   7.052   4.430 -0.1400  0.2426 -0.7649
  131MOL   H16836828   2.483   7.200   4.347 -0.5736 -1.9449 -0.6507
  131MOL   H16936829   2.315   7.305   4.266 -1.8142  0.4124  0.4713
  131MOL   C17036830   2.737   6.928   4.577  0.2303  0.4861 -0.4026
  131MOL   C17136831   2.861   6.934   4.501 -0.2025 -0.1875 -0.5912
  131MOL   C17236832   2.971   6.867   4.545  0.1538 -0.2746  0.1049
  131MOL   C17336833   2.967   6.785   4.664 -0.1581 -0.5324 -0.2377
  131MOL   C17436834   3.080   6.701   4.712  0.7239  0.3838  0.0281
  131MOL   C17536835   3.190   6.677   4.642 -0.1963  0.3905 -0.2972
  131MOL   C17636836   2.841   6.773   4.724 -0.8916  0.4098 -0.2158
  131MOL   C17736837   2.729   6.849   4.692  0.0783 -0.0123  0.0412
  131MOL   H17836838   2.868   6.993   4.410 -1.0106  0.5880 -0.1632
  131MOL   H17936839   3.064   6.874   4.490  0.3090  2.3363  0.6387
  131MOL   H18036840   3.069   6.660   4.811 -0.7748 -1.4665 -0.8623
  131MOL   H18136841   3.198   6.722   4.545  1.7538  1.2009  0.2142
  131MOL   H18236842   2.820   6.718   4.814  0.3784  0.3974  0.0672
  131MOL   H18336843   2.642   6.845   4.755 -0.9881 -2.2665 -1.5207
  131MOL   C18436844   3.305   6.595   4.685  0.5713  0.9775 -0.2181
  131MOL   C18536845   3.438   6.618   4.637  0.0626 -0.9067  0.0643
  131MOL   C18636846   3.547   6.547   4.685 -0.0307  0.4159 -0.5520
  131MOL   C18736847   3.517   6.431   4.758  0.5214 -0.6609 -0.8264
  131MOL   C18836848   3.619   6.333   4.804 -0.4495 -0.3086 -1.0370
  131MOL   C18936849   3.750   6.327   4.765  0.3418 -0.4719 -0.2240
  131MOL   C19036850   3.386   6.399   4.796  0.1036 -0.0420 -0.1679
  131MOL   C19136851   3.276   6.479   4.762 -0.2789 -0.2222 -0.0997
  131MOL   H19236852   3.456   6.700   4.570 -0.2374  0.6137  1.7950
  131MOL   H19336853   3.649   6.571   4.657  0.7976  1.0464  2.7799
  131MOL   H19436854   3.590   6.259   4.878 -1.5387  1.0533 -0.0508
  131MOL   H19536855   3.791   6.399   4.696 -0.2485  0.7315  0.6486
  131MOL   H19636856   3.368   6.313   4.859 -1.9512 -1.3208 -2.4298
  131MOL   H19736857   3.176   6.454   4.792 -0.4194  0.4966  0.0406
  131MOL   C19836858   3.838   6.224   4.820  0.0542 -0.2885  0.1702
  131MOL   C19936859   3.976   6.253   4.835  0.6101 -0.6127  0.1342
  131MOL   C20036860   4.062   6.171   4.911 -0.0021 -0.8107  0.7806
  131MOL   C20136861   4.010   6.050   4.958  0.0762  0.0120 -0.6696
  131MOL   C20236862   4.081   5.963   5.052 -0.4817 -0.3348 -0.8364
  131MOL   C20336863   4.208   5.981   5.093 -0.1543  0.1896 -0.0634
  131MOL   C20436864   3.876   6.022   4.944  0.2230  0.6122  0.1358
  131MOL   C20536865   3.788   6.108   4.879 -0.5391  0.6245  0.3336
  131MOL   H20636866   4.006   6.355   4.812  0.8474 -0.7740 -0.2782
  131MOL   H20736867   4.162   6.206   4.933 -0.0516 -0.9588  1.2433
  131MOL   H20836868   4.030   5.874   5.086  1.4893 -0.4550  2.0341
  131MOL   H20936869   4.269   6.065   5.062  0.0530 -0.0692 -0.3584
  131MOL   H21036870   3.828   5.934   4.983 -0.3810  0.4620 -0.9289
  131MOL   H21136871   3.686   6.077   4.869  0.0556 -2.0396  1.8716
  131MOL   C21236872   4.267   5.890   5.192  0.3086  0.6221  0.0708
  131MOL   C21336873   4.238   5.754   5.193  0.5344  0.1306 -0.1961
  131MOL   C21436874   4.291   5.670   5.290 -0.3597 -0.2610  0.6659
  131MOL   C21536875   4.372   5.717   5.387  0.6137  0.8913  0.1717
  131MOL   C21636876   4.423   5.615   5.484  0.0569 -0.5355 -0.2430
  131MOL   C21736877   4.526   5.633   5.558  0.7829 -0.3811  0.2812
  131MOL   C21836878   4.413   5.854   5.382 -0.1130 -0.0737 -0.1210
  131MOL   C21936879   4.349   5.942   5.297  0.1086 -0.4939 -0.0277
  131MOL   H22036880   4.183   5.703   5.114  1.0015 -0.1572 -0.3379
  131MOL   H22136881   4.263   5.566   5.285  2.7831 -1.0879 -0.9559
  131MOL   H22236882   4.380   5.517   5.495  1.9375 -1.3387  0.1024
  131MOL   H22336883   4.580   5.727   5.557 -1.8814  1.1847 -0.6415
  131MOL   H22436884   4.490   5.894   5.446 -0.1715  1.5319 -1.0251
  131MOL   H22536885   4.385   6.044   5.304 -1.7354  0.0657  1.6102
  131MOL   C22636886   4.583   5.537   5.658 -0.0181 -0.9812 -0.1647
  131MOL   C22736887   4.715   5.552   5.710  0.0479 -1.0729 -0.5745
  131MOL   C22836888   4.764   5.464   5.808  0.2065  0.5476 -0.3846
  131MOL   C22936889   4.682   5.357   5.856 -0.6617 -0.2882  0.0143
  131MOL   C23036890   4.731   5.266   5.967  0.1160  0.0647  0.3679
  131MOL   C23136891   4.655   5.179   6.030 -0.2385  0.1150 -0.2133
  131MOL   C23236892   4.550   5.340   5.798  0.8659 -0.3415 -0.3617
  131MOL   C23336893   4.503   5.431   5.705  0.6205 -0.1214 -0.0570
  131MOL   H23436894   4.765   5.644   5.680 -1.7739 -0.1012 -0.7153
  131MOL   H23536895   4.853   5.487   5.865 -1.8284  1.8173  2.4156
  131MOL   H23636896   4.836   5.267   5.994 -0.1308  1.5877  1.2903
  131MOL   H23736897   4.552   5.162   6.002 -0.2574  1.6571 -1.1299
  131MOL   H23836898   4.492   5.252   5.819 -1.2217  1.0682 -0.0684
  131MOL   H23936899   4.409   5.404   5.658  0.7909 -1.1993  0.2079
  131MOL   C24036900   4.696   5.084   6.135 -0.6380  0.1929 -0.3944
  131MOL   C24136901   4.823   5.081   6.203  0.1308  0.1418  0.1456
  131MOL   C24236902   4.854   4.977   6.288  0.2083 -0.0669  0.3306
  131MOL   C24336903   4.752   4.884   6.322  0.3474 -0.3169  0.3826
  131MOL   C24436904   4.774   4.772   6.407  0.2754  0.1850  0.0434
  131MOL   C24536905   4.884   4.723   6.461 -0.0699  0.5024  0.5402
  131MOL   C24636906   4.624   4.891   6.266 -0.4249 -0.1320  0.2677
  131MOL   C24736907   4.599   4.994   6.173  0.3426  0.5473 -0.4267
  131MOL   H24836908   4.904   5.148   6.176  1.3578 -0.9007  1.1806
  131MOL   H24936909   4.955   4.958   6.320  0.7892  0.6564 -1.0382
  131MOL   H25036910   4.684   4.718   6.428 -0.7137  1.0891 -1.7561
  131MOL   H25136911   4.976   4.773   6.438 -0.9027  0.6681 -2.6386
  131MOL   H25236912   4.546   4.818   6.281 -1.0642  0.6978  0.9986
  131MOL   H25336913   4.505   4.998   6.120 -0.0055  0.3463  0.1608
  131MOL   C25436914   4.890   4.608   6.543  0.0495 -0.2683  0.1465
  131MOL   C25536915   5.013   4.552   6.566  0.1840 -0.5307  0.1130
  131MOL   C25636916   5.026   4.426   6.625 -0.6355  0.4749 -0.0803
  131MOL   C25736917   4.910   4.361   6.674  0.2539 -0.9278  0.1558
  131MOL   C25836918   4.913   4.224   6.724  0.1702 -0.6213 -0.3911
  131MOL   C25936919   4.993   4.117   6.695 -0.1717 -0.0784  0.2474
  131MOL   C26036920   4.783   4.430   6.672 -0.0823 -0.3567 -0.5983
  131MOL   C26136921   4.778   4.550   6.605 -0.2039 -0.1659 -0.3234
  131MOL   H26236922   5.101   4.597   6.523  0.6370 -0.4362  1.1243
  131MOL   H26336923   5.124   4.380   6.628  0.7189  3.2385  0.0167
  131MOL   H26436924   4.851   4.216   6.813  1.2749  2.3755  0.7375
  131MOL   H26536925   4.981   4.028   6.755 -1.1960  0.2004  0.4639
  131MOL   H26636926   4.700   4.383   6.724 -0.1514 -2.0491 -2.1822
  131MOL   H26736927   4.683   4.598   6.594  0.9232  1.8667 -1.5507
  131MOL   C26836928   5.097   4.104   6.594 -0.2027 -0.1117 -0.3064
  131MOL   C26936929   5.072   4.116   6.459 -0.1142 -0.1502 -0.2044
  131MOL   C27036930   5.177   4.112   6.366 -0.2061 -0.5062 -0.0050
  131MOL   C27136931   5.306   4.091   6.401 -0.0391  0.1641 -0.1693
  131MOL   C27236932   5.406   4.095   6.290 -0.1912  0.2676  0.1942
  131MOL   C27336933   5.536   4.073   6.298 -0.1021  0.2726  0.0476
  131MOL   C27436934   5.338   4.086   6.541  0.2206 -0.4034 -0.0325
  131MOL   C27536935   5.230   4.090   6.637  0.2796 -0.0348 -0.3060
  131MOL   H27636936   4.974   4.145   6.423  0.0806  0.7510 -0.0019
  131MOL   H27736937   5.155   4.146   6.266 -2.2002 -0.0638  0.5524
  131MOL   H27836938   5.365   4.127   6.195 -2.8217  1.9956  1.8314
  131MOL   H27936939   5.568   4.054   6.400 -1.3710 -1.5306  0.1374
  131MOL   H28036940   5.437   4.078   6.583 -0.5868  0.9924  2.2409
  131MOL   H28136941   5.256   4.099   6.742 -0.0840 -0.9945 -0.1379
  131MOL   H28236942   5.605   4.078   6.215  1.2709 -2.4760  0.9554
  132MOL     C136943   3.515   4.185   6.367 -0.5805  0.4012  0.1039
  132MOL     C236944   3.488   4.074   6.448  0.7516  0.0778  0.3305
  132MOL     C336945   3.354   4.032   6.470  0.2176  0.3017  0.1162
  132MOL     C436946   3.251   4.096   6.407 -0.0699  0.5047  0.1964
  132MOL     C536947   3.119   4.040   6.407  0.3814 -0.7612  0.2583
  132MOL     C636948   3.077   3.925   6.464  0.1883 -0.5008 -0.4542
  132MOL     C736949   3.279   4.216   6.329 -0.3444  0.4101  0.9708
  132MOL     C836950   3.412   4.250   6.297  0.4019 -0.2308 -0.1440
  132MOL     H936951   3.575   4.021   6.483  0.5528 -0.3216  0.2172
  132MOL    H1036952   3.345   3.939   6.525 -0.3821  0.2104 -0.1353
  132MOL    H1136953   3.049   4.103   6.354  0.2916 -1.0166  0.0751
  132MOL    H1236954   3.142   3.873   6.533 -0.0340  1.5192  1.3516
  132MOL    H1336955   3.200   4.268   6.276  0.3478 -0.0218 -0.5314
  132MOL    H1436956   3.435   4.334   6.232 -0.9001 -0.4266 -0.8746
  132MOL    H1536957   3.617   4.219   6.357  0.1194 -1.1244  1.7949
  132MOL    C1636958   2.944   3.858   6.453  0.3449 -0.2435 -0.0950
  132MOL    C1736959   2.906   3.746   6.530 -0.0080  0.0209 -0.1654
  132MOL    C1836960   2.777   3.699   6.517  0.6358 -0.2185 -0.1962
  132MOL    C1936961   2.682   3.754   6.430 -0.2568  0.3139  0.4005
  132MOL    C2036962   2.541   3.704   6.422 -0.2527 -0.3410  0.7581
  132MOL    C2136963   2.474   3.622   6.508 -0.0931 -0.4199  0.4893
  132MOL    C2236964   2.717   3.867   6.353  0.7824  0.5915 -0.0254
  132MOL    C2336965   2.847   3.916   6.370 -0.4782  0.6274 -0.4302
  132MOL    H2436966   2.968   3.702   6.607  0.7871 -0.5975 -1.1376
  132MOL    H2536967   2.744   3.620   6.583 -2.0325  2.0579  1.2948
  132MOL    H2636968   2.494   3.735   6.330  2.4983  1.8954  0.0026
  132MOL    H2736969   2.526   3.591   6.598  0.2315 -0.1713  0.3869
  132MOL    H2836970   2.646   3.923   6.294  1.3406 -0.2120 -1.4705
  132MOL    H2936971   2.880   3.993   6.303  0.0892 -0.7202 -1.7182
  132MOL    C3036972   2.340   3.566   6.492 -0.5439  0.2210  0.1512
  132MOL    C3136973   2.285   3.489   6.601  0.1433 -0.2392 -0.1105
  132MOL    C3236974   2.161   3.426   6.595  0.3337 -0.4004 -0.3270
  132MOL    C3336975   2.079   3.447   6.486 -0.7344  0.4050 -0.0104
  132MOL    C3436976   1.952   3.382   6.476  0.0625 -0.2468  0.6923
  132MOL    C3536977   1.891   3.300   6.567  0.1097  0.2233  0.8426
  132MOL    C3636978   2.124   3.527   6.382 -0.1406 -0.3451 -0.6467
  132MOL    C3736979   2.248   3.589   6.387  0.5297  0.2180 -0.1800
  132MOL    H3836980   2.342   3.458   6.687  0.6623 -3.9288 -1.6471
  132MOL    H3936981   2.138   3.368   6.683  2.5047 -0.4438  0.2446
  132MOL    H4036982   1.902   3.410   6.385 -0.1299  2.4429  1.5864
  132MOL    H4136983   1.950   3.280   6.656  0.2046  1.2164  1.0138
  132MOL    H4236984   2.063   3.542   6.294  2.6150  0.2687 -2.5107
  132MOL    H4336985   2.284   3.645   6.302  0.0659 -0.0984 -0.5914
  132MOL    C4436986   1.761   3.243   6.563 -0.2425 -0.0581 -0.3928
  132MOL    C4536987   1.696   3.185   6.679 -0.5051 -0.0672 -0.0314
  132MOL    C4636988   1.563   3.145   6.683  0.7270  0.5073  0.3757
  132MOL    C4736989   1.489   3.142   6.565  0.0809  0.4992  0.0310
  132MOL    C4836990   1.354   3.090   6.540  0.9068  0.5161 -0.5383
  132MOL    C4936991   1.292   3.008   6.632  0.0078 -0.1141  1.2732
  132MOL    C5036992   1.551   3.202   6.450  0.5022  0.2027 -0.2741
  132MOL    C5136993   1.681   3.256   6.448 -0.4423  0.4182  0.1840
  132MOL    H5236994   1.748   3.184   6.774  0.3795  0.0889 -0.5105
  132MOL    H5336995   1.530   3.124   6.784  0.5067  0.4648  0.2946
  132MOL    H5436996   1.296   3.115   6.453 -2.7045  0.1827  1.6987
  132MOL    H5536997   1.339   2.993   6.728 -1.1702  0.1096  1.8986
  132MOL    H5636998   1.490   3.222   6.362 -1.5659 -3.1635  0.3152
  132MOL    H5736999   1.722   3.310   6.363  0.9902  0.5206  0.9181
  132MOL    C5837000   1.166   2.946   6.604 -0.2863  0.4803 -0.3879
  132MOL    C5937001   1.105   2.868   6.707 -0.0255  0.3449 -0.4902
  132MOL    C6037002   0.983   2.805   6.688  0.3722 -0.5281  0.1016
  132MOL    C6137003   0.904   2.826   6.575  0.8405 -0.0517 -0.0874
  132MOL    C6237004   0.766   2.775   6.558 -0.0995  0.2182 -0.6838
  132MOL    C6337005   0.699   2.725   6.666  0.3639  0.4450 -0.1111
  132MOL    C6437006   0.953   2.919   6.481  0.1717 -0.1232  0.1319
  132MOL    C6537007   1.082   2.978   6.492  0.3139 -0.3243  0.2743
  132MOL    H6637008   1.162   2.848   6.797  0.4061 -0.5282 -0.9433
  132MOL    H6737009   0.948   2.741   6.767 -0.4563  0.7048  0.7542
  132MOL    H6837010   0.723   2.771   6.459  0.7181 -1.2889 -0.9951
  132MOL    H6937011   0.738   2.738   6.766  0.8033  0.5541 -0.2928
  132MOL    H7037012   0.892   2.942   6.395 -0.5511 -1.3727  0.2997
  132MOL    H7137013   1.111   3.046   6.413 -0.4762 -0.2003  0.0913
  132MOL    C7237014   0.576   2.649   6.656  0.3691 -0.1812 -0.0072
  132MOL    C7337015   0.531   2.588   6.771 -0.2853 -0.0441 -0.4830
  132MOL    C7437016   0.415   2.509   6.767 -0.3791 -0.2963  0.0814
  132MOL    C7537017   0.335   2.503   6.657 -0.8009 -0.3797  0.1466
  132MOL    C7637018   0.214   2.422   6.647 -0.4936 -0.4101  0.1063
  132MOL    C7737019   0.144   2.362   6.743  0.1681  0.3001 -0.5601
  132MOL    C7837020   0.362   2.586   6.545  0.1836 -0.8702  0.1569
  132MOL    C7937021   0.483   2.659   6.546  0.2243 -0.2452  0.1216
  132MOL    H8037022   0.582   2.573   6.865  0.8622 -1.3462 -1.3018
  132MOL    H8137023   0.376   2.457   6.853  1.3710  0.0655  1.1098
  132MOL    H8237024   0.183   2.412   6.545  0.5514 -2.0298 -0.0633
  132MOL    H8337025   0.175   2.360   6.847  0.8741 -2.0801 -0.7926
  132MOL    H8437026   0.306   2.590   6.453 -0.8242  2.7517  0.8739
  132MOL    H8537027   0.509   2.716   6.458 -0.6913  1.3017  0.8224
  132MOL    C8637028   0.021   2.284   6.711  0.4790  0.6817  0.0128
  132MOL    C8737029   8.093   2.223   6.814  0.8769 -0.0936  0.4652
  132MOL    C8837030   7.989   2.138   6.790  0.1417 -0.3869 -0.7048
  132MOL    C8937031   7.950   2.116   6.653 -0.4539  0.5215  0.2215
  132MOL    C9037032   7.839   2.019   6.621  0.3200 -0.0693 -0.9046
  132MOL    C9137033   7.766   1.947   6.714  0.0016 -0.1638  0.2253
  132MOL    C9237034   8.004   2.188   6.551 -0.4567 -0.2530  0.0447
  132MOL    C9337035   8.119   2.264   6.579  0.4682 -0.9766  0.0408
  132MOL    H9437036   8.120   2.229   6.919  0.6511 -1.1114  0.5877
  132MOL    H9537037   7.931   2.096   6.871 -0.0754  0.5685 -0.3551
  132MOL    H9637038   7.814   2.013   6.516  1.7221 -0.0920 -1.2514
  132MOL    H9737039   7.794   1.956   6.818 -1.3471 -2.1987  0.7951
  132MOL    H9837040   7.971   2.179   6.449 -1.1832  0.1024  0.2432
  132MOL    H9937041   0.024   2.312   6.496  0.6664  2.2183  1.9192
  132MOL   C10037042   7.649   1.858   6.688 -0.1635 -0.1226 -0.0881
  132MOL   C10137043   7.563   1.834   6.800  0.7485 -0.4510  0.1362
  132MOL   C10237044   7.437   1.771   6.771 -0.6382  1.5010  1.2321
  132MOL   C10337045   7.414   1.710   6.649 -0.6317  0.1973 -0.1729
  132MOL   C10437046   7.292   1.632   6.629  0.2030  0.5226  0.0322
  132MOL   C10537047   7.263   1.572   6.512 -0.1953  0.6148 -0.2407
  132MOL   C10637048   7.507   1.729   6.544 -0.7550 -0.1708 -0.1169
  132MOL   C10737049   7.623   1.801   6.561 -0.6210 -0.2611  0.2460
  132MOL   H10837050   7.577   1.884   6.894  1.1758  1.7261 -1.0588
  132MOL   H10937051   7.370   1.773   6.856 -2.6826  0.2837 -0.2837
  132MOL   H11037052   7.231   1.628   6.718  1.0995  3.2562  0.8073
  132MOL   H11137053   7.328   1.568   6.426 -1.5989  2.2862 -1.4157
  132MOL   H11237054   7.493   1.693   6.443 -0.8977  0.8296 -0.4605
  132MOL   H11337055   7.691   1.804   6.477  0.0536  2.0533  0.8430
  132MOL   C11437056   7.133   1.515   6.485  0.2861  0.4255 -0.5064
  132MOL   C11537057   7.116   1.468   6.356 -0.0033 -0.3089 -0.4768
  132MOL   C11637058   7.000   1.402   6.320 -0.7144  0.7159  0.3918
  132MOL   C11737059   6.894   1.382   6.421 -1.0411 -0.6024  0.7256
  132MOL   C11837060   6.774   1.300   6.395  0.2169 -0.0841 -0.0874
  132MOL   C11937061   6.744   1.252   6.274  0.7319  0.3850  0.2927
  132MOL   C12037062   6.903   1.443   6.542 -0.1512  0.4337 -0.8975
  132MOL   C12137063   7.023   1.505   6.576  0.1732 -0.2875  0.0565
  132MOL   H12237064   7.195   1.484   6.284  0.3753  1.9984  0.3945
  132MOL   H12337065   6.988   1.363   6.221 -2.1244  0.0537  0.8122
  132MOL   H12437066   6.715   1.276   6.483 -0.7840 -1.8132 -1.2028
  132MOL   H12537067   6.796   1.276   6.183 -0.2317 -0.0094 -0.3737
  132MOL   H12637068   6.823   1.417   6.609  0.7729 -0.6707 -0.1959
  132MOL   H12737069   7.033   1.551   6.673 -1.4706  0.4893 -0.1194
  132MOL   C12837070   6.627   1.158   6.255 -0.6876 -0.0503  0.1783
  132MOL   C12937071   6.517   1.170   6.344 -0.0986  0.0385  0.1017
  132MOL   C13037072   6.404   1.089   6.328 -0.4688 -0.3316 -0.3061
  132MOL   C13137073   6.406   0.993   6.226 -0.9654 -0.1010 -0.1533
  132MOL   C13237074   6.296   0.904   6.189  0.0932  1.2046 -0.4575
  132MOL   C13337075   6.170   0.917   6.236 -0.3256 -0.4658 -0.7445
  132MOL   C13437076   6.513   0.982   6.133  0.0940  0.3559  0.0407
  132MOL   C13537077   6.626   1.061   6.155 -0.5731 -0.1663  0.1937
  132MOL   H13637078   6.513   1.239   6.427  2.4926  1.8342 -1.1724
  132MOL   H13737079   6.316   1.110   6.386  0.0774  2.1472 -0.3151
  132MOL   H13837080   6.321   0.828   6.116 -2.6174 -0.0243 -0.1415
  132MOL   H13937081   6.147   1.004   6.295 -1.0813  0.2684 -2.0903
  132MOL   H14037082   6.514   0.910   6.053 -1.6723 -0.6065  0.8649
  132MOL   H14137083   6.713   1.055   6.091 -0.5966 -1.2043  0.2458
  132MOL   C14237084   6.056   0.827   6.195 -0.0268 -0.3860 -0.0046
  132MOL   C14337085   5.934   0.841   6.259  0.2255 -0.4556 -0.5035
  132MOL   C14437086   5.821   0.759   6.224 -0.2666  0.6202 -0.3474
  132MOL   C14537087   5.840   0.659   6.129  0.2525 -0.2768  0.1524
  132MOL   C14637088   5.734   0.565   6.092  0.3300 -0.4137  0.2977
  132MOL   C14737089   5.602   0.582   6.123  0.1043 -0.1503  0.2820
  132MOL   C14837090   5.964   0.641   6.068  0.1357  0.4466 -0.0961
  132MOL   C14937091   6.076   0.717   6.111 -0.4326 -0.0266  1.5067
  132MOL   H15037092   5.912   0.899   6.347  0.7774 -1.9906  0.6544
  132MOL   H15137093   5.726   0.769   6.275  0.6406 -2.6505  2.1341
  132MOL   H15237094   5.774   0.475   6.048  0.8691 -0.1551  0.2603
  132MOL   H15337095   5.568   0.672   6.171  3.5287  0.8069  1.0838
  132MOL   H15437096   5.980   0.555   6.004 -0.7881 -0.1154  0.4003
  132MOL   H15537097   6.170   0.688   6.068 -0.0692  0.8922  1.6571
  132MOL   C15637098   5.499   0.481   6.096  0.0929  0.0253  0.7298
  132MOL   C15737099   5.531   0.365   6.022  0.4046 -0.2236  0.6607
  132MOL   C15837100   5.430   0.266   6.002 -0.1976  0.1487 -0.4606
  132MOL   C15937101   5.301   0.266   6.056 -0.3229  0.6121 -0.0908
  132MOL   C16037102   5.219   0.147   6.047 -0.3786  0.0546 -0.0591
  132MOL   C16137103   5.096   0.142   6.095 -0.1015  0.3591 -0.1548
  132MOL   C16237104   5.269   0.386   6.117  0.4370  0.9014 -0.0670
  132MOL   C16337105   5.363   0.495   6.134 -0.1058  1.5508 -0.4996
  132MOL   H16437106   5.635   0.350   6.000 -0.0384 -0.7356 -1.1791
  132MOL   H16537107   5.463   0.173   5.959  2.9532  0.4510  1.1425
  132MOL   H16637108   5.259   0.058   6.002 -0.9994 -0.2362 -0.0537
  132MOL   H16737109   5.047   0.229   6.138 -0.6506 -1.3040  2.7136
  132MOL   H16837110   5.168   0.406   6.151  1.0553  4.0587 -0.0004
  132MOL   H16937111   5.338   0.590   6.180  1.1111  1.8344 -0.4186
  132MOL   C17037112   5.020   0.019   6.102  0.8463  0.1467 -0.5074
  132MOL   C17137113   4.880   0.024   6.100  0.4532  0.0976  0.0640
  132MOL   C17237114   4.798   8.057   6.107 -0.4859  0.3610 -0.0114
  132MOL   C17337115   4.855   7.926   6.125 -0.1615  0.0263 -0.3143
  132MOL   C17437116   4.763   7.817   6.153 -0.1001 -0.4073  0.1998
  132MOL   C17537117   4.800   7.705   6.220 -0.2994 -0.0718  0.4779
  132MOL   C17637118   5.000   7.920   6.127  0.4979 -0.2282  0.1669
  132MOL   C17737119   5.078   8.034   6.117 -0.0544 -0.2143  0.2257
  132MOL   H17837120   4.838   0.122   6.083  2.2391  0.9338  0.3375
  132MOL   H17937121   4.691   8.072   6.108 -0.3932  0.9844  1.2213
  132MOL   H18037122   4.658   7.829   6.129  0.3327  0.2734 -1.3450
  132MOL   H18137123   4.902   7.691   6.252 -0.7437 -1.3772  1.3625
  132MOL   H18237124   5.047   7.823   6.141 -0.2492 -0.4920  0.8881
  132MOL   H18337125   5.185   8.018   6.109  0.3094  1.3377  1.7665
  132MOL   C18437126   4.706   7.607   6.273  0.1795  0.3506  0.3075
  132MOL   C18537127   4.566   7.627   6.266 -0.6332 -0.5017 -0.3984
  132MOL   C18637128   4.477   7.527   6.313  0.1215  0.7983  0.1476
  132MOL   C18737129   4.529   7.407   6.368 -0.1363  0.0036  0.1474
  132MOL   C18837130   4.426   7.314   6.414 -0.1116 -0.0072 -0.2290
  132MOL   C18937131   4.444   7.208   6.492 -0.0272  0.0121 -0.0267
  132MOL   C19037132   4.672   7.388   6.374 -0.4957  1.0360  0.4990
  132MOL   C19137133   4.756   7.485   6.314  0.0811  0.6745 -0.2681
  132MOL   H19237134   4.511   7.704   6.214  0.0242 -0.7385 -1.4608
  132MOL   H19337135   4.370   7.544   6.315  0.1625  0.9225  1.5704
  132MOL   H19437136   4.326   7.336   6.379  0.8043  2.3729 -1.4685
  132MOL   H19537137   4.540   7.185   6.536  0.1568 -3.4445 -2.0415
  132MOL   H19637138   4.711   7.297   6.418 -0.9492  0.7006  0.2096
  132MOL   H19737139   4.861   7.460   6.317  0.1357  0.9993  0.6740
  132MOL   C19837140   4.347   7.115   6.543 -0.5375 -0.5469  0.5991
  132MOL   C19937141   4.205   7.128   6.524 -1.0121 -0.6812  0.6332
  132MOL   C20037142   4.122   7.041   6.599 -0.2303 -0.1682 -0.3009
  132MOL   C20137143   4.175   6.930   6.669  0.1679 -0.1556  0.0087
  132MOL   C20237144   4.075   6.830   6.714  0.0936 -0.1975 -0.1792
  132MOL   C20337145   4.110   6.716   6.782  0.0754 -0.6438 -0.0928
  132MOL   C20437146   4.312   6.917   6.688  0.3217  1.0721 -0.2533
  132MOL   C20537147   4.398   7.007   6.621 -0.2975  0.2053  0.2846
  132MOL   H20637148   4.164   7.208   6.466 -1.4647 -0.2886  1.4888
  132MOL   H20737149   4.015   7.056   6.593 -0.0755  1.6890  0.9854
  132MOL   H20837150   3.970   6.855   6.709  0.6181  1.9323 -0.8300
  132MOL   H20937151   4.211   6.692   6.812 -0.0879 -1.1010  0.0933
  132MOL   H21037152   4.347   6.831   6.743 -1.4738  0.0228 -0.6976
  132MOL   H21137153   4.506   7.008   6.632 -0.1325  3.3099 -0.9425
  132MOL   C21237154   4.021   6.609   6.829 -0.5062  1.0042 -0.1421
  132MOL   C21337155   3.885   6.596   6.787 -0.4109 -0.4117  0.2877
  132MOL   C21437156   3.805   6.496   6.845  0.5051  1.0436 -0.4796
  132MOL   C21537157   3.855   6.423   6.958  0.3524 -0.7360 -0.2089
  132MOL   C21637158   3.770   6.328   7.024 -0.2276 -0.3934  0.1773
  132MOL   C21737159   3.813   6.211   7.074 -0.2791 -0.4617  0.4418
  132MOL   C21837160   3.987   6.439   6.994  0.0727 -0.2604 -0.7373
  132MOL   C21937161   4.073   6.528   6.932  0.6295 -0.2711 -0.2850
  132MOL   H22037162   3.837   6.646   6.704  0.3957  0.3622  0.2876
  132MOL   H22137163   3.706   6.470   6.808  1.2656 -0.8545 -1.2615
  132MOL   H22237164   3.664   6.346   7.031  0.2008  1.9121  1.2970
  132MOL   H22337165   3.919   6.190   7.076 -0.3194 -0.8158 -0.8825
  132MOL   H22437166   4.026   6.389   7.082  2.8584 -1.4566 -2.5965
  132MOL   H22537167   4.172   6.535   6.973  1.3059 -0.9091 -1.7811
  132MOL   C22637168   3.728   6.103   7.121 -0.2068  0.0538 -0.1407
  132MOL   C22737169   3.801   5.987   7.164 -0.1540  0.1320  0.0825
  132MOL   C22837170   3.736   5.867   7.207  0.8437  0.1203  0.1359
  132MOL   C22937171   3.595   5.860   7.211  0.6792  0.2433  0.0249
  132MOL   C23037172   3.526   5.732   7.246 -0.4737 -0.4618 -0.0753
  132MOL   C23137173   3.396   5.704   7.245  0.2957 -0.0441 -0.5686
  132MOL   C23237174   3.524   5.976   7.168  0.0806  0.0596 -0.0398
  132MOL   C23337175   3.589   6.099   7.127 -0.0048 -0.4878 -0.1473
  132MOL   H23437176   3.908   5.979   7.166 -0.2257 -0.6607  1.6182
  132MOL   H23537177   3.787   5.781   7.247 -0.8287 -1.1743 -0.4330
  132MOL   H23637178   3.587   5.647   7.271  0.8999  0.3713 -0.5372
  132MOL   H23737179   3.325   5.781   7.219 -0.6846 -0.5810  0.5091
  132MOL   H23837180   3.417   5.982   7.182  0.0472  0.1699 -0.3384
  132MOL   H23937181   3.527   6.186   7.113  1.4322  0.7931  1.2721
  132MOL   C24037182   3.340   5.576   7.273  0.3188 -0.1852 -0.1679
  132MOL   C24137183   3.226   5.532   7.200  0.6009 -0.3928  0.0400
  132MOL   C24237184   3.163   5.408   7.231 -0.0211 -0.0027 -0.4931
  132MOL   C24337185   3.205   5.324   7.334 -0.4629  0.3191 -0.7620
  132MOL   C24437186   3.136   5.200   7.377  0.6747 -0.6350  0.1643
  132MOL   C24537187   3.180   5.099   7.453 -0.3342 -0.2076 -0.7249
  132MOL   C24637188   3.325   5.363   7.400  0.5859 -0.0373 -0.9480
  132MOL   C24737189   3.396   5.476   7.360 -0.4366  0.7598  0.3548
  132MOL   H24837190   3.171   5.591   7.129  2.0807  0.0394 -0.7838
  132MOL   H24937191   3.069   5.393   7.180 -0.9562  2.0375  0.5724
  132MOL   H25037192   3.037   5.195   7.334  1.3895 -0.8987 -1.4853
  132MOL   H25137193   3.279   5.111   7.495 -0.2696 -0.9410 -0.6660
  132MOL   H25237194   3.369   5.305   7.480 -0.2799 -0.0879 -0.5036
  132MOL   H25337195   3.489   5.495   7.412 -1.8254 -0.6293  3.4609
  132MOL   C25437196   3.105   4.977   7.491  0.3807  0.0133 -0.4557
  132MOL   C25537197   2.967   4.962   7.469 -0.5586 -0.5953 -0.5292
  132MOL   C25637198   2.893   4.845   7.518 -0.6871 -0.6965  0.0643
  132MOL   C25737199   2.966   4.744   7.577 -1.2517  0.0371  0.3885
  132MOL   C25837200   2.898   4.614   7.619  0.4601  0.0892  0.3363
  132MOL   C25937201   2.930   4.484   7.610 -0.3200  0.4996 -0.3774
  132MOL   C26037202   3.103   4.758   7.597  0.4398 -0.4822 -0.2340
  132MOL   C26137203   3.172   4.870   7.543  0.4373  0.3612 -0.9238
  132MOL   H26237204   2.910   5.037   7.417 -2.1446 -0.3627  1.4794
  132MOL   H26337205   2.787   4.836   7.501 -0.5754 -1.8803 -0.0333
  132MOL   H26437206   2.809   4.639   7.675  1.1652 -1.4906  2.1919
  132MOL   H26537207   2.857   4.423   7.661 -1.7432  1.5654 -1.1100
  132MOL   H26637208   3.149   4.673   7.646 -1.4342 -0.9556  0.7715
  132MOL   H26737209   3.279   4.878   7.557  0.8759 -0.9301 -3.1911
  132MOL   C26837210   3.041   4.419   7.544  0.0914 -0.2895 -0.3268
  132MOL   C26937211   3.126   4.481   7.452 -0.0391  0.6430  0.3786
  132MOL   C27037212   3.228   4.421   7.378  0.2170 -0.2628 -0.6213
  132MOL   C27137213   3.261   4.287   7.395 -0.2059  0.4253 -0.0630
  132MOL   C27237214   3.370   4.222   7.320 -0.0001  0.5375 -0.2866
  132MOL   C27337215   3.401   4.094   7.321 -0.3672  0.9913 -1.0065
  132MOL   C27437216   3.184   4.220   7.491 -0.3608 -0.1773  0.6585
  132MOL   C27537217   3.076   4.288   7.562 -0.3004 -0.2214 -0.3307
  132MOL   H27637218   3.101   4.584   7.429  0.6221  0.7098 -0.0481
  132MOL   H27737219   3.286   4.469   7.300 -0.1412 -0.4160 -0.9849
  132MOL   H27837220   3.436   4.280   7.256 -1.2025  1.4194 -0.7313
  132MOL   H27937221   3.340   4.024   7.376  2.8414 -1.1038  0.0761
  132MOL   H28037222   3.196   4.114   7.508 -1.4727 -0.3217  0.5752
  132MOL   H28137223   3.017   4.236   7.636  2.3325  0.0352  2.0149
  132MOL   H28237224   3.488   4.049   7.274  0.8308  0.2396  1.8064
  133MOL     C137225   8.099   0.788   6.239 -0.0574  0.6528  0.0215
  133MOL     C237226   0.056   0.872   6.186 -0.0089 -0.0013 -1.2985
  133MOL     C337227   0.141   0.949   6.270 -0.4293 -0.1034 -0.1810
  133MOL     C437228   0.126   0.937   6.411  0.3248 -0.3111  0.0845
  133MOL     C537229   0.204   1.022   6.502 -0.0444 -0.6941  0.0207
  133MOL     C637230   0.290   1.117   6.469  0.4130  0.0857 -0.7138
  133MOL     C737231   0.024   0.856   6.463 -0.2225  0.5007 -0.1296
  133MOL     C837232   8.082   0.789   6.378  0.2231  0.4593  0.4204
  133MOL     H937233   0.071   0.873   6.079  1.7212 -0.7480 -1.0909
  133MOL    H1037234   0.205   1.019   6.216 -0.5146 -0.0394 -0.1990
  133MOL    H1137235   0.186   0.992   6.604 -1.3593  1.9400  0.5933
  133MOL    H1237236   0.311   1.144   6.367  0.2961  1.4385 -0.3960
  133MOL    H1337237   0.023   0.838   6.570 -0.4831  0.7690 -0.0860
  133MOL    H1437238   8.015   0.723   6.432  0.4981 -0.1299  0.0580
  133MOL    H1537239   8.036   0.733   6.171  0.1139  0.7858 -0.2457
  133MOL    C1637240   0.357   1.203   6.573 -0.0583 -0.2586  0.0367
  133MOL    C1737241   0.317   1.211   6.711  0.0710 -0.5841 -0.7112
  133MOL    C1837242   0.382   1.294   6.802 -0.0720  0.7106  0.3840
  133MOL    C1937243   0.499   1.363   6.767 -0.5132 -0.7986  0.1658
  133MOL    C2037244   0.578   1.441   6.864 -0.6210 -0.0423 -0.4806
  133MOL    C2137245   0.557   1.450   7.002  0.4456 -0.4807 -0.1473
  133MOL    C2237246   0.540   1.354   6.634  0.7851 -0.3382  0.2116
  133MOL    C2337247   0.472   1.277   6.540  0.5287 -0.4654 -0.0489
  133MOL    H2437248   0.220   1.168   6.733 -0.5960  0.7196 -1.0791
  133MOL    H2537249   0.365   1.281   6.908  1.0935 -1.4215  0.3243
  133MOL    H2637250   0.663   1.494   6.824  0.4877  0.1139  1.9644
  133MOL    H2737251   0.476   1.387   7.037  0.8668 -1.4974 -0.9700
  133MOL    H2837252   0.631   1.408   6.612  0.7912  0.1865  1.4526
  133MOL    H2937253   0.516   1.264   6.442 -0.4532 -0.5051 -0.4887
  133MOL    C3037254   0.630   1.525   7.107  0.0709  0.4333  0.8363
  133MOL    C3137255   0.743   1.602   7.067  0.2392 -0.2705  0.0837
  133MOL    C3237256   0.814   1.673   7.164 -0.0964  0.3884  0.4264
  133MOL    C3337257   0.789   1.663   7.301 -0.4819 -0.1677 -0.2253
  133MOL    C3437258   0.880   1.714   7.410 -0.5306  0.6453  0.8237
  133MOL    C3537259   0.993   1.783   7.395 -0.1928 -0.4245  0.0658
  133MOL    C3637260   0.679   1.581   7.343 -0.4345  0.7920 -0.0098
  133MOL    C3737261   0.598   1.519   7.245 -0.1199 -0.1012 -0.4056
  133MOL    H3837262   0.777   1.606   6.965  0.5305 -0.9983  0.1513
  133MOL    H3937263   0.899   1.729   7.128 -0.5908  0.0639 -1.3124
  133MOL    H4037264   0.843   1.683   7.506 -0.4969 -1.3390  0.2260
  133MOL    H4137265   1.011   1.794   7.289 -0.8964 -0.7660 -0.0922
  133MOL    H4237266   0.664   1.571   7.449 -2.3444 -0.0327 -0.3193
  133MOL    H4337267   0.509   1.464   7.270 -1.3135  1.8706 -0.2118
  133MOL    C4437268   1.085   1.843   7.499 -0.6113 -0.7482 -0.2437
  133MOL    C4537269   1.073   1.811   7.634  0.3052 -0.1244  0.3479
  133MOL    C4637270   1.168   1.855   7.727 -0.0206 -0.1784  0.0200
  133MOL    C4737271   1.282   1.933   7.694  0.1864 -0.3990  0.4796
  133MOL    C4837272   1.362   1.985   7.804  0.1181  0.0041  0.0839
  133MOL    C4937273   1.451   2.084   7.788  0.1487 -0.4564 -0.7225
  133MOL    C5037274   1.281   1.973   7.557 -0.0477 -0.5052 -0.4782
  133MOL    C5137275   1.197   1.919   7.459  0.6898  0.2096 -0.1881
  133MOL    H5237276   0.984   1.758   7.666 -1.6789  2.0607 -1.3446
  133MOL    H5337277   1.150   1.836   7.832 -0.5583 -2.2957 -0.4380
  133MOL    H5437278   1.344   1.946   7.903 -0.4201 -0.5383 -0.2273
  133MOL    H5537279   1.469   2.123   7.689 -1.1487 -1.1199 -1.2276
  133MOL    H5637280   1.363   2.037   7.528  0.9064  0.3341  3.7246
  133MOL    H5737281   1.213   1.953   7.358 -1.2041 -0.3885 -0.7097
  133MOL    C5837282   1.541   2.145   7.889 -0.7051 -0.1085 -0.5084
  133MOL    C5937283   1.659   2.210   7.856  0.3283  1.2452  0.1409
  133MOL    C6037284   1.742   2.257   7.960  0.3225  0.0996  0.4104
  133MOL    C6137285   1.699   2.250   8.101  0.1911  0.2581  0.2529
  133MOL    C6237286   1.756   2.328   0.069 -0.1399 -0.4890  0.2868
  133MOL    C6337287   1.866   2.412   0.058  0.2086  0.0217  0.2899
  133MOL    C6437288   1.589   2.172   8.129 -0.3228 -0.9368  0.4155
  133MOL    C6537289   1.511   2.116   8.027  0.4623 -0.3586 -0.5033
  133MOL    H6637290   1.677   2.220   7.750  0.4399 -3.4110 -0.3954
  133MOL    H6737291   1.820   2.327   7.934  1.2483 -1.0933 -0.1099
  133MOL    H6837292   1.703   2.314   0.162  0.1651  0.6397  0.6405
  133MOL    H6937293   1.922   2.420   8.110  1.9521 -1.4850  1.1987
  133MOL    H7037294   1.555   2.157   0.086 -1.1566 -2.0267 -0.0184
  133MOL    H7137295   1.424   2.057   8.054  0.4770  1.0717  2.9280
  133MOL    C7237296   1.923   2.491   0.169 -0.8929  0.0348  0.0093
  133MOL    C7337297   2.060   2.534   0.155  0.6404 -0.0748 -0.1380
  133MOL    C7437298   2.115   2.616   0.255  0.4258  0.2249  0.6665
  133MOL    C7537299   2.045   2.657   0.367 -0.0131  0.4077 -0.6311
  133MOL    C7637300   2.105   2.766   0.457 -0.6472 -0.3597 -0.2761
  133MOL    C7737301   2.044   2.840   0.554 -0.2548 -0.5256 -0.2641
  133MOL    C7837302   1.911   2.612   0.384 -0.3081 -0.6850 -0.0525
  133MOL    C7937303   1.848   2.528   0.284 -0.5953  0.3835 -0.3809
  133MOL    H8037304   2.113   2.498   0.069 -0.8871 -1.9379 -0.3369
  133MOL    H8137305   2.212   2.660   0.237 -0.5644  1.6528 -1.2729
  133MOL    H8237306   2.210   2.783   0.441 -0.7964  0.0397 -0.8564
  133MOL    H8337307   1.938   2.821   0.565 -0.5173  0.9899 -0.1475
  133MOL    H8437308   1.853   2.636   0.473  1.1795 -1.5779  1.1787
  133MOL    H8537309   1.744   2.498   0.286 -0.3155 -0.7978 -2.3533
  133MOL    C8637310   2.102   2.944   0.644  0.1160 -0.1750 -0.2906
  133MOL    C8737311   2.242   2.946   0.674  0.1619  0.0602 -1.1720
  133MOL    C8837312   2.292   3.048   0.767 -0.4140 -0.3130 -0.2255
  133MOL    C8937313   2.200   3.112   0.840  0.0710 -0.0426 -0.3152
  133MOL    C9037314   2.247   3.213   0.944  0.2069  0.4394  0.6559
  133MOL    C9137315   2.366   3.227   0.995 -0.0668  0.3670  0.2381
  133MOL    C9237316   2.062   3.107   0.817 -0.6450  0.1848 -0.0755
  133MOL    C9337317   2.013   3.019   0.722 -1.1584 -0.4540  0.0978
  133MOL    H9437318   2.305   2.876   0.621  0.7026  0.2647 -0.8050
  133MOL    H9537319   2.398   3.058   0.786 -0.9822 -1.4391  3.8824
  133MOL    H9637320   2.174   3.288   0.969 -2.3608 -1.3628 -1.2434
  133MOL    H9737321   2.431   3.144   0.970 -0.1929  0.2319  0.3540
  133MOL    H9837322   1.986   3.166   0.864 -1.4284 -0.8215 -0.0557
  133MOL    H9937323   1.909   3.023   0.696 -1.3704  1.4426  1.1389
  133MOL   C10037324   2.418   3.329   1.089  0.8604 -0.2743 -0.1830
  133MOL   C10137325   2.344   3.448   1.099 -0.7524 -0.6929  0.4292
  133MOL   C10237326   2.382   3.546   1.192 -0.1719 -0.6966  0.1350
  133MOL   C10337327   2.504   3.539   1.265 -0.8103 -0.1796  0.0766
  133MOL   C10437328   2.546   3.646   1.358 -0.0113 -0.2180  0.3076
  133MOL   C10537329   2.462   3.706   1.448  0.0941  0.0909  0.3552
  133MOL   C10637330   2.578   3.417   1.258 -0.3807  0.5084 -0.2014
  133MOL   C10737331   2.537   3.312   1.164  0.8667 -0.2235 -0.2495
  133MOL   H10837332   2.246   3.453   1.054 -1.1841  0.0446  1.4438
  133MOL   H10937333   2.329   3.639   1.204 -0.6553 -1.2909  2.9456
  133MOL   H11037334   2.647   3.679   1.339  0.5046 -1.5498  0.6351
  133MOL   H11137335   2.362   3.670   1.467 -1.2037  3.1767 -0.3009
  133MOL   H11237336   2.655   3.393   1.329  0.8193 -1.6724 -2.1626
  133MOL   H11337337   2.600   3.224   1.165  1.8715  0.4960  0.8256
  133MOL   C11437338   2.484   3.831   1.518 -0.8015 -0.2040 -0.4691
  133MOL   C11537339   2.371   3.870   1.597  0.6564  0.1270 -0.0636
  133MOL   C11637340   2.351   4.004   1.644 -0.4032 -0.4081  0.5344
  133MOL   C11737341   2.462   4.092   1.621 -1.1509  0.2905 -0.0688
  133MOL   C11837342   2.431   4.231   1.651  0.5326  0.4463  0.1693
  133MOL   C11937343   2.448   4.327   1.562 -0.0655  0.2473 -0.0010
  133MOL   C12037344   2.576   4.051   1.550 -0.3145  0.2967 -0.4010
  133MOL   C12137345   2.592   3.920   1.493  0.0126 -0.1817 -0.4108
  133MOL   H12237346   2.287   3.804   1.616  1.7440 -1.2714  0.0027
  133MOL   H12337347   2.256   4.032   1.687  0.7042  3.4144  0.6811
  133MOL   H12437348   2.388   4.259   1.746  0.0259  1.6383 -0.4006
  133MOL   H12537349   2.493   4.297   1.469 -1.5421 -0.9416 -0.3346
  133MOL   H12637350   2.653   4.118   1.514  1.6715 -1.6306  0.1318
  133MOL   H12737351   2.681   3.900   1.434  0.1732  0.8645 -0.5338
  133MOL   C12837352   2.405   4.474   1.571 -0.0791  0.3262  0.6074
  133MOL   C12937353   2.355   4.528   1.689  0.0285  0.2643 -0.1759
  133MOL   C13037354   2.310   4.664   1.692 -0.5091  0.6651  0.7154
  133MOL   C13137355   2.282   4.727   1.568 -0.0436 -0.3447  0.6798
  133MOL   C13237356   2.201   4.848   1.563 -0.0178 -0.5535 -0.2725
  133MOL   C13337357   2.116   4.894   1.657  0.2616 -0.0682  0.2028
  133MOL   C13437358   2.336   4.673   1.447 -0.7242  0.2587  0.0246
  133MOL   C13537359   2.393   4.545   1.447  0.1998  0.4626 -0.7779
  133MOL   H13637360   2.359   4.475   1.783 -2.7199 -1.2294 -0.8477
  133MOL   H13737361   2.284   4.714   1.784  1.2306 -0.6225  1.9237
  133MOL   H13837362   2.222   4.901   1.472 -0.2690 -1.4078 -0.8356
  133MOL   H13937363   2.111   4.828   1.742 -1.5365  0.3127  0.4156
  133MOL   H14037364   2.320   4.729   1.356 -1.5138 -0.6539 -0.4027
  133MOL   H14137365   2.437   4.499   1.360 -1.9479 -0.4320 -1.4214
  133MOL   C14237366   2.030   5.007   1.645 -0.7290  0.1468  0.2540
  133MOL   C14337367   2.032   5.106   1.540  0.4837 -0.2714  0.3743
  133MOL   C14437368   1.923   5.193   1.521  0.2278 -0.1930 -0.6742
  133MOL   C14537369   1.813   5.184   1.605  0.8312 -0.0529  0.5245
  133MOL   C14637370   1.692   5.260   1.577  0.1027  0.6770 -0.0492
  133MOL   C14737371   1.653   5.311   1.457  0.6794 -0.4421  0.5822
  133MOL   C14837372   1.824   5.103   1.717  0.1608 -0.3578 -0.1613
  133MOL   C14937373   1.922   5.009   1.732  0.7503  0.2856 -0.8247
  133MOL   H15037374   2.113   5.101   1.469  0.5743 -0.0958  0.4656
  133MOL   H15137375   1.923   5.256   1.434  0.8674 -1.7217 -1.8167
  133MOL   H15237376   1.624   5.273   1.660  0.7887  0.3096  0.5739
  133MOL   H15337377   1.722   5.302   1.375  2.2679 -1.1159  1.9686
  133MOL   H15437378   1.740   5.102   1.785 -0.3180  0.8970 -0.7132
  133MOL   H15537379   1.910   4.942   1.816  2.1487 -0.6697 -1.3681
  133MOL   C15637380   1.532   5.391   1.423 -0.4157  0.2648 -0.4000
  133MOL   C15737381   1.446   5.437   1.530 -0.1943  0.1764 -0.6833
  133MOL   C15837382   1.314   5.486   1.496  0.1408  0.5337  0.0044
  133MOL   C15937383   1.274   5.489   1.360 -0.2097  0.1374  0.7495
  133MOL   C16037384   1.138   5.548   1.327 -0.1139 -0.4591 -0.3388
  133MOL   C16137385   1.074   5.549   1.213 -0.0563 -0.7687  0.1896
  133MOL   C16237386   1.372   5.460   1.254 -0.6590 -0.3166  0.1440
  133MOL   C16337387   1.494   5.406   1.292 -0.3998 -0.4672 -0.0370
  133MOL   H16437388   1.474   5.427   1.634 -0.6771 -0.1707 -0.5846
  133MOL   H16537389   1.241   5.515   1.570 -1.3550  0.1160 -1.2754
  133MOL   H16637390   1.082   5.591   1.409  2.6663 -0.0695  1.4425
  133MOL   H16737391   1.128   5.513   1.126 -1.2358 -0.7542 -0.5582
  133MOL   H16837392   1.342   5.482   1.152 -1.3106  0.8757  0.5770
  133MOL   H16937393   1.562   5.370   1.216  1.8309 -0.6475  1.9682
  133MOL   C17037394   0.948   5.607   1.177 -0.5801 -0.5444  0.1334
  133MOL   C17137395   0.862   5.686   1.253  0.2478  0.4200 -0.2025
  133MOL   C17237396   0.741   5.744   1.208  0.2168 -0.6312 -0.2233
  133MOL   C17337397   0.691   5.708   1.079 -0.0423  0.3311 -1.1475
  133MOL   C17437398   0.562   5.754   1.013 -0.9969  0.2635 -0.4634
  133MOL   C17537399   0.474   5.839   1.070  0.4230 -0.3893  0.4481
  133MOL   C17637400   0.777   5.630   1.003  0.2297  0.2811 -0.2018
  133MOL   C17737401   0.901   5.581   1.045 -0.1811  0.3338  0.2613
  133MOL   H17837402   0.896   5.707   1.354 -1.1738 -2.7001  0.9745
  133MOL   H17937403   0.694   5.820   1.268  2.1171 -2.2118  3.3994
  133MOL   H18037404   0.543   5.718   0.913 -0.0094  0.4729 -0.7297
  133MOL   H18137405   0.491   5.882   1.168 -2.1831 -2.3760  1.8505
  133MOL   H18237406   0.762   5.623   0.896 -0.5696  0.5501 -0.1110
  133MOL   H18337407   0.960   5.526   0.973  1.7204 -0.3199  2.2425
  133MOL   C18437408   0.354   5.893   1.002  0.5505 -0.0602 -0.0306
  133MOL   C18537409   0.291   6.010   1.058 -0.1066 -0.2001 -0.9736
  133MOL   C18637410   0.176   6.058   0.993  0.0185  0.0536 -0.1821
  133MOL   C18737411   0.121   5.993   0.877  0.4376  0.6623 -0.4949
  133MOL   C18837412   8.138   6.029   0.813  0.0225  0.1223 -0.4708
  133MOL   C18937413   8.034   6.098   0.865  0.0622 -0.2043  0.2293
  133MOL   C19037414   0.186   5.880   0.825  0.1049 -0.6252 -0.2708
  133MOL   C19137415   0.302   5.832   0.885  0.3602  0.6067 -0.1364
  133MOL   H19237416   0.325   6.061   1.147 -0.9903 -0.4475 -0.4902
  133MOL   H19337417   0.129   6.142   1.041  1.0701  0.7366 -0.3395
  133MOL   H19437418   8.127   6.005   0.708 -2.8805  0.1734 -0.2151
  133MOL   H19537419   8.042   6.129   0.969  1.7912  0.5066 -0.0874
  133MOL   H19637420   0.155   5.831   0.733 -2.4712 -1.2750  0.8763
  133MOL   H19737421   0.351   5.744   0.845 -1.1338 -0.4508  0.3003
  133MOL   C19837422   7.911   6.130   0.790  0.7515  0.1281 -0.5107
  133MOL   C19937423   7.887   6.087   0.659 -0.1557 -0.7825  0.3252
  133MOL   C20037424   7.766   6.106   0.598  0.5853  0.4760  0.7720
  133MOL   C20137425   7.665   6.178   0.661  0.0831  0.0541  0.3248
  133MOL   C20237426   7.547   6.211   0.581  0.3893  0.1242  0.1319
  133MOL   C20337427   7.435   6.265   0.636 -0.6148 -0.7872 -0.2177
  133MOL   C20437428   7.682   6.218   0.798  0.4372 -0.5108  0.6783
  133MOL   C20537429   7.804   6.191   0.859 -0.7847 -0.6025  0.0530
  133MOL   H20637430   7.965   6.034   0.606  0.4670  1.1623 -0.8046
  133MOL   H20737431   7.750   6.071   0.497  1.7371 -0.6702  0.9748
  133MOL   H20837432   7.552   6.188   0.476  2.5373 -0.9513  0.4384
  133MOL   H20937433   7.429   6.289   0.741  2.1538  0.8879 -0.3902
  133MOL   H21037434   7.610   6.277   0.854 -1.8492  0.0508 -2.7078
  133MOL   H21137435   7.827   6.236   0.954 -1.2628  2.2288 -1.1445
  133MOL   C21237436   7.306   6.290   0.563 -0.1926 -0.3525  0.0811
  133MOL   C21337437   7.278   6.253   0.431 -0.1615  0.5953 -0.3767
  133MOL   C21437438   7.146   6.265   0.373  0.1478  0.2478 -0.3014
  133MOL   C21537439   7.051   6.333   0.446  0.2991 -0.2246  0.1813
  133MOL   C21637440   6.912   6.365   0.397  0.5151  0.4641 -0.4907
  133MOL   C21737441   6.804   6.434   0.449 -0.5429 -0.6284 -0.5973
  133MOL   C21837442   7.082   6.375   0.580  0.1093 -0.1801  0.6669
  133MOL   C21937443   7.209   6.361   0.635  0.1943 -0.1614 -0.7217
  133MOL   H22037444   7.360   6.213   0.374 -1.1219 -0.7191 -0.8643
  133MOL   H22137445   7.126   6.228   0.274 -2.9130 -0.7221  0.6060
  133MOL   H22237446   6.877   6.325   0.302 -1.5782  0.5012  0.2226
  133MOL   H22337447   6.822   6.495   0.536  1.0040 -0.4517 -1.0207
  133MOL   H22437448   7.008   6.437   0.629 -0.0854 -0.6461  0.9671
  133MOL   H22537449   7.228   6.406   0.731 -3.9446 -0.1354  0.1730
  133MOL   C22637450   6.666   6.456   0.388  0.2511  0.7039 -0.3821
  133MOL   C22737451   6.631   6.409   0.259 -0.1071 -0.9012 -0.3624
  133MOL   C22837452   6.502   6.421   0.202  0.0812 -0.8546  0.2490
  133MOL   C22937453   6.405   6.493   0.276 -0.6408  0.4188  0.2002
  133MOL   C23037454   6.276   6.527   0.210  0.0439 -0.2787  0.6922
  133MOL   C23137455   6.186   6.610   0.266 -0.1449 -0.2968  0.3999
  133MOL   C23237456   6.442   6.533   0.408 -0.0208  0.4917  0.4886
  133MOL   C23337457   6.569   6.521   0.460 -0.8046 -0.8295  0.2749
  133MOL   H23437458   6.694   6.352   0.192 -0.2945 -0.8845 -0.5539
  133MOL   H23537459   6.487   6.394   0.098 -1.5093  0.2594  0.1666
  133MOL   H23637460   6.261   6.484   0.113 -3.4583  0.4271  0.8595
  133MOL   H23737461   6.204   6.665   0.357  3.3798  2.8216 -2.0206
  133MOL   H23837462   6.363   6.583   0.462 -0.8871  0.5923 -0.8358
  133MOL   H23937463   6.598   6.547   0.561 -0.6758  0.6372 -0.1354
  133MOL   C24037464   6.055   6.630   0.203  0.8613  0.3346 -0.7867
  133MOL   C24137465   6.013   6.572   0.084  0.0282 -0.6748 -0.1121
  133MOL   C24237466   5.885   6.594   0.038  0.4773  0.2587 -0.5703
  133MOL   C24337467   5.792   6.676   0.109  0.1052  0.0020  0.2958
  133MOL   C24437468   5.656   6.712   0.066 -0.2857  0.4877 -0.4098
  133MOL   C24537469   5.584   6.645   8.114 -0.1326  0.3645  0.7721
  133MOL   C24637470   5.834   6.724   0.233 -0.6788  0.0000 -0.0554
  133MOL   C24737471   5.963   6.702   0.280 -0.0419  0.0060  0.0668
  133MOL   H24837472   6.087   6.521   0.023 -0.1488 -1.4051  0.2787
  133MOL   H24937473   5.858   6.544   8.090 -1.0130 -0.0308  0.0075
  133MOL   H25037474   5.617   6.795   0.122 -1.3108  0.1362 -0.5834
  133MOL   H25137475   5.628   6.564   8.058 -1.5427 -0.4753  0.8671
  133MOL   H25237476   5.766   6.778   0.298  0.9327 -1.6439  3.0593
  133MOL   H25337477   5.993   6.727   0.380  1.7769  0.4734 -0.5631
  133MOL   C25437478   5.449   6.684   8.071 -0.1901 -0.0515  0.2758
  133MOL   C25537479   5.378   6.601   7.986 -0.1146 -0.3760  0.0373
  133MOL   C25637480   5.243   6.632   7.943 -0.7831  0.2754 -0.2330
  133MOL   C25737481   5.180   6.753   7.982 -0.2372 -0.3736 -0.3985
  133MOL   C25837482   5.048   6.801   7.924  0.2434  0.6708  0.1347
  133MOL   C25937483   5.001   6.759   7.803 -0.7107  0.1185  0.7438
  133MOL   C26037484   5.253   6.841   8.072  0.3428 -0.2284 -0.2180
  133MOL   C26137485   5.385   6.803   8.109  0.2237  0.0838  0.0495
  133MOL   H26237486   5.425   6.508   7.960  0.3904  0.3141 -1.5821
  133MOL   H26337487   5.187   6.574   7.871  1.2108  0.1674 -1.7358
  133MOL   H26437488   4.996   6.872   7.986 -0.0361 -0.1601  0.8569
  133MOL   H26537489   4.901   6.798   7.792 -0.6105 -0.0914 -0.9819
  133MOL   H26637490   5.216   6.938   8.103  2.2583  0.1811  0.8328
  133MOL   H26737491   5.442   6.873   0.025  1.6706 -2.1152  1.3113
  133MOL   C26837492   5.046   6.675   7.695 -0.5234  0.3156 -0.4770
  133MOL   C26937493   5.178   6.676   7.641  0.1041  0.1901  0.0293
  133MOL   C27037494   5.218   6.589   7.537  0.5963 -0.0666 -0.2974
  133MOL   C27137495   5.131   6.494   7.488  0.0291 -0.4973  0.4655
  133MOL   C27237496   5.172   6.393   7.394  0.0622 -0.0971  0.1411
  133MOL   C27337497   5.301   6.360   7.369  0.0432 -0.1293 -0.2831
  133MOL   C27437498   4.995   6.489   7.537 -0.3188 -0.1268 -0.5519
  133MOL   C27537499   4.957   6.585   7.636  0.1739 -0.0567  0.0537
  133MOL   H27637500   5.250   6.746   7.683  1.1216 -0.6098 -0.3473
  133MOL   H27737501   5.315   6.597   7.491  1.5256 -0.9071  1.4566
  133MOL   H27837502   5.093   6.346   7.337 -0.2127  0.4271  0.0891
  133MOL   H27937503   5.383   6.401   7.426 -0.3733  0.5052 -0.1298
  133MOL   H28037504   4.922   6.417   7.502 -1.8380 -0.0629  2.3340
  133MOL   H28137505   4.859   6.588   7.681 -0.4756 -1.2684 -1.2422
  133MOL   H28237506   5.319   6.292   7.288  0.2236  1.6174 -1.7250
  134MOL     C137507   2.841   0.149   5.785  0.1384  0.7576 -1.2022
  134MOL     C237508   2.762   0.077   5.878 -0.4504  0.2850  0.6398
  134MOL     C337509   2.772   8.081   5.888 -0.2220  0.5948 -0.4589
  134MOL     C437510   2.862   8.012   5.796 -0.0559 -0.3608 -0.0395
  134MOL     C537511   2.877   7.867   5.796  0.8974 -0.3214  0.1163
  134MOL     C637512   2.801   7.775   5.862  0.0155  0.2794 -0.0666
  134MOL     C737513   2.939   8.086   5.701  0.2031  0.9767  0.2846
  134MOL     C837514   2.934   0.080   5.702  0.5256 -0.4297 -0.2484
  134MOL     H937515   2.695   0.133   5.943 -1.7365 -0.7855  0.2518
  134MOL    H1037516   2.711   8.026   5.958 -1.8640  1.4587 -1.1849
  134MOL    H1137517   2.961   7.839   5.734  0.0868 -0.1641 -1.0710
  134MOL    H1237518   2.712   7.800   5.919 -0.1155 -2.4072  0.9956
  134MOL    H1337519   3.004   8.034   5.632  2.1837  0.5120  2.4362
  134MOL    H1437520   2.992   0.136   5.631  0.9690 -1.8428 -1.0297
  134MOL    H1537521   2.834   0.257   5.782  0.1688  0.7718 -0.7180
  134MOL    C1637522   2.850   7.635   5.856 -0.2522  0.0070  0.2429
  134MOL    C1737523   2.754   7.529   5.859  0.2657 -0.5209  0.7517
  134MOL    C1837524   2.794   7.395   5.851  0.0231  0.3333  0.2951
  134MOL    C1937525   2.929   7.365   5.833  0.5792 -0.0353 -0.2159
  134MOL    C2037526   2.959   7.223   5.851 -1.0743 -0.5582  0.3910
  134MOL    C2137527   3.079   7.169   5.884  1.0679  0.4386 -0.2535
  134MOL    C2237528   3.021   7.466   5.839  0.3881 -0.7962 -0.1595
  134MOL    C2337529   2.985   7.603   5.838  0.5153 -0.4623  0.0093
  134MOL    H2437530   2.648   7.553   5.858  0.4913  0.4907 -0.1934
  134MOL    H2537531   2.717   7.320   5.859  0.5043 -0.2529 -0.4984
  134MOL    H2637532   2.878   7.155   5.827  0.0945 -2.4861  1.7389
  134MOL    H2737533   3.171   7.223   5.898  1.0555  0.7177 -1.1947
  134MOL    H2837534   3.126   7.442   5.841  0.6718  0.4086 -0.4906
  134MOL    H2937535   3.063   7.678   5.845  0.5084 -0.5778  1.5730
  134MOL    C3037536   3.107   7.022   5.894 -0.1967 -0.4121 -0.5222
  134MOL    C3137537   3.216   6.972   5.972  0.4331  0.2325 -0.1081
  134MOL    C3237538   3.244   6.830   5.979 -0.2524 -0.5512 -0.5339
  134MOL    C3337539   3.161   6.737   5.917 -1.1694  0.0905 -0.0361
  134MOL    C3437540   3.184   6.592   5.937  0.0691  0.0808 -0.0401
  134MOL    C3537541   3.108   6.490   5.893  0.9588  0.2164  0.0047
  134MOL    C3637542   3.059   6.788   5.835  0.7257 -0.4300  0.2938
  134MOL    C3737543   3.028   6.927   5.819 -0.1769  0.4590  0.3938
  134MOL    H3837544   3.286   7.038   6.023  1.2226 -2.4069  2.3553
  134MOL    H3937545   3.332   6.793   6.029 -0.5040  2.1802  2.1012
  134MOL    H4037546   3.273   6.581   5.997  1.1655  2.1139 -1.2239
  134MOL    H4137547   3.023   6.522   5.835 -0.4548 -0.9766  1.3757
  134MOL    H4237548   3.005   6.716   5.775 -0.6176  0.9873 -0.2153
  134MOL    H4337549   2.945   6.963   5.759 -0.4931  1.5420  1.4598
  134MOL    C4437550   3.123   6.349   5.922 -0.4673  0.5885 -0.1705
  134MOL    C4537551   3.192   6.315   6.042 -0.4900  0.8010  0.0178
  134MOL    C4637552   3.204   6.179   6.073  0.5344 -0.1169  0.7818
  134MOL    C4737553   3.152   6.077   6.000 -0.6676 -1.2304  0.2216
  134MOL    C4837554   3.186   5.938   6.049  0.0521 -0.3883 -0.6095
  134MOL    C4937555   3.181   5.822   5.981 -0.4766 -0.2747 -0.2717
  134MOL    C5037556   3.083   6.104   5.881  0.2419 -0.1023  0.1775
  134MOL    C5137557   3.066   6.242   5.846 -0.2116  0.4102  0.0427
  134MOL    H5237558   3.226   6.383   6.118  1.6764 -1.1014  0.8531
  134MOL    H5337559   3.237   6.159   6.174  0.3908  0.2295  0.8994
  134MOL    H5437560   3.208   5.941   6.154  1.1734 -1.2754 -0.8070
  134MOL    H5537561   3.161   5.825   5.875  0.8591  2.4623 -0.4918
  134MOL    H5637562   3.058   6.032   5.805  0.2823  0.9884 -0.8777
  134MOL    H5737563   3.004   6.260   5.760  2.4704 -0.7071 -2.1945
  134MOL    C5837564   3.189   5.687   6.040 -0.3267 -0.1064  1.0426
  134MOL    C5937565   3.209   5.572   5.962  0.2084  1.0710  0.0816
  134MOL    C6037566   3.205   5.441   6.020  0.5571 -0.0054  0.7101
  134MOL    C6137567   3.198   5.428   6.158 -0.6953 -0.2462  0.6704
  134MOL    C6237568   3.203   5.290   6.212 -0.3035 -0.3406  0.5259
  134MOL    C6337569   3.175   5.267   6.339 -0.2400  0.0186 -0.2430
  134MOL    C6437570   3.200   5.542   6.244 -0.1395  0.4856 -0.4421
  134MOL    C6537571   3.184   5.670   6.183  1.1636  0.0070  0.0430
  134MOL    H6637572   3.213   5.563   5.855  0.9528  1.4389  0.0810
  134MOL    H6737573   3.222   5.352   5.961  2.6942  0.5279  0.4964
  134MOL    H6837574   3.225   5.211   6.142  0.5135  1.4546 -1.2834
  134MOL    H6937575   3.158   5.345   6.412  0.7470  0.6385 -0.6627
  134MOL    H7037576   3.203   5.532   6.352  0.7404  0.7102 -0.4471
  134MOL    H7137577   3.168   5.760   6.240 -1.9207  0.4952 -1.4843
  134MOL    C7237578   3.156   5.133   6.394  0.2586 -0.0356  0.4089
  134MOL    C7337579   3.205   5.017   6.324  0.1043 -0.1279  0.6383
  134MOL    C7437580   3.185   4.886   6.376  0.1370 -0.3770  0.1019
  134MOL    C7537581   3.125   4.868   6.504 -0.0840 -0.0983  0.8239
  134MOL    C7637582   3.084   4.740   6.549 -0.9776  0.3483  0.0880
  134MOL    C7737583   3.086   4.625   6.477 -0.4953 -0.1859  0.1953
  134MOL    C7837584   3.097   4.983   6.584 -0.1859  0.2529  0.0859
  134MOL    C7937585   3.116   5.113   6.523  0.4321  0.1488  0.5388
  134MOL    H8037586   3.250   5.017   6.225 -1.9433  3.3583 -0.3448
  134MOL    H8137587   3.224   4.801   6.322 -2.6750 -1.6433  0.0048
  134MOL    H8237588   3.037   4.737   6.646 -0.9375  1.1322  0.1299
  134MOL    H8337589   3.124   4.626   6.376  1.5762 -0.1033  0.9530
  134MOL    H8437590   3.056   4.977   6.684 -1.0567 -0.7694 -0.3150
  134MOL    H8537591   3.095   5.203   6.578 -0.3278 -0.7846  1.7960
  134MOL    C8637592   3.028   4.507   6.532  0.2713  0.0994 -0.0355
  134MOL    C8737593   2.974   4.420   6.439  1.0388  0.6686  0.2326
  134MOL    C8837594   2.906   4.306   6.474  0.4322  0.5595 -0.3822
  134MOL    C8937595   2.885   4.273   6.612 -0.2489 -0.3094 -0.3465
  134MOL    C9037596   2.808   4.147   6.657  0.0558 -0.3196 -0.1244
  134MOL    C9137597   2.800   4.092   6.784  0.3742  0.4248  0.6037
  134MOL    C9237598   2.955   4.354   6.704  0.2929 -1.0172 -0.5223
  134MOL    C9337599   3.025   4.466   6.666 -0.8509 -0.2260  0.1234
  134MOL    H9437600   2.979   4.447   6.335  0.8107 -2.2240 -0.5521
  134MOL    H9537601   2.870   4.238   6.398  0.4091 -0.3560  0.4419
  134MOL    H9637602   2.760   4.098   6.574 -3.2358  2.9373 -0.3217
  134MOL    H9737603   2.864   4.134   6.859 -0.6429 -0.7823  2.1704
  134MOL    H9837604   2.961   4.322   6.807  1.1904 -2.1638 -0.9255
  134MOL    H9937605   3.073   4.522   6.745  0.0903 -0.9609  0.0766
  134MOL   C10037606   2.720   3.979   6.823 -0.7092  1.0312  0.3277
  134MOL   C10137607   2.736   3.917   6.949  0.0432  0.6225 -0.3424
  134MOL   C10237608   2.643   3.820   7.001 -0.2999  0.2341  0.4111
  134MOL   C10337609   2.543   3.774   6.910  0.6218 -0.4619 -1.6179
  134MOL   C10437610   2.434   3.687   6.950 -0.1191 -0.4114  0.6026
  134MOL   C10537611   2.411   3.627   7.072 -0.1320 -0.4997  0.3888
  134MOL   C10637612   2.528   3.833   6.783  0.0544  0.0596  0.5067
  134MOL   C10737613   2.617   3.930   6.737 -0.5962 -0.2204 -0.2901
  134MOL   H10837614   2.828   3.938   7.001  1.2894 -0.8748 -1.9036
  134MOL   H10937615   2.651   3.775   7.099  0.4495 -1.8279 -0.5440
  134MOL   H11037616   2.365   3.666   6.870  0.0735  2.9276 -0.4802
  134MOL   H11137617   2.491   3.635   7.144 -0.2794 -3.6428  0.9592
  134MOL   H11237618   2.436   3.815   6.729  0.1151  3.1882 -0.7533
  134MOL   H11337619   2.602   3.969   6.638 -0.5575 -0.4662 -0.3931
  134MOL   C11437620   2.300   3.545   7.107  0.2633 -0.9354 -0.2994
  134MOL   C11537621   2.177   3.536   7.031 -0.2716  0.8495  0.5541
  134MOL   C11637622   2.066   3.461   7.080 -1.2576  0.5893  0.1271
  134MOL   C11737623   2.076   3.390   7.203  0.2663  0.2323  0.0252
  134MOL   C11837624   1.957   3.337   7.262 -0.3395 -0.1877 -0.0729
  134MOL   C11937625   1.833   3.378   7.229 -0.5539 -0.0771 -0.2590
  134MOL   C12037626   2.195   3.404   7.278 -0.2209  0.4167 -0.0357
  134MOL   C12137627   2.303   3.479   7.235 -0.3002 -0.1144  0.5305
  134MOL   H12237628   2.172   3.592   6.939 -2.5462 -0.4921 -0.1840
  134MOL   H12337629   1.970   3.464   7.030 -0.7651  1.6748 -0.7741
  134MOL   H12437630   1.974   3.264   7.339 -1.2142  1.1965  1.4600
  134MOL   H12537631   1.811   3.460   7.162 -1.1331  1.2600  1.5258
  134MOL   H12637632   2.198   3.355   7.374 -1.0424 -0.3448 -0.3917
  134MOL   H12737633   2.398   3.488   7.286  0.9328  1.1469 -1.8863
  134MOL   C12837634   1.706   3.330   7.289 -0.2568  0.2324  0.2375
  134MOL   C12937635   1.690   3.187   7.306  0.1714 -0.4664 -0.2673
  134MOL   C13037636   1.565   3.146   7.345  0.3653  0.4756  0.4941
  134MOL   C13137637   1.455   3.231   7.371  0.1553  0.2716  0.5063
  134MOL   C13237638   1.326   3.168   7.410  0.4844 -0.6692 -0.1601
  134MOL   C13337639   1.214   3.231   7.452 -0.2418 -0.0542 -0.2953
  134MOL   C13437640   1.474   3.370   7.355  0.7263 -0.1532  0.1887
  134MOL   C13537641   1.597   3.420   7.314 -0.8028 -0.4530 -0.4101
  134MOL   H13637642   1.770   3.116   7.297  0.6150 -0.5559  3.4111
  134MOL   H13737643   1.543   3.041   7.355 -0.5232  0.7015  1.0241
  134MOL   H13837644   1.319   3.061   7.403  3.0202 -0.9566  0.9578
  134MOL   H13937645   1.203   3.338   7.463  1.0463 -0.0569  1.1297
  134MOL   H14037646   1.398   3.443   7.380  0.3133  0.4905 -2.7769
  134MOL   H14137647   1.621   3.524   7.306 -1.4452 -0.2708 -0.0023
  134MOL   C14237648   1.091   3.166   7.479  0.0657  0.5333  0.1700
  134MOL   C14337649   1.061   3.033   7.438 -0.4821 -0.2588  0.2721
  134MOL   C14437650   0.936   2.979   7.468 -0.4138 -0.0557  0.2561
  134MOL   C14537651   0.833   3.056   7.527 -0.4287 -0.4113 -0.3678
  134MOL   C14637652   0.692   3.001   7.546  0.4417 -0.1630 -0.7096
  134MOL   C14737653   0.643   2.877   7.523 -0.4195  0.9386 -0.0919
  134MOL   C14837654   0.861   3.192   7.553 -0.3962 -0.4616  0.3497
  134MOL   C14937655   0.982   3.246   7.532  0.0319 -0.5691  0.6215
  134MOL   H15037656   1.137   2.967   7.399  0.6626  0.3358  1.4254
  134MOL   H15137657   0.915   2.876   7.443 -2.3095  0.3706  0.0943
  134MOL   H15237658   0.629   3.076   7.592  1.3526  1.9376 -2.7569
  134MOL   H15337659   0.710   2.799   7.489 -0.7517  0.5538  0.1378
  134MOL   H15437660   0.776   3.254   7.577  0.5478  0.8318  0.4072
  134MOL   H15537661   0.998   3.349   7.561  2.9331 -0.4543 -1.1578
  134MOL   C15637662   0.505   2.835   7.543  0.2700 -0.3993 -0.2943
  134MOL   C15737663   0.401   2.930   7.566  0.8394  0.3969  0.2428
  134MOL   C15837664   0.264   2.893   7.587 -0.5446  1.3312 -0.1526
  134MOL   C15937665   0.238   2.751   7.584 -0.3596 -0.1207 -0.5435
  134MOL   C16037666   0.097   2.713   7.592  0.5431  0.1742  0.4168
  134MOL   C16137667   0.042   2.591   7.553  0.5377  1.0441  0.7971
  134MOL   C16237668   0.337   2.652   7.570 -0.1810 -0.5999 -0.1158
  134MOL   C16337669   0.468   2.697   7.549  0.3612  0.4667  0.3697
  134MOL   H16437670   0.424   3.035   7.560  1.7963  0.2398  0.9783
  134MOL   H16537671   0.191   2.966   7.618  1.3738  3.5399 -0.6486
  134MOL   H16637672   0.031   2.786   7.637  1.0231  0.9430 -0.0998
  134MOL   H16737673   0.096   2.505   7.517 -1.7087  0.1169 -0.4680
  134MOL   H16837674   0.316   2.546   7.575 -2.4945 -0.1388  0.1640
  134MOL   H16937675   0.549   2.629   7.527  0.5958  1.2188 -1.2247
  134MOL   C17037676   8.043   2.541   7.558  0.7640 -0.4557  0.0558
  134MOL   C17137677   8.012   2.420   7.492  0.2065 -0.0015 -0.6849
  134MOL   C17237678   7.886   2.364   7.491 -0.0089 -0.1396 -0.4312
  134MOL   C17337679   7.783   2.433   7.553 -0.3458 -0.0000  0.4741
  134MOL   C17437680   7.643   2.389   7.554 -0.1162 -0.2131  0.1227
  134MOL   C17537681   7.595   2.292   7.482  0.6305 -0.8450 -0.2250
  134MOL   C17637682   7.806   2.557   7.606  0.1623  0.3341 -0.0629
  134MOL   C17737683   7.933   2.611   7.612  0.1935  0.4966 -0.3406
  134MOL   H17837684   8.098   2.367   7.454  1.8331  2.2840 -0.3221
  134MOL   H17937685   7.872   2.264   7.455 -1.0062 -0.0694 -0.2426
  134MOL   H18037686   7.584   2.440   7.629  2.2049  0.6213  1.4471
  134MOL   H18137687   7.663   2.244   7.413  1.7108  0.5968 -0.1920
  134MOL   H18237688   7.723   2.619   7.637  0.7882 -0.1733  2.7983
  134MOL   H18337689   7.948   2.707   7.659 -2.5548  0.0430  1.5486
  134MOL   C18437690   7.455   2.253   7.480 -0.0562  0.1719 -0.9572
  134MOL   C18537691   7.358   2.312   7.567 -0.5920 -0.1217 -0.5547
  134MOL   C18637692   7.217   2.292   7.547 -0.5875 -0.0970 -0.4277
  134MOL   C18737693   7.176   2.188   7.470  0.1350  0.0743  0.5144
  134MOL   C18837694   7.035   2.146   7.471 -0.5336 -0.9172  0.2036
  134MOL   C18937695   6.964   2.089   7.374  0.4780 -0.8399  0.6397
  134MOL   C19037696   7.269   2.117   7.387  0.0761  0.4298 -0.1213
  134MOL   C19137697   7.406   2.154   7.392 -0.1829  0.2270  0.3247
  134MOL   H19237698   7.380   2.391   7.638 -0.5566  0.2167 -0.9417
  134MOL   H19337699   7.149   2.351   7.606  0.6605  0.4661  0.4562
  134MOL   H19437700   6.980   2.159   7.563 -0.5919  0.9343 -0.0776
  134MOL   H19537701   7.000   2.082   7.273 -0.9871  2.4851 -0.1573
  134MOL   H19637702   7.241   2.032   7.327 -1.9717  0.5001  0.6924
  134MOL   H19737703   7.477   2.088   7.344  0.3153  1.1619 -0.2559
  134MOL   C19837704   6.831   2.024   7.389 -0.6179 -0.5048 -0.5445
  134MOL   C19937705   6.751   2.033   7.280  0.1514  1.1402  0.6718
  134MOL   C20037706   6.621   1.974   7.285  0.6667 -0.1790  0.0623
  134MOL   C20137707   6.587   1.895   7.394 -0.1990 -0.2895 -0.2248
  134MOL   C20237708   6.464   1.821   7.399 -0.0671  1.0555  0.0044
  134MOL   C20337709   6.365   1.815   7.304 -0.6281 -0.2050 -0.6756
  134MOL   C20437710   6.670   1.891   7.506  0.3832 -0.4424 -0.6203
  134MOL   C20537711   6.794   1.958   7.505  0.7789 -0.7994 -0.4941
  134MOL   H20637712   6.773   2.077   7.183  1.2311 -2.3731 -0.7290
  134MOL   H20737713   6.559   1.968   7.197  1.2320 -1.8409 -0.2466
  134MOL   H20837714   6.461   1.759   7.488 -0.6830  0.3827 -0.4784
  134MOL   H20937715   6.378   1.872   7.214 -1.5353  0.4338 -0.3990
  134MOL   H21037716   6.655   1.822   7.587  2.8111 -1.7734 -1.2743
  134MOL   H21137717   6.864   1.938   7.586  1.7059  1.0000 -0.8150
  134MOL   C21237718   6.235   1.741   7.311  0.4399 -0.3822 -0.4636
  134MOL   C21337719   6.147   1.743   7.201 -0.0195 -1.0199  0.4207
  134MOL   C21437720   6.017   1.684   7.214 -0.2310 -0.3723 -0.2086
  134MOL   C21537721   5.985   1.611   7.330 -1.0728  0.1488 -0.2522
  134MOL   C21637722   5.854   1.543   7.349  0.4189  0.5830 -0.7378
  134MOL   C21737723   5.752   1.527   7.262  0.4638 -0.4887 -0.3722
  134MOL   C21837724   6.081   1.600   7.433  0.5503 -0.1408  0.3007
  134MOL   C21937725   6.201   1.667   7.425  0.0158 -0.2333  0.5299
  134MOL   H22037726   6.170   1.786   7.105 -0.9754  0.6827  0.9226
  134MOL   H22137727   5.948   1.702   7.133 -1.3557  0.8806  1.0069
  134MOL   H22237728   5.837   1.494   7.444 -1.0662  3.6907  0.6935
  134MOL   H22337729   5.773   1.570   7.165 -0.9009  1.3706  0.1232
  134MOL   H22437730   6.049   1.546   7.521  1.7521  0.1819  0.9490
  134MOL   H22537731   6.264   1.678   7.513 -1.4346 -0.9001  1.6657
  134MOL   C22637732   5.625   1.457   7.275 -0.1641  0.3115  0.1111
  134MOL   C22737733   5.543   1.454   7.158  0.6678 -0.0506 -0.7026
  134MOL   C22837734   5.414   1.403   7.162 -0.1184 -0.4229 -0.7195
  134MOL   C22937735   5.368   1.352   7.285  0.2027  0.8234  0.5775
  134MOL   C23037736   5.237   1.280   7.292  0.0721 -0.4009 -0.2852
  134MOL   C23137737   5.162   1.246   7.185 -0.0028 -0.7867  0.0988
  134MOL   C23237738   5.445   1.357   7.403  0.0259  0.0413 -0.0617
  134MOL   C23337739   5.575   1.406   7.393 -1.1277 -0.2378 -0.2940
  134MOL   H23437740   5.577   1.502   7.068  0.4193  3.8685  1.1626
  134MOL   H23537741   5.351   1.396   7.075 -2.4905  2.6464  0.6598
  134MOL   H23637742   5.208   1.265   7.395 -1.0242  1.1717 -0.3375
  134MOL   H23737743   5.188   1.273   7.083  0.4351 -2.2877 -0.1962
  134MOL   H23837744   5.412   1.305   7.491  0.8557  0.4446  0.4994
  134MOL   H23937745   5.638   1.403   7.481 -1.1258 -2.9135 -0.3493
  134MOL   C24037746   5.035   1.177   7.189 -0.1951 -0.6443  0.1624
  134MOL   C24137747   4.946   1.196   7.081 -0.4213 -0.1981  0.8201
  134MOL   C24237748   4.818   1.148   7.091  0.2307  1.1699 -0.6373
  134MOL   C24337749   4.768   1.084   7.202 -0.9428 -0.5398  0.2523
  134MOL   C24437750   4.634   1.032   7.215  0.4866  1.0183  0.1293
  134MOL   C24537751   4.583   0.931   7.291  0.5325  0.1498  0.0073
  134MOL   C24637752   4.857   1.055   7.311  0.1389  0.3371 -0.1727
  134MOL   C24737753   4.989   1.106   7.300  0.4508  0.0589 -0.1249
  134MOL   H24837754   4.983   1.256   6.999  1.0427 -2.8698 -0.5137
  134MOL   H24937755   4.750   1.155   7.007 -2.2303  0.3676  1.2074
  134MOL   H25037756   4.559   1.082   7.156  1.4730  0.8993 -1.2410
  134MOL   H25137757   4.641   0.874   7.362  0.0796 -0.3288 -0.0054
  134MOL   H25237758   4.814   1.005   7.396 -3.0315  2.0612 -0.6585
  134MOL   H25337759   5.061   1.087   7.379  1.1834  1.2314 -0.5069
  134MOL   C25437760   4.439   0.882   7.293 -0.4102 -1.4347  0.4430
  134MOL   C25537761   4.417   0.746   7.300  0.1518  0.1616  0.0874
  134MOL   C25637762   4.284   0.699   7.311 -0.2346 -0.1735  0.3839
  134MOL   C25737763   4.175   0.777   7.291 -0.0827  0.8899 -0.0947
  134MOL   C25837764   4.039   0.720   7.290 -0.0474  0.6832 -0.0706
  134MOL   C25937765   3.920   0.774   7.328  0.3189 -0.5503 -0.3427
  134MOL   C26037766   4.198   0.912   7.266  0.0726  0.8786  0.5556
  134MOL   C26137767   4.327   0.972   7.276  0.0679  0.8719 -0.5140
  134MOL   H26237768   4.502   0.680   7.300  2.6194  3.1816 -1.7606
  134MOL   H26337769   4.274   0.593   7.327 -0.8629 -0.1286  0.3082
  134MOL   H26437770   4.037   0.624   7.240  0.8085  0.9349 -0.5986
  134MOL   H26537771   3.826   0.726   7.307 -1.5336  3.0293 -0.6201
  134MOL   H26637772   4.117   0.983   7.254 -0.3262  0.0738 -1.6345
  134MOL   H26737773   4.337   1.079   7.264 -1.8407  1.2926  1.4645
  134MOL   C26837774   3.902   0.900   7.408  0.3509 -0.4174 -0.0675
  134MOL   C26937775   3.997   0.955   7.494  0.4404  0.4439  0.4832
  134MOL   C27037776   3.970   1.072   7.572  0.0038 -0.5877 -0.4061
  134MOL   C27137777   3.845   1.144   7.557 -0.8293  0.5588 -0.3118
  134MOL   C27237778   3.820   1.273   7.635  0.6724 -0.2787 -0.4163
  134MOL   C27337779   3.701   1.327   7.655  0.1887  0.2942 -0.5280
  134MOL   C27437780   3.742   1.077   7.481 -0.7991  0.8176 -0.1319
  134MOL   C27537781   3.775   0.959   7.405 -0.1998 -0.1934  0.3183
  134MOL   H27637782   4.092   0.908   7.514 -0.2766 -1.6358 -0.7203
  134MOL   H27737783   4.049   1.111   7.634 -1.1029 -0.9227  1.2374
  134MOL   H27837784   3.905   1.329   7.670  0.2837 -0.8561  1.5246
  134MOL   H27937785   3.617   1.279   7.607 -0.0139 -0.9607  1.0665
  134MOL   H28037786   3.645   1.120   7.466 -1.6390 -0.2808  1.8382
  134MOL   H28137787   3.698   0.916   7.343 -0.0658  0.4650 -0.3157
  134MOL   H28237788   3.682   1.413   7.718  3.2186  2.6156 -2.5776
  135MOL     C137789   4.187   1.328   0.187  0.4753  0.1027 -0.1447
  135MOL     C237790   4.279   1.417   0.143 -0.6252 -0.6387 -0.2579
  135MOL     C337791   4.402   1.431   0.214 -0.3908  0.9847  0.2972
  135MOL     C437792   4.423   1.354   0.329 -0.5998  0.1030 -0.0663
  135MOL     C537793   4.542   1.365   0.409 -0.2123 -0.2652  0.0247
  135MOL     C637794   4.636   1.461   0.401 -0.5136  0.4501  0.5943
  135MOL     C737795   4.326   1.261   0.370 -0.0059 -0.2542 -0.7280
  135MOL     C837796   4.213   1.245   0.297  0.5501 -0.2242 -0.2536
  135MOL     H937797   4.264   1.474   0.053 -1.6575 -2.1733 -1.0671
  135MOL    H1037798   4.473   1.510   0.192  1.2418 -0.1725  1.3465
  135MOL    H1137799   4.549   1.288   0.484  0.5299  0.5188  0.7668
  135MOL    H1237800   4.627   1.541   0.328 -0.3080  1.1843  1.3608
  135MOL    H1337801   4.342   1.200   0.457  2.5357  1.9355  0.4194
  135MOL    H1437802   4.134   1.172   0.310 -1.1363  1.5591 -0.2134
  135MOL    H1537803   4.092   1.316   0.138  1.7580 -1.2297 -2.3639
  135MOL    C1637804   4.758   1.472   0.484 -0.9804  0.3962 -0.0952
  135MOL    C1737805   4.781   1.382   0.589  0.1138  0.1939  0.4181
  135MOL    C1837806   4.879   1.408   0.688  0.3841 -0.3923 -0.2828
  135MOL    C1937807   4.968   1.518   0.677 -0.3448 -0.2164 -0.0512
  135MOL    C2037808   5.075   1.544   0.768  0.2279 -0.0841  0.0293
  135MOL    C2137809   5.084   1.486   0.887  0.5607  0.3445  0.0012
  135MOL    C2237810   4.951   1.607   0.568 -0.3954  0.1330  0.3512
  135MOL    C2337811   4.845   1.584   0.477  0.1563  0.1434  0.5982
  135MOL    H2437812   4.724   1.293   0.611 -3.6425  2.4494  0.1791
  135MOL    H2537813   4.904   1.332   0.761  2.0818  1.8288  1.5217
  135MOL    H2637814   5.146   1.618   0.734  1.4425 -0.7931  0.9878
  135MOL    H2737815   5.008   1.417   0.918  1.1794 -0.6196 -0.6010
  135MOL    H2837816   5.012   1.695   0.561  1.5043 -1.2826 -1.6773
  135MOL    H2937817   4.841   1.667   0.408  0.3429  0.0460  0.4717
  135MOL    C3037818   5.195   1.502   0.990  0.7580 -0.3956  0.2472
  135MOL    C3137819   5.211   1.402   1.093 -0.9860 -0.7205 -0.3806
  135MOL    C3237820   5.323   1.415   1.184 -0.3527  0.5076  0.2318
  135MOL    C3337821   5.423   1.518   1.171  0.4457 -0.5671  0.1196
  135MOL    C3437822   5.546   1.531   1.262 -0.0119  0.4127 -0.2966
  135MOL    C3537823   5.578   1.455   1.372 -0.0883  0.0272  0.1753
  135MOL    C3637824   5.408   1.607   1.064 -0.0789  0.4310  0.6191
  135MOL    C3737825   5.297   1.604   0.976  0.0499 -0.4139  0.2399
  135MOL    H3837826   5.143   1.319   1.106 -1.9855  0.0724 -0.5266
  135MOL    H3937827   5.327   1.332   1.254  0.6599  1.1219  0.9235
  135MOL    H4037828   5.609   1.616   1.239 -1.0100  1.4983  0.9248
  135MOL    H4137829   5.498   1.387   1.398 -1.1728  0.7032 -1.2800
  135MOL    H4237830   5.473   1.687   1.030  0.0442 -0.2841 -0.8917
  135MOL    H4337831   5.283   1.671   0.892  0.8090  1.1554  1.3457
  135MOL    C4437832   5.695   1.458   1.459  0.2859 -0.8261 -0.2264
  135MOL    C4537833   5.768   1.578   1.470  0.4654 -0.3594  0.3060
  135MOL    C4637834   5.879   1.582   1.551 -0.3112  0.1552 -0.0038
  135MOL    C4737835   5.932   1.464   1.614  0.6342  0.4684 -0.0314
  135MOL    C4837836   6.064   1.489   1.677  0.1024 -0.2405 -0.0138
  135MOL    C4937837   6.113   1.410   1.770 -0.1405 -0.2810 -0.4124
  135MOL    C5037838   5.854   1.347   1.612 -0.8491 -0.5596  0.2372
  135MOL    C5137839   5.732   1.340   1.536 -0.2091 -0.3859  0.1615
  135MOL    H5237840   5.744   1.665   1.410 -0.7407 -1.2625 -0.5720
  135MOL    H5337841   5.932   1.675   1.544  0.9591 -0.5897 -0.4439
  135MOL    H5437842   6.130   1.566   1.640 -0.6026 -0.0927 -0.9753
  135MOL    H5537843   6.044   1.339   1.813 -1.0914 -0.1582 -1.6915
  135MOL    H5637844   5.897   1.265   1.667 -0.9282  0.7046  2.2038
  135MOL    H5737845   5.692   1.241   1.519 -1.5192  0.4363 -1.6830
  135MOL    C5837846   6.244   1.415   1.841  0.0349  0.7139  0.1530
  135MOL    C5937847   6.341   1.504   1.804 -0.0044  0.0487 -0.2842
  135MOL    C6037848   6.465   1.499   1.877  0.1745 -1.2380 -0.4321
  135MOL    C6137849   6.500   1.405   1.981  0.2724  0.1868 -0.7745
  135MOL    C6237850   6.633   1.409   2.058  0.0984  0.1784  0.2331
  135MOL    C6337851   6.655   1.353   2.178 -0.1183 -0.2984 -0.0709
  135MOL    C6437852   6.400   1.312   2.006  0.0388  0.3294 -0.5282
  135MOL    C6537853   6.274   1.314   1.938  0.3914 -0.4076 -1.1999
  135MOL    H6637854   6.332   1.580   1.729 -0.1158  1.2431  0.9134
  135MOL    H6737855   6.538   1.577   1.862  1.3580 -2.2991 -0.3364
  135MOL    H6837856   6.704   1.470   2.004 -0.8626 -0.2054 -1.5127
  135MOL    H6937857   6.578   1.286   2.215  0.0441 -0.7407 -0.5226
  135MOL    H7037858   6.416   1.227   2.070  1.3663  0.9213 -0.0604
  135MOL    H7137859   6.201   1.242   1.974 -0.1084  0.2425 -0.9042
  135MOL    C7237860   6.775   1.359   2.258  0.5886 -0.0632 -0.6090
  135MOL    C7337861   6.881   1.441   2.221  0.4502 -0.6501 -0.1995
  135MOL    C7437862   7.004   1.445   2.295 -0.0720  0.1011 -0.6807
  135MOL    C7537863   7.012   1.367   2.409 -0.4727 -0.2523 -0.0550
  135MOL    C7637864   7.133   1.375   2.491  0.4153 -0.6135 -0.1947
  135MOL    C7737865   7.145   1.341   2.624  0.3819  1.5377  0.2596
  135MOL    C7837866   6.896   1.283   2.451 -0.6085  0.4188 -0.2457
  135MOL    C7937867   6.777   1.279   2.377  0.3935 -0.5221  0.1540
  135MOL    H8037868   6.871   1.513   2.141  0.2118 -0.0998  0.3217
  135MOL    H8137869   7.083   1.517   2.278 -0.2367  0.0225 -1.7986
  135MOL    H8237870   7.225   1.408   2.445  0.1472 -1.9192 -1.7601
  135MOL    H8337871   7.062   1.295   2.676  1.4717 -1.1808 -0.3198
  135MOL    H8437872   6.907   1.215   2.534  0.8165  0.0832 -0.6905
  135MOL    H8537873   6.698   1.210   2.403  1.0717 -1.0677  0.7684
  135MOL    C8637874   7.268   1.348   2.704 -0.0597  0.0548  0.2901
  135MOL    C8737875   7.276   1.283   2.827  0.2895 -0.5153  0.6379
  135MOL    C8837876   7.400   1.291   2.901  0.6321  0.3199 -0.3607
  135MOL    C8937877   7.517   1.350   2.849  0.0455 -0.2575  0.0090
  135MOL    C9037878   7.643   1.356   2.923  1.0066 -0.6535  0.2640
  135MOL    C9137879   7.657   1.335   3.051 -0.1923 -0.1916 -0.5279
  135MOL    C9237880   7.504   1.409   2.723  0.0920 -0.5881  0.7534
  135MOL    C9337881   7.384   1.414   2.649 -1.0923  0.7133 -0.2511
  135MOL    H9437882   7.186   1.233   2.860 -1.6093  1.2164 -1.7470
  135MOL    H9537883   7.406   1.255   3.002 -1.0134  1.5896  0.2173
  135MOL    H9637884   7.727   1.382   2.861  1.3453 -1.3182  0.4351
  135MOL    H9737885   7.568   1.317   3.108  0.0302  0.2807 -0.0319
  135MOL    H9837886   7.595   1.452   2.683  0.5271 -0.5691  1.7353
  135MOL    H9937887   7.388   1.461   2.552  2.8238  1.3442  0.1398
  135MOL   C10037888   7.783   1.343   3.132 -0.7934  0.4039  0.4248
  135MOL   C10137889   7.774   1.309   3.271 -0.1643 -0.4634  0.7464
  135MOL   C10237890   7.882   1.327   3.359  0.1620  0.7100  0.0269
  135MOL   C10337891   8.003   1.379   3.306 -0.0700 -0.0193 -0.1545
  135MOL   C10437892   8.115   1.418   3.390 -0.1081 -1.0802 -0.3779
  135MOL   C10537893   8.105   1.418   3.525  0.4081 -0.0936 -0.7437
  135MOL   C10637894   8.014   1.406   3.170 -1.1389  0.3424 -0.3487
  135MOL   C10737895   7.909   1.385   3.080 -0.3655 -0.4937  0.0702
  135MOL   H10837896   7.677   1.286   3.313 -0.5443 -2.8867 -1.3450
  135MOL   H10937897   7.860   1.304   3.462  1.2280 -0.1004  0.0836
  135MOL   H11037898   0.055   1.460   3.338 -0.2574 -0.7460 -0.3535
  135MOL   H11137899   8.017   1.374   3.570  1.0353 -0.9349 -0.3191
  135MOL   H11237900   8.104   1.454   3.136  0.7699 -1.6782  1.6724
  135MOL   H11337901   7.921   1.409   2.976 -0.8250 -1.6111 -0.2478
  135MOL   C11437902   0.057   1.476   3.618  0.0025 -0.0808 -0.5504
  135MOL   C11537903   0.151   1.565   3.565  0.0718  0.2920 -0.2176
  135MOL   C11637904   0.238   1.632   3.653 -0.5929 -0.3353  0.0436
  135MOL   C11737905   0.227   1.615   3.789  0.1365 -0.8091 -0.1147
  135MOL   C11837906   0.326   1.687   3.885 -0.0112 -0.0129  0.4369
  135MOL   C11937907   0.341   1.683   4.027 -0.9316 -0.3163  0.2358
  135MOL   C12037908   0.131   1.528   3.848 -0.2149 -0.2396  0.0891
  135MOL   C12137909   0.052   1.454   3.757 -0.4565 -0.1407 -0.1921
  135MOL   H12237910   0.156   1.578   3.458 -0.7026  2.7420  0.0057
  135MOL   H12337911   0.318   1.695   3.616 -1.5289 -0.2464 -1.9308
  135MOL   H12437912   0.388   1.751   3.824 -1.2658  1.8454  1.0473
  135MOL   H12537913   0.279   1.617   4.086 -2.7651  0.0320 -1.2503
  135MOL   H12637914   0.104   1.512   3.951 -3.2648 -0.8772 -0.7783
  135MOL   H12737915   8.127   1.380   3.793  0.2742 -1.1483 -0.8292
  135MOL   C12837916   0.438   1.766   4.096  0.4808  0.2900 -0.1105
  135MOL   C12937917   0.432   1.776   4.234  0.0895 -0.7160  0.3100
  135MOL   C13037918   0.526   1.856   4.311 -0.7312  0.1898  0.2971
  135MOL   C13137919   0.620   1.936   4.236  0.7570 -0.4688 -0.7824
  135MOL   C13237920   0.719   2.017   4.304 -0.3888 -0.3582 -0.5004
  135MOL   C13337921   0.750   2.022   4.434 -0.1818 -0.0021 -0.1713
  135MOL   C13437922   0.630   1.914   4.099 -0.2690  0.5340  0.4097
  135MOL   C13537923   0.542   1.835   4.028 -0.5190 -0.2270 -0.6541
  135MOL   H13637924   0.357   1.721   4.290  1.3432 -2.0963  0.6727
  135MOL   H13737925   0.517   1.846   4.418  0.0486  1.0592  0.4447
  135MOL   H13837926   0.771   2.091   4.245  0.9134 -1.4960 -0.8169
  135MOL   H13937927   0.702   1.959   4.508 -1.7061  1.8449  0.4351
  135MOL   H14037928   0.712   1.963   4.048  0.4469 -0.1131  0.9165
  135MOL   H14137929   0.554   1.830   3.921  0.6032 -0.5190 -0.5135
  135MOL   C14237930   0.851   2.111   4.499  0.8961  0.4419 -0.4256
  135MOL   C14337931   0.936   2.197   4.424 -0.5019  1.4521 -0.2659
  135MOL   C14437932   1.031   2.276   4.488  0.0688 -0.5391  0.6582
  135MOL   C14537933   1.045   2.266   4.628 -0.6583  0.4721 -0.5291
  135MOL   C14637934   1.149   2.348   4.695 -0.1661 -0.4017 -0.1724
  135MOL   C14737935   1.248   2.409   4.623  0.3134 -0.3398  0.3715
  135MOL   C14837936   0.957   2.186   4.706  0.3058 -1.1050  0.4150
  135MOL   C14937937   0.863   2.100   4.643 -0.0099 -0.3314 -0.1888
  135MOL   H15037938   0.928   2.208   4.317 -3.1713 -0.9556 -0.3437
  135MOL   H15137939   1.086   2.341   4.422 -1.2547 -2.0046 -1.9506
  135MOL   H15237940   1.145   2.347   4.803 -2.3653  0.5232 -0.2116
  135MOL   H15337941   1.255   2.402   4.515  2.5905 -0.2367  0.4727
  135MOL   H15437942   0.964   2.200   4.813 -0.4987 -0.0864  0.3465
  135MOL   H15537943   0.806   2.036   4.709  0.1175 -0.4324 -0.1769
  135MOL   C15637944   1.356   2.484   4.690 -0.0360 -0.4838  0.0360
  135MOL   C15737945   1.338   2.533   4.824 -0.4563 -0.3877  0.4298
  135MOL   C15837946   1.434   2.621   4.871  0.2466  0.2560  0.8721
  135MOL   C15937947   1.564   2.642   4.806 -0.1101 -0.0166 -0.1054
  135MOL   C16037948   1.666   2.713   4.870 -0.1039 -0.4027  0.6534
  135MOL   C16137949   1.793   2.726   4.827  0.3897 -0.3859 -0.3916
  135MOL   C16237950   1.582   2.580   4.681 -0.8693 -0.7406  0.3105
  135MOL   C16337951   1.476   2.516   4.621  0.0713 -0.2040 -0.2216
  135MOL   H16437952   1.241   2.540   4.872 -0.4956 -2.2134  0.6239
  135MOL   H16537953   1.407   2.672   4.962 -1.7570  0.9626 -0.0843
  135MOL   H16637954   1.635   2.751   4.967  1.3669  1.5235  0.4050
  135MOL   H16737955   1.819   2.685   4.731 -0.2375 -1.7095 -0.0067
  135MOL   H16837956   1.662   2.604   4.611 -0.4308 -1.0369  0.7032
  135MOL   H16937957   1.486   2.490   4.516 -1.0669 -4.3018  0.5823
  135MOL   C17037958   1.904   2.787   4.903  0.0197  0.5597  0.0719
  135MOL   C17137959   1.898   2.821   5.039  0.0530 -0.4116 -0.7775
  135MOL   C17237960   2.006   2.879   5.107  0.7787 -0.6458  0.5039
  135MOL   C17337961   2.131   2.892   5.045  0.0708  0.0527  0.2382
  135MOL   C17437962   2.249   2.931   5.125 -0.5559  0.3700 -0.2460
  135MOL   C17537963   2.372   2.934   5.069  0.3870 -0.0092  0.2509
  135MOL   C17637964   2.129   2.874   4.902 -0.4293 -0.3726  0.2908
  135MOL   C17737965   2.018   2.820   4.829 -0.3251 -1.0476  0.2806
  135MOL   H17837966   1.809   2.804   5.098  1.7281  1.9585  2.5305
  135MOL   H17937967   1.993   2.916   5.208 -1.2755 -3.7571  1.4574
  135MOL   H18037968   2.227   2.955   5.228  1.7194  1.8864 -0.0582
  135MOL   H18137969   2.380   2.924   4.962  1.5638 -1.1126  0.4316
  135MOL   H18237970   2.224   2.890   4.854 -1.7700  2.3716 -1.6028
  135MOL   H18337971   2.016   2.806   4.722 -2.7175 -1.2792  0.3393
  135MOL   C18437972   2.498   2.984   5.131  0.1384 -0.1479  0.5679
  135MOL   C18537973   2.498   3.026   5.268  0.4493 -0.4061  0.4248
  135MOL   C18637974   2.615   3.064   5.338  0.0846  0.4101  0.3070
  135MOL   C18737975   2.740   3.062   5.268  0.2135 -0.2908  0.1568
  135MOL   C18837976   2.854   3.115   5.336 -0.6001 -0.1510  0.1744
  135MOL   C18937977   2.964   3.164   5.273 -0.3066 -0.2625 -0.5885
  135MOL   C19037978   2.739   3.023   5.129  0.3378  0.2434 -0.1133
  135MOL   C19137979   2.617   2.986   5.065 -0.0218  0.0396  0.0775
  135MOL   H19237980   2.409   3.032   5.329  1.7635 -1.2940  2.4614
  135MOL   H19337981   2.602   3.102   5.438  1.7003  0.3097  0.5722
  135MOL   H19437982   2.843   3.121   5.444  0.4883 -0.4875  0.3084
  135MOL   H19537983   2.978   3.145   5.167  0.4304  0.1723 -0.5710
  135MOL   H19637984   2.834   3.021   5.078  0.1532  0.8621 -0.4844
  135MOL   H19737985   2.640   2.956   4.964 -0.1464 -0.7587  0.2829
  135MOL   C19837986   3.086   3.232   5.329 -0.5659 -0.1385  0.1495
  135MOL   C19937987   3.097   3.277   5.464 -0.0253 -0.4889  0.2877
  135MOL   C20037988   3.217   3.334   5.508 -0.1029  0.0463 -0.6249
  135MOL   C20137989   3.329   3.364   5.428  0.1889  0.2518  0.2470
  135MOL   C20237990   3.446   3.424   5.488 -0.0054  0.1711 -0.3750
  135MOL   C20337991   3.571   3.439   5.437 -0.9254  0.3441 -0.0764
  135MOL   C20437992   3.319   3.314   5.290 -0.0675  0.3153  1.1932
  135MOL   C20537993   3.202   3.250   5.247  0.2351 -0.9789 -0.3088
  135MOL   H20637994   3.025   3.266   5.543  0.1375 -0.5265  0.4312
  135MOL   H20737995   3.213   3.358   5.613  1.6905  2.6770 -1.1144
  135MOL   H20837996   3.431   3.458   5.589  0.3131  0.5860 -0.4654
  135MOL   H20937997   3.590   3.405   5.336 -0.8195  1.3162 -0.3891
  135MOL   H21037998   3.400   3.327   5.220 -0.7965  0.7878  0.4125
  135MOL   H21137999   3.205   3.218   5.144 -0.2287  0.2412 -0.7089
  135MOL   C21238000   3.693   3.496   5.506  0.6212  0.0681  0.3659
  135MOL   C21338001   3.693   3.560   5.632  0.3609 -0.2268  0.4305
  135MOL   C21438002   3.812   3.607   5.685  0.6267  0.2650  0.0102
  135MOL   C21538003   3.934   3.589   5.618 -0.3724  0.5003 -0.3676
  135MOL   C21638004   4.053   3.648   5.677 -0.1795  0.0438 -0.5547
  135MOL   C21738005   4.173   3.639   5.623 -0.5259  1.1163  0.1064
  135MOL   C21838006   3.934   3.534   5.484  0.4859 -0.0397  0.2963
  135MOL   C21938007   3.808   3.482   5.431 -0.4293  0.4742  0.4855
  135MOL   H22038008   3.603   3.555   5.692  0.9828  0.4437  1.4326
  135MOL   H22138009   3.808   3.644   5.787  2.2598 -2.8167  1.2669
  135MOL   H22238010   4.047   3.703   5.769 -0.6264 -1.1328  0.1209
  135MOL   H22338011   4.187   3.589   5.528 -0.2882  2.5039 -0.5936
  135MOL   H22438012   4.018   3.526   5.417  1.3581 -0.5043  1.4237
  135MOL   H22538013   3.807   3.438   5.332 -0.9669  2.2999 -0.3524
  135MOL   C22638014   4.291   3.697   5.688 -0.3163  0.9279  0.4395
  135MOL   C22738015   4.290   3.783   5.792  0.1961 -0.1286  0.0181
  135MOL   C22838016   4.411   3.840   5.843  0.2975 -0.0358  0.4939
  135MOL   C22938017   4.529   3.824   5.772  0.5139 -0.8282 -0.7118
  135MOL   C23038018   4.645   3.900   5.816  0.2664 -0.5511 -0.3529
  135MOL   C23138019   4.766   3.877   5.776  0.4332  0.2449 -0.2125
  135MOL   C23238020   4.534   3.724   5.671 -0.0984  0.1334 -0.1449
  135MOL   C23338021   4.417   3.659   5.628 -0.0568  0.3474 -0.2114
  135MOL   H23438022   4.198   3.809   5.844  1.6109  0.1448  2.4899
  135MOL   H23538023   4.406   3.896   5.935 -1.3623 -0.5207  0.7077
  135MOL   H23638024   4.631   3.979   5.888 -0.4250 -0.1462 -0.9312
  135MOL   H23738025   4.786   3.798   5.706 -0.3252  0.3153 -0.5104
  135MOL   H23838026   4.624   3.697   5.617  0.5819  0.2715  0.8872
  135MOL   H23938027   4.415   3.580   5.555 -0.5653 -0.5640  0.7643
  135MOL   C24038028   4.888   3.948   5.832  0.5710 -0.3676 -0.1336
  135MOL   C24138029   4.891   4.047   5.927 -0.5256 -0.5038  0.4451
  135MOL   C24238030   5.007   4.118   5.968 -0.3609  0.1334 -0.1861
  135MOL   C24338031   5.124   4.091   5.897 -0.9349  0.0551 -0.0489
  135MOL   C24438032   5.241   4.175   5.937 -0.6730 -0.3127 -0.6296
  135MOL   C24538033   5.369   4.148   5.899  0.0437  0.0710  0.2944
  135MOL   C24638034   5.133   3.989   5.797 -0.6568 -0.8853 -0.2545
  135MOL   C24738035   5.015   3.918   5.770 -0.3295 -0.1201  0.5594
  135MOL   H24838036   4.801   4.072   5.982  1.3097  2.6449  2.1371
  135MOL   H24938037   5.003   4.199   6.039  3.2952  1.0915 -0.9289
  135MOL   H25038038   5.229   4.264   5.996  0.1562 -0.7235  0.1716
  135MOL   H25138039   5.388   4.063   5.834  1.1645 -0.3843  1.2071
  135MOL   H25238040   5.222   3.972   5.739 -0.4705 -0.8182  0.0123
  135MOL   H25338041   5.018   3.855   5.682  0.6348  2.4328 -1.2894
  135MOL   C25438042   5.492   4.226   5.925 -0.0453  0.5301 -0.0870
  135MOL   C25538043   5.513   4.317   6.033  0.1494 -0.2629 -0.5524
  135MOL   C25638044   5.644   4.369   6.049 -0.5933  0.1798  0.1539
  135MOL   C25738045   5.750   4.347   5.958  0.2621 -0.2831  0.0349
  135MOL   C25838046   5.886   4.401   5.986  0.7483 -0.3344 -0.0763
  135MOL   C25938047   5.957   4.407   6.098  0.8717  0.6530 -0.1270
  135MOL   C26038048   5.726   4.266   5.849  0.6981 -0.1716  0.1542
  135MOL   C26138049   5.599   4.200   5.841  1.1255  0.6205  0.0292
  135MOL   H26238050   5.438   4.348   6.103 -0.4777 -3.2522  0.1622
  135MOL   H26338051   5.663   4.424   6.140  1.4273 -1.0333  0.4854
  135MOL   H26438052   5.939   4.442   5.902  1.1543  0.6109  0.6343
  135MOL   H26538053   6.054   4.455   6.091  1.0071  0.3068 -0.6116
  135MOL   H26638054   5.807   4.249   5.780  0.4404  2.6301 -0.9395
  135MOL   H26738055   5.589   4.126   5.762 -0.3388 -0.1061  0.8539
  135MOL   C26838056   5.934   4.359   6.225  0.6037 -0.4599  0.9483
  135MOL   C26938057   5.977   4.445   6.331 -0.4488 -0.8906 -0.1152
  135MOL   C27038058   5.962   4.398   6.464  0.5712  0.1250 -0.1006
  135MOL   C27138059   5.902   4.274   6.496 -0.0894  0.1911  0.1968
  135MOL   C27238060   5.880   4.222   6.632 -0.0448  0.2336  0.4248
  135MOL   C27338061   5.890   4.296   6.746  0.7535 -0.0149 -0.8624
  135MOL   C27438062   5.859   4.194   6.391 -0.1852  0.3320  0.7329
  135MOL   C27538063   5.871   4.239   6.259 -0.8145  0.4940  1.1809
  135MOL   H27638064   6.016   4.545   6.318 -1.4322 -0.3503  0.9768
  135MOL   H27738065   6.011   4.457   6.540 -1.2772  0.5620  0.7893
  135MOL   H27838066   5.853   4.117   6.630 -1.4211  0.6087 -1.7131
  135MOL   H27938067   5.901   4.403   6.733  0.8207 -0.2279 -2.7796
  135MOL   H28038068   5.799   4.105   6.401  1.2817 -0.5677  1.6936
  135MOL   H28138069   5.828   4.195   6.170 -0.6584  0.1612  1.2685
  135MOL   H28238070   5.879   4.253   6.844 -1.2614  1.1730 -0.5417
  136MOL     C138071   3.069   5.355   0.376 -0.1719  0.1086 -0.4552
  136MOL     C238072   2.939   5.323   0.421  0.1292 -0.1154  0.6607
  136MOL     C338073   2.835   5.422   0.413 -0.1951  0.5438 -0.6712
  136MOL     C438074   2.878   5.556   0.374  0.2430 -0.3733  0.0625
  136MOL     C538075   2.781   5.659   0.346  0.2339 -0.0185  0.3367
  136MOL     C638076   2.647   5.652   0.378  0.0088 -0.7803  0.1378
  136MOL     C738077   3.008   5.586   0.331  0.3004 -0.1440  0.1697
  136MOL     C838078   3.105   5.486   0.329 -0.0311  0.2158 -0.7673
  136MOL     H938079   2.914   5.220   0.442 -1.5905  0.5101  1.8849
  136MOL    H1038080   2.731   5.394   0.426 -0.8148  2.6945 -0.8044
  136MOL    H1138081   2.820   5.743   0.292  1.5488 -2.9539 -3.5143
  136MOL    H1238082   2.612   5.574   0.444  0.5785  1.4665  3.1963
  136MOL    H1338083   3.034   5.684   0.293  1.2078 -0.4652 -0.0496
  136MOL    H1438084   3.207   5.510   0.301  0.6440  0.7120  1.9391
  136MOL    H1538085   3.151   5.284   0.375  0.5696  0.9506 -2.3057
  136MOL    C1638086   2.545   5.742   0.332  0.9449  0.3183  0.1119
  136MOL    C1738087   2.573   5.845   0.240 -0.3534  0.1375  0.1354
  136MOL    C1838088   2.475   5.942   0.210 -0.6067  0.2905 -0.2713
  136MOL    C1938089   2.343   5.939   0.264  1.0681 -0.1458  0.3567
  136MOL    C2038090   2.248   6.047   0.216  0.4511 -0.1355 -0.7980
  136MOL    C2138091   2.131   6.087   0.273  0.1266  0.5940 -0.2402
  136MOL    C2238092   2.314   5.838   0.356  0.1361 -0.1131 -0.1509
  136MOL    C2338093   2.414   5.742   0.394  0.2050  0.0479  0.7639
  136MOL    H2438094   2.669   5.865   0.196 -0.3773  0.1595  0.0925
  136MOL    H2538095   2.515   6.022   0.148 -0.1863 -0.5202 -1.0537
  136MOL    H2638096   2.276   6.098   0.125  0.0605 -0.7648 -1.2711
  136MOL    H2738097   2.107   6.046   0.370 -0.2738 -2.2444 -1.4843
  136MOL    H2838098   2.219   5.834   0.407  0.7111  1.1026  1.0817
  136MOL    H2938099   2.385   5.674   0.473 -0.1326  0.9313  1.4053
  136MOL    C3038100   2.029   6.175   0.215  0.1228  0.3433  0.1390
  136MOL    C3138101   2.035   6.224   0.081 -0.6556 -0.1877 -0.6277
  136MOL    C3238102   1.934   6.307   0.036 -0.2700 -0.3046 -0.2729
  136MOL    C3338103   1.826   6.349   0.120 -0.8915 -0.5429 -0.3337
  136MOL    C3438104   1.714   6.438   0.086 -0.3590 -0.0190  0.6647
  136MOL    C3538105   1.674   6.473   8.104 -0.2491 -0.1173 -0.4144
  136MOL    C3638106   1.817   6.290   0.244  0.2093 -0.4345 -0.8197
  136MOL    C3738107   1.921   6.214   0.298  0.4737 -0.0290 -0.0392
  136MOL    H3838108   2.117   6.201   0.014 -0.2028  2.3668 -0.9944
  136MOL    H3938109   1.942   6.347   8.080  0.5234 -0.3991 -0.2521
  136MOL    H4038110   1.659   6.467   0.174  0.5145 -0.0345  1.2115
  136MOL    H4138111   1.730   6.423   8.026 -1.2773 -1.2436 -0.4344
  136MOL    H4238112   1.734   6.314   0.309  1.8444 -1.1802  1.6405
  136MOL    H4338113   1.919   6.191   0.404  0.8785 -0.6864 -0.1677
  136MOL    C4438114   1.571   6.572   8.070  0.1078  0.6781 -0.0137
  136MOL    C4538115   1.522   6.664   0.016  0.8221  0.0710 -0.0452
  136MOL    C4638116   1.420   6.751   8.118 -0.0196 -0.1032  0.0297
  136MOL    C4738117   1.357   6.736   7.992 -0.1516  0.0970  0.0617
  136MOL    C4838118   1.252   6.836   7.966  0.3575  0.3734 -0.5733
  136MOL    C4938119   1.176   6.845   7.860 -1.0838  0.6866 -0.0182
  136MOL    C5038120   1.407   6.634   7.905 -0.0461 -0.0613 -0.0019
  136MOL    C5138121   1.517   6.561   7.940  0.2574  0.2409 -0.1214
  136MOL    H5238122   1.558   6.669   0.118  0.2378 -2.6850  0.3215
  136MOL    H5338123   1.378   6.824   0.042  0.6129 -2.0126  2.5134
  136MOL    H5438124   1.227   6.906   8.044 -1.5016 -0.2341 -0.5866
  136MOL    H5538125   1.183   6.773   7.779  2.5748  1.0265 -0.1087
  136MOL    H5638126   1.359   6.612   7.811 -0.0244  1.8629 -0.4988
  136MOL    H5738127   1.558   6.494   7.867  0.1634 -0.2465  0.2755
  136MOL    C5838128   1.073   6.949   7.843  0.1316  0.4583 -0.2018
  136MOL    C5938129   1.083   7.066   7.922 -0.1210 -0.7525 -0.2593
  136MOL    C6038130   0.982   7.156   7.921  0.4671 -0.0072 -0.7595
  136MOL    C6138131   0.872   7.141   7.839 -0.4434 -0.2860 -0.3180
  136MOL    C6238132   0.754   7.238   7.832  0.3888 -0.1046 -0.4971
  136MOL    C6338133   0.747   7.352   7.904  0.6739 -0.5329  0.8838
  136MOL    C6438134   0.870   7.029   7.759  0.5712  0.2979 -0.2444
  136MOL    C6538135   0.961   6.925   7.762 -0.5081  0.2023 -0.3951
  136MOL    H6638136   1.175   7.094   7.973  1.4039  1.6962 -4.1217
  136MOL    H6738137   0.984   7.248   7.977 -0.0232 -0.5718  0.1892
  136MOL    H6838138   0.684   7.213   7.753 -0.3194 -0.5219  0.2639
  136MOL    H6938139   0.819   7.377   7.981 -0.0171  0.9403  1.0609
  136MOL    H7038140   0.785   7.015   7.694 -0.1407 -1.0658  0.9526
  136MOL    H7138141   0.951   6.833   7.705 -0.5819  0.0990 -0.2131
  136MOL    C7238142   0.654   7.459   7.882 -0.4092  0.4409  0.2298
  136MOL    C7338143   0.554   7.444   7.789  0.1454  0.2925 -0.0488
  136MOL    C7438144   0.473   7.552   7.766 -0.5527 -0.3960 -0.3119
  136MOL    C7538145   0.493   7.680   7.831 -0.2179  0.8877  0.4242
  136MOL    C7638146   0.416   7.795   7.780  0.2067  1.0268 -0.6327
  136MOL    C7738147   0.285   7.785   7.750 -0.0558  0.6148 -0.0479
  136MOL    C7838148   0.583   7.690   7.941 -0.6163  0.2770 -0.2727
  136MOL    C7938149   0.666   7.576   7.964  0.4840 -0.2762  0.3401
  136MOL    H8038150   0.539   7.355   7.730 -0.5996  0.4954 -0.1717
  136MOL    H8138151   0.397   7.545   7.688 -1.4888 -0.2337  0.5723
  136MOL    H8238152   0.474   7.883   7.754  1.3123  0.0209 -1.6266
  136MOL    H8338153   0.241   7.687   7.765  0.6886 -0.0702 -2.1102
  136MOL    H8438154   0.602   7.786   7.987 -0.7530 -0.2285  0.8386
  136MOL    H8538155   0.748   7.579   8.034  0.8060  3.8116 -0.1253
  136MOL    C8638156   0.193   7.888   7.687  0.6191 -0.7598  0.1254
  136MOL    C8738157   0.243   8.016   7.655  0.4412 -0.3399  0.2154
  136MOL    C8838158   0.158   8.113   7.588 -0.3734  0.1982  0.1224
  136MOL    C8938159   0.029   8.072   7.548 -0.3890  0.0966 -0.3955
  136MOL    C9038160   8.091   0.003   7.455  0.1070 -0.4663 -0.6217
  136MOL    C9138161   8.144   0.101   7.379  0.5001  0.7507  0.0586
  136MOL    C9238162   8.119   7.946   7.588 -0.2150  0.5524  0.1122
  136MOL    C9338163   0.058   7.851   7.655 -0.2436 -0.0437 -0.1483
  136MOL    H9438164   0.345   8.049   7.670 -0.0088  2.3693 -2.0809
  136MOL    H9538165   0.196   0.069   7.576  1.6014 -0.5912 -0.4426
  136MOL    H9638166   7.985   8.125   7.462  0.2008 -0.7834 -0.1944
  136MOL    H9738167   0.104   0.129   7.385  0.4177  1.0536  0.0741
  136MOL    H9838168   8.020   7.914   7.557 -0.1898 -1.6557  2.1931
  136MOL    H9938169   0.018   7.753   7.676 -2.3420  0.6203 -0.9319
  136MOL   C10038170   8.072   0.174   7.279 -0.0672  0.0785  0.2445
  136MOL   C10138171   7.933   0.163   7.258  0.6702 -0.7440  0.2112
  136MOL   C10238172   7.876   0.224   7.147  0.0822 -0.0722  0.7766
  136MOL   C10338173   7.957   0.303   7.062 -0.8047  0.4782 -0.4417
  136MOL   C10438174   7.891   0.354   6.941  0.0234 -0.7009  0.0109
  136MOL   C10538175   7.953   0.389   6.825  0.0044  0.7781 -0.5834
  136MOL   C10638176   8.093   0.330   7.087 -0.2200  0.6900 -0.2722
  136MOL   C10738177   0.001   0.255   7.195 -0.0002  0.3565 -0.1386
  136MOL   H10838178   7.866   0.109   7.323 -0.0283  2.3945  2.2170
  136MOL   H10938179   7.770   0.216   7.125  0.4070 -0.6933 -0.6128
  136MOL   H11038180   7.784   0.366   6.942 -0.1064 -1.7739  1.1174
  136MOL   H11138181   8.060   0.384   6.817  0.1038  2.8432 -0.8760
  136MOL   H11238182   0.017   0.387   7.025  2.5900 -0.0395  2.0393
  136MOL   H11338183   0.109   0.260   7.203 -0.0146 -0.7954  0.8500
  136MOL   C11438184   7.902   0.432   6.695 -0.4640  0.3081 -0.1532
  136MOL   C11538185   7.990   0.441   6.581 -0.3207 -0.3364 -0.2174
  136MOL   C11638186   7.934   0.480   6.453  0.7784  0.2709  0.5646
  136MOL   C11738187   7.798   0.501   6.442 -0.0251  0.0972  0.1676
  136MOL   C11838188   7.729   0.530   6.317  0.8608  0.1759  1.0368
  136MOL   C11938189   7.795   0.535   6.197 -0.0302  0.3750 -0.0177
  136MOL   C12038190   7.716   0.498   6.557  0.4824 -0.4490  1.0237
  136MOL   C12138191   7.763   0.461   6.681  0.2449 -0.5292 -0.3485
  136MOL   H12238192   8.096   0.431   6.598 -0.9562 -2.3659  3.0717
  136MOL   H12338193   7.998   0.499   6.368  1.8823 -1.3270  1.0223
  136MOL   H12438194   7.622   0.549   6.317  0.8239  0.7817 -4.4785
  136MOL   H12538195   7.902   0.517   6.195 -0.1821 -0.4400 -1.2204
  136MOL   H12638196   7.610   0.519   6.551  0.5994 -0.5616 -2.8469
  136MOL   H12738197   7.699   0.466   6.767  0.3552 -2.6332 -0.1301
  136MOL   C12838198   7.742   0.574   6.067 -0.1577  0.3662 -0.3323
  136MOL   C12938199   7.603   0.617   6.047 -0.8408 -0.2865 -0.1642
  136MOL   C13038200   7.550   0.648   5.922  0.0739  0.0237  0.6528
  136MOL   C13138201   7.641   0.650   5.819 -0.3473  0.6389  0.1502
  136MOL   C13238202   7.581   0.688   5.688 -0.0195  0.1135  0.0497
  136MOL   C13338203   7.649   0.702   5.573 -0.0316 -0.4101 -1.0756
  136MOL   C13438204   7.775   0.607   5.837 -0.2012 -1.0871 -0.2695
  136MOL   C13538205   7.825   0.569   5.957  0.4393 -0.4238 -0.0605
  136MOL   H13638206   7.538   0.608   6.133 -1.8352 -0.0594 -0.8795
  136MOL   H13738207   7.444   0.662   5.908  0.5946  0.3164 -3.4688
  136MOL   H13838208   7.475   0.703   5.689 -0.0456  0.0009 -0.8401
  136MOL   H13938209   7.756   0.688   5.567 -0.1510 -1.4268 -0.9039
  136MOL   H14038210   7.839   0.595   5.751 -2.0738  0.0366 -1.8467
  136MOL   H14138211   7.925   0.529   5.949  0.3407 -1.0048  1.4916
  136MOL   C14238212   7.585   0.727   5.445 -0.1545  0.0202  0.1091
  136MOL   C14338213   7.443   0.717   5.427 -0.0290  0.6106  0.4566
  136MOL   C14438214   7.381   0.752   5.307 -0.1503  0.6679  0.6272
  136MOL   C14538215   7.461   0.791   5.203 -0.6086 -0.1392  0.6746
  136MOL   C14638216   7.410   0.825   5.065 -0.3965  0.4078  0.1319
  136MOL   C14738217   7.285   0.874   5.047  0.5192 -0.1435 -0.3019
  136MOL   C14838218   7.602   0.805   5.217  0.3020 -0.2442  0.0343
  136MOL   C14938219   7.666   0.771   5.337 -0.7024  0.1775 -0.6065
  136MOL   H15038220   7.372   0.693   5.506  1.3996 -3.5836  0.6148
  136MOL   H15138221   7.274   0.740   5.304  0.3005 -3.5188 -0.6573
  136MOL   H15238222   7.471   0.814   4.977 -0.8363  0.9756 -0.2503
  136MOL   H15338223   7.225   0.880   5.137 -1.5527 -0.4052 -1.6343
  136MOL   H15438224   7.662   0.847   5.138 -0.1636 -0.3692 -0.3929
  136MOL   H15538225   7.773   0.781   5.348 -0.5508 -2.2657  0.3706
  136MOL   C15638226   7.216   0.913   4.923 -0.0454 -1.0132 -0.4069
  136MOL   C15738227   7.257   0.872   4.794  0.2523 -0.4226  0.0489
  136MOL   C15838228   7.183   0.905   4.683 -0.3050 -0.1938 -0.2460
  136MOL   C15938229   7.061   0.979   4.699 -0.6270  0.1695 -0.0553
  136MOL   C16038230   6.970   1.010   4.588 -0.1817  0.0531 -0.5285
  136MOL   C16138231   6.977   0.962   4.461 -0.2501  0.0123  0.0530
  136MOL   C16238232   7.022   1.027   4.825 -0.0387  0.2162  0.0211
  136MOL   C16338233   7.100   0.992   4.937  0.4253  0.0638  0.2793
  136MOL   H16438234   7.333   0.795   4.788 -0.7033 -1.3064 -0.9886
  136MOL   H16538235   7.210   0.867   4.585  3.6866 -0.6613  0.9352
  136MOL   H16638236   6.897   1.087   4.608  2.2661  2.5856 -1.0248
  136MOL   H16738237   7.064   0.900   4.446 -0.3587 -0.5841  1.7700
  136MOL   H16838238   6.928   1.079   4.831 -1.7791 -2.9166  1.2761
  136MOL   H16938239   7.074   1.028   5.035  3.6788  1.2668  0.7529
  136MOL   C17038240   6.888   0.993   4.351 -0.2064  0.2517  0.1925
  136MOL   C17138241   6.775   1.068   4.374  0.0439  0.2736  0.3461
  136MOL   C17238242   6.688   1.108   4.264  0.3850  0.1915  0.0006
  136MOL   C17338243   6.709   1.073   4.135  0.9741 -0.0366  0.0017
  136MOL   C17438244   6.608   1.113   4.029  0.1429  0.1856  0.0370
  136MOL   C17538245   6.585   1.051   3.911 -0.6964 -0.1837  0.8463
  136MOL   C17638246   6.823   0.991   4.110 -0.1652 -0.5225  0.0090
  136MOL   C17738247   6.915   0.955   4.217 -0.2532  0.2323  0.1927
  136MOL   H17838248   6.733   1.088   4.472  0.9410  0.7645  0.6347
  136MOL   H17938249   6.601   1.170   4.282  1.4891  1.3483  1.5022
  136MOL   H18038250   6.552   1.201   4.057  0.0031  0.8758 -2.2263
  136MOL   H18138251   6.651   0.971   3.883 -2.3429 -1.7033  1.2553
  136MOL   H18238252   6.845   0.956   4.010 -1.1179 -0.5981 -0.1882
  136MOL   H18338253   7.003   0.898   4.191 -0.8110 -1.0006  0.9332
  136MOL   C18438254   6.481   1.082   3.810  0.6206  0.1413 -0.1224
  136MOL   C18538255   6.453   0.993   3.703 -0.3653 -0.5945  0.2413
  136MOL   C18638256   6.350   1.020   3.608  0.1377 -0.4082 -0.4345
  136MOL   C18738257   6.275   1.135   3.622 -0.4675  0.1058 -0.3797
  136MOL   C18838258   6.159   1.171   3.540 -0.6011 -0.8383 -0.3616
  136MOL   C18938259   6.068   1.084   3.491  0.3231 -0.2788  0.3794
  136MOL   C19038260   6.311   1.231   3.721  0.1031  1.0769 -0.4181
  136MOL   C19138261   6.410   1.204   3.817  0.3247  0.7621  0.0968
  136MOL   H19238262   6.511   0.903   3.693  0.5874  0.0597 -0.1800
  136MOL   H19338263   6.311   0.947   3.538 -1.8089 -0.3685  0.5817
  136MOL   H19438264   6.139   1.276   3.530  1.4128 -0.2412  1.4853
  136MOL   H19538265   6.080   0.979   3.516 -0.7994 -0.4916  0.0438
  136MOL   H19638266   6.239   1.311   3.727 -0.3282  0.6146  0.5953
  136MOL   H19738267   6.432   1.278   3.893 -2.1191 -0.5770  2.1793
  136MOL   C19838268   5.944   1.107   3.408  0.3413  0.1610 -0.5254
  136MOL   C19938269   5.882   1.237   3.390  0.0031  0.2756 -0.4189
  136MOL   C20038270   5.763   1.255   3.319  0.3126  0.3506  0.3650
  136MOL   C20138271   5.699   1.147   3.264  0.7489  0.4419  0.0993
  136MOL   C20238272   5.570   1.168   3.204 -0.4501 -0.9356  0.8482
  136MOL   C20338273   5.497   1.077   3.135 -0.2484 -0.5807 -0.1910
  136MOL   C20438274   5.756   1.018   3.276  0.1478  0.8157  0.2068
  136MOL   C20538275   5.875   0.999   3.350  0.7829 -0.2484  0.0248
  136MOL   H20638276   5.925   1.326   3.432 -0.6176  0.9045 -1.1068
  136MOL   H20738277   5.713   1.351   3.319 -1.0642 -0.3578 -0.9688
  136MOL   H20838278   5.529   1.268   3.206  0.6539 -0.4547  0.2410
  136MOL   H20938279   5.532   0.976   3.126  1.4315 -0.2841  2.6831
  136MOL   H21038280   5.710   0.934   3.227  1.8416  1.0376 -1.7976
  136MOL   H21138281   5.922   0.903   3.365  1.2453 -0.2202 -1.1880
  136MOL   C21238282   5.373   1.111   3.055  0.4938  0.6405 -0.3587
  136MOL   C21338283   5.311   1.241   3.044  0.1906  0.4410  0.1721
  136MOL   C21438284   5.198   1.260   2.964 -0.8456 -0.6193 -0.7354
  136MOL   C21538285   5.152   1.158   2.879 -0.0584  0.2136  0.8256
  136MOL   C21638286   5.041   1.192   2.791 -0.4049  0.3201  0.0255
  136MOL   C21738287   4.978   1.103   2.711  0.8172 -0.1623  0.5419
  136MOL   C21838288   5.216   1.028   2.880 -0.0138 -0.2855  0.7606
  136MOL   C21938289   5.316   1.003   2.975  0.3758 -0.2143  0.1739
  136MOL   H22038290   5.338   1.321   3.111 -2.5698  1.6949 -0.1664
  136MOL   H22138291   5.159   1.361   2.962 -1.0627 -0.6590  0.7986
  136MOL   H22238292   5.011   1.295   2.793 -1.4524  0.0140  0.3236
  136MOL   H22338293   5.002   0.998   2.719  2.1686  0.1354  0.4648
  136MOL   H22438294   5.186   0.949   2.813  0.8277 -2.0279  2.3936
  136MOL   H22538295   5.376   0.913   2.972  1.0373  0.2337 -0.3220
  136MOL   C22638296   4.878   1.139   2.609  0.6857  0.2137  0.3233
  136MOL   C22738297   4.782   1.052   2.564  0.5895 -0.1150  0.0233
  136MOL   C22838298   4.681   1.093   2.474 -0.3398  0.8499 -0.0365
  136MOL   C22938299   4.674   1.225   2.432 -0.1476  0.3071 -0.5134
  136MOL   C23038300   4.573   1.270   2.335 -0.1460  0.0465 -0.7274
  136MOL   C23138301   4.494   1.184   2.268 -0.4762  0.4866  0.3136
  136MOL   C23238302   4.760   1.323   2.486 -0.4194 -0.5203  0.3597
  136MOL   C23338303   4.862   1.275   2.568  0.0372 -0.1185 -0.0697
  136MOL   H23438304   4.810   0.950   2.584  0.1279 -0.1988  0.2315
  136MOL   H23538305   4.615   1.013   2.445 -0.7915  1.4356 -0.6309
  136MOL   H23638306   4.574   1.376   2.315  2.6323 -0.0063 -0.9797
  136MOL   H23738307   4.502   1.077   2.284  3.2550  0.7508  0.7184
  136MOL   H23838308   4.756   1.427   2.456  0.7925 -0.2307  1.1556
  136MOL   H23938309   4.941   1.341   2.603 -0.3799 -0.6092  1.8068
  136MOL   C24038310   4.398   1.221   2.166 -0.1354  0.0409 -0.2841
  136MOL   C24138311   4.374   1.351   2.118 -0.0264  0.1660 -0.0792
  136MOL   C24238312   4.278   1.383   2.020  0.2922  0.1134  0.0145
  136MOL   C24338313   4.193   1.274   1.973 -0.2611 -0.2398  1.1409
  136MOL   C24438314   4.088   1.308   1.873  0.3260 -0.2210  0.4647
  136MOL   C24538315   4.061   1.225   1.769 -0.0538  0.1475  0.2884
  136MOL   C24638316   4.220   1.143   2.025 -0.3372  0.1159 -0.0216
  136MOL   C24738317   4.316   1.121   2.120 -0.0689 -0.2099  0.9803
  136MOL   H24838318   4.442   1.429   2.146 -1.9807  1.5442  0.9526
  136MOL   H24938319   4.261   1.484   1.986 -0.1666  0.2957  0.7750
  136MOL   H25038320   4.029   1.396   1.892  0.3293 -0.5454  2.0589
  136MOL   H25138321   4.123   1.139   1.747  2.9319  2.2728  0.0104
  136MOL   H25238322   4.161   1.061   1.986 -1.0400 -1.0220  3.2580
  136MOL   H25338323   4.328   1.022   2.162  0.6002 -1.1674 -1.4029
  136MOL   C25438324   3.950   1.241   1.678  0.3446  0.1008 -0.0857
  136MOL   C25538325   3.831   1.308   1.714  0.5204 -0.1960  0.2310
  136MOL   C25638326   3.734   1.340   1.619 -0.2869 -0.9207  0.0131
  136MOL   C25738327   3.743   1.280   1.490  0.2058 -0.0536  0.3988
  136MOL   C25838328   3.630   1.286   1.401 -0.3780  0.9942  0.1114
  136MOL   C25938329   3.617   1.376   1.301 -0.6821 -0.2779 -0.6212
  136MOL   C26038330   3.856   1.200   1.457 -0.5907 -0.7633  0.2304
  136MOL   C26138331   3.968   1.194   1.545  0.0021  0.0498 -0.0508
  136MOL   H26238332   3.821   1.348   1.813 -2.9676 -0.5034  0.0598
  136MOL   H26338333   3.661   1.415   1.644 -1.1421 -1.2339 -1.4831
  136MOL   H26438334   3.553   1.213   1.419  2.5660 -1.6235  2.6369
  136MOL   H26538335   3.530   1.358   1.240 -1.3609 -4.0516  1.3097
  136MOL   H26638336   3.884   1.154   1.363 -0.5373  1.5925 -0.9426
  136MOL   H26738337   4.052   1.133   1.515  0.4153  1.1827 -1.2717
  136MOL   C26838338   3.710   1.487   1.255 -0.4808  0.2367 -0.5706
  136MOL   C26938339   3.679   1.551   1.133  0.3785  0.1679 -0.4455
  136MOL   C27038340   3.761   1.650   1.080 -0.3938 -0.0126  0.4789
  136MOL   C27138341   3.875   1.700   1.147  0.1151  0.0632  0.0503
  136MOL   C27238342   3.968   1.788   1.080  0.0609  0.6035 -0.0084
  136MOL   C27338343   4.107   1.766   1.077 -0.3000 -0.0609 -0.7908
  136MOL   C27438344   3.904   1.632   1.276  0.8705 -1.0107  0.3207
  136MOL   C27538345   3.827   1.529   1.320  0.3560 -0.5088  0.1378
  136MOL   H27638346   3.593   1.517   1.078 -0.2911  0.0117  0.6678
  136MOL   H27738347   3.745   1.687   0.980 -0.7354  2.6198  1.4728
  136MOL   H27838348   3.923   1.874   1.034  1.7633  1.9642  0.8361
  136MOL   H27938349   4.165   1.688   1.122  1.2863  0.9298 -1.0937
  136MOL   H28038350   3.983   1.672   1.338  1.9188  0.0976 -1.6722
  136MOL   H28138351   3.837   1.490   1.421  1.8159 -0.1576  0.1369
  136MOL   H28238352   4.164   1.842   1.026 -0.4422  2.7350  2.9496
  137MOL     C138353   3.649   3.328   4.120 -1.2178  0.2839  0.0217
  137MOL     C238354   3.520   3.325   4.177  0.2368 -0.2403 -0.6327
  137MOL     C338355   3.403   3.310   4.102 -0.5774 -0.1712  0.1839
  137MOL     C438356   3.414   3.281   3.968  0.6077  0.4833  0.6276
  137MOL     C538357   3.297   3.254   3.879 -0.5518  0.3943  0.1633
  137MOL     C638358   3.177   3.212   3.928 -0.5028  0.4094  0.1956
  137MOL     C738359   3.538   3.271   3.906 -0.2223 -0.2770  0.1137
  137MOL     C838360   3.656   3.303   3.980  0.0250  0.5958  1.0647
  137MOL     H938361   3.524   3.348   4.282  0.6591  0.9200 -0.8926
  137MOL    H1038362   3.307   3.314   4.151 -0.4405 -0.7523  0.5052
  137MOL    H1138363   3.314   3.268   3.773 -0.0626  0.3622  0.2390
  137MOL    H1238364   3.155   3.197   4.033 -0.6207 -2.1630 -0.1833
  137MOL    H1338365   3.546   3.244   3.802 -0.4385 -0.3927  0.1259
  137MOL    H1438366   3.752   3.287   3.934  0.1383 -1.1300  1.8625
  137MOL    H1538367   3.734   3.346   4.184 -0.1533 -1.0287 -0.9799
  137MOL    C1638368   3.050   3.192   3.857 -0.5589 -0.3945  0.2705
  137MOL    C1738369   2.945   3.148   3.931  0.2008  0.3325 -0.8820
  137MOL    C1838370   2.823   3.125   3.871 -0.2605 -0.4124 -0.4583
  137MOL    C1938371   2.799   3.155   3.737 -0.9203  0.0249 -0.0393
  137MOL    C2038372   2.668   3.129   3.674  0.5048  0.4973  0.6257
  137MOL    C2138373   2.561   3.070   3.734  0.0705 -0.3140  0.2317
  137MOL    C2238374   2.914   3.189   3.659  0.7571 -1.0491  0.7766
  137MOL    C2338375   3.037   3.221   3.721 -0.6473 -0.1448 -0.0757
  137MOL    H2438376   2.953   3.138   4.038  0.1008  1.2974 -0.7807
  137MOL    H2538377   2.741   3.097   3.934  1.6133  0.7301  2.5790
  137MOL    H2638378   2.671   3.145   3.567 -0.8938  0.0405  0.5059
  137MOL    H2738379   2.573   3.048   3.839 -1.3858  0.5765  0.6085
  137MOL    H2838380   2.915   3.197   3.551  0.7029  0.2653  0.8623
  137MOL    H2938381   3.125   3.240   3.661 -0.6846 -2.8406 -1.0702
  137MOL    C3038382   2.429   3.027   3.666 -0.5166 -0.0269  0.8201
  137MOL    C3138383   2.330   2.974   3.747  0.5119  0.0510 -0.3978
  137MOL    C3238384   2.208   2.936   3.695 -0.4030 -0.5178 -0.0635
  137MOL    C3338385   2.173   2.960   3.558 -0.5084  0.0421  0.5047
  137MOL    C3438386   2.036   2.930   3.502 -0.2730  0.3362  0.2817
  137MOL    C3538387   1.928   2.878   3.566  0.3799 -0.3914 -0.5254
  137MOL    C3638388   2.273   3.019   3.480  0.4203  0.3094 -0.3779
  137MOL    C3738389   2.396   3.054   3.535 -0.3853 -1.0206  0.1671
  137MOL    H3838390   2.357   2.953   3.849 -0.4657 -2.8452 -0.6867
  137MOL    H3938391   2.133   2.903   3.765  0.8344 -1.6732  0.7464
  137MOL    H4038392   2.023   2.961   3.400  0.7043 -1.7438 -0.4932
  137MOL    H4138393   1.937   2.860   3.672  2.3829 -0.1185 -0.6377
  137MOL    H4238394   2.258   3.039   3.375  0.4187  0.1139 -0.4153
  137MOL    H4338395   2.464   3.097   3.462  0.7812  1.5473  2.6665
  137MOL    C4438396   1.799   2.839   3.509 -0.4919  0.4909  0.4172
  137MOL    C4538397   1.709   2.766   3.582  0.0992 -0.0591 -1.0846
  137MOL    C4638398   1.577   2.736   3.533 -0.2958  0.6922 -0.2266
  137MOL    C4738399   1.548   2.778   3.396 -0.0540  0.6889  0.0158
  137MOL    C4838400   1.422   2.744   3.331 -0.7889 -0.3338  0.2367
  137MOL    C4938401   1.320   2.664   3.383 -0.1705 -0.2157  0.0935
  137MOL    C5038402   1.646   2.837   3.318  0.1957  0.0187  0.3097
  137MOL    C5138403   1.767   2.878   3.378 -0.1272 -0.6674  0.0105
  137MOL    H5238404   1.721   2.742   3.686 -2.2323  0.9842 -0.5228
  137MOL    H5338405   1.501   2.691   3.594 -0.2070 -0.8611 -1.2292
  137MOL    H5438406   1.412   2.792   3.235  1.8494  0.1088  0.1497
  137MOL    H5538407   1.345   2.626   3.481  1.2192  0.8219  0.1486
  137MOL    H5638408   1.631   2.860   3.213 -2.2796  0.4332  0.7233
  137MOL    H5738409   1.838   2.932   3.318  0.4506 -2.4613 -0.9489
  137MOL    C5838410   1.193   2.643   3.315 -0.5746 -0.7163  0.2442
  137MOL    C5938411   1.177   2.691   3.178 -0.4884  0.0385  0.4070
  137MOL    C6038412   1.053   2.684   3.117  0.3173  0.2746 -0.5414
  137MOL    C6138413   0.943   2.626   3.181 -0.2959 -0.4047  0.5099
  137MOL    C6238414   0.808   2.630   3.126  0.4673  0.3136 -0.0225
  137MOL    C6338415   0.695   2.588   3.195  0.6852 -0.0031 -0.0156
  137MOL    C6438416   0.962   2.579   3.312 -0.1785 -0.2505  0.3634
  137MOL    C6538417   1.085   2.584   3.375  0.4242  0.6505  0.4184
  137MOL    H6638418   1.263   2.731   3.126 -1.6430  1.5865 -0.3523
  137MOL    H6738419   1.043   2.732   3.021  0.5039  1.8102  0.1937
  137MOL    H6838420   0.801   2.665   3.024 -2.9659  0.3005  0.1331
  137MOL    H6938421   0.715   2.549   3.294  1.0864 -0.2972 -0.2086
  137MOL    H7038422   0.886   2.523   3.363 -1.7399  1.1269 -0.4212
  137MOL    H7138423   1.114   2.550   3.474 -0.2447  1.2924  0.8427
  137MOL    C7238424   0.553   2.603   3.162 -0.0790  0.9291 -0.5597
  137MOL    C7338425   0.457   2.561   3.256  0.8512  0.0934 -0.7412
  137MOL    C7438426   0.320   2.573   3.230 -0.6759 -0.4143 -0.7079
  137MOL    C7538427   0.275   2.637   3.117 -0.3433  0.9141  0.1387
  137MOL    C7638428   0.141   2.665   3.091 -0.7283  0.8000  0.2636
  137MOL    C7738429   0.031   2.603   3.140 -0.3390  0.2838  0.0676
  137MOL    C7838430   0.373   2.690   3.022  0.1378 -0.1744 -0.4834
  137MOL    C7938431   0.512   2.673   3.047  0.5074  0.4307  0.6021
  137MOL    H8038432   0.500   2.511   3.342 -0.5766 -1.4865 -0.8987
  137MOL    H8138433   0.256   2.531   3.306  1.8119 -0.5701  1.3657
  137MOL    H8238434   0.125   2.757   3.037 -0.5106  0.7104  0.0445
  137MOL    H8338435   0.061   2.529   3.212 -2.9467 -2.1512 -1.2588
  137MOL    H8438436   0.346   2.748   2.936 -1.0431 -0.7354 -0.5007
  137MOL    H8538437   0.583   2.709   2.974  0.6637 -0.3134  0.3910
  137MOL    C8638438   8.036   2.612   3.111  0.1348  0.2497  0.1007
  137MOL    C8738439   7.994   2.665   2.984 -0.0077 -0.5153 -0.2802
  137MOL    C8838440   7.859   2.668   2.947 -0.5434  0.1404  0.4256
  137MOL    C8938441   7.755   2.629   3.036 -0.6523  0.0036  0.3292
  137MOL    C9038442   7.614   2.648   2.999 -0.4594  0.1229 -1.1391
  137MOL    C9138443   7.509   2.615   3.074  0.5044  0.7271 -0.3555
  137MOL    C9238444   7.796   2.583   3.160  0.3941 -0.5293 -0.3678
  137MOL    C9338445   7.934   2.567   3.199 -0.2505  0.7058 -0.8983
  137MOL    H9438446   8.065   2.706   2.914  0.6078  1.1834  1.2990
  137MOL    H9538447   7.832   2.715   2.854  0.3252  1.4830  0.8222
  137MOL    H9638448   7.596   2.693   2.903 -0.5679  0.2517 -1.0570
  137MOL    H9738449   7.522   2.576   3.173  1.5474  2.5875  0.2674
  137MOL    H9838450   7.727   2.539   3.231  0.6132 -1.2287 -0.5822
  137MOL    H9938451   7.965   2.511   3.286 -0.2853  0.3755 -1.0993
  137MOL   C10038452   7.372   2.613   3.031 -0.1885 -0.8343 -0.2487
  137MOL   C10138453   7.330   2.656   2.906 -0.1754  0.7754  0.1004
  137MOL   C10238454   7.194   2.654   2.871  0.2311 -0.1087  0.1081
  137MOL   C10338455   7.092   2.605   2.957 -0.5755  0.3239 -0.0602
  137MOL   C10438456   6.954   2.600   2.921 -0.2303 -0.0931  0.0205
  137MOL   C10538457   6.847   2.588   2.996  0.8789  0.6129  0.2593
  137MOL   C10638458   7.133   2.578   3.089  0.3592  0.0395  0.1650
  137MOL   C10738459   7.268   2.582   3.122  0.5288 -0.4178  0.0170
  137MOL   H10838460   7.390   2.689   2.822 -1.2768  1.4798 -0.4124
  137MOL   H10938461   7.163   2.688   2.773  2.8878  0.9236 -0.4238
  137MOL   H11038462   6.940   2.608   2.814  1.4495  0.9762 -0.1344
  137MOL   H11138463   6.865   2.585   3.103  2.8472  3.8185  0.0952
  137MOL   H11238464   7.065   2.549   3.167  0.1254 -2.2463 -0.8359
  137MOL   H11338465   7.299   2.558   3.223  0.6266  1.9483  0.5599
  137MOL   C11438466   6.707   2.585   2.938  0.5313 -0.6700 -0.4907
  137MOL   C11538467   6.597   2.569   3.027 -0.0027  0.0298 -0.4485
  137MOL   C11638468   6.462   2.572   2.984 -0.3674 -0.4521  0.2877
  137MOL   C11738469   6.437   2.588   2.844 -0.0974  0.3646 -0.4010
  137MOL   C11838470   6.298   2.574   2.789  0.1902  0.0614 -0.3754
  137MOL   C11938471   6.187   2.544   2.860 -0.5089  0.4891  0.5584
  137MOL   C12038472   6.543   2.610   2.757 -0.0357 -0.3421  0.2513
  137MOL   C12138473   6.676   2.612   2.802 -0.0187 -0.0907 -0.1210
  137MOL   H12238474   6.616   2.555   3.133 -3.3633 -1.6541  0.0003
  137MOL   H12338475   6.383   2.565   3.057 -0.9894  0.8450 -0.2475
  137MOL   H12438476   6.287   2.605   2.686 -0.4122  1.1387  0.0038
  137MOL   H12538477   6.195   2.521   2.966 -1.0054  0.0428  0.4991
  137MOL   H12638478   6.522   2.617   2.651  0.1317 -1.8186  0.1146
  137MOL   H12738479   6.755   2.623   2.729  0.3737  1.1534  0.4751
  137MOL   C12838480   6.048   2.541   2.811  0.2547  0.0833  0.3516
  137MOL   C12938481   6.019   2.617   2.698 -0.2388  0.0885 -1.1136
  137MOL   C13038482   5.897   2.611   2.645  0.3186 -0.5127 -0.0242
  137MOL   C13138483   5.795   2.535   2.704 -0.0706  0.2780  0.8432
  137MOL   C13238484   5.655   2.522   2.646  0.4224  0.3166 -0.2000
  137MOL   C13338485   5.614   2.581   2.532 -0.2311  0.0442 -0.1941
  137MOL   C13438486   5.823   2.468   2.819 -0.4333  0.9184 -0.6860
  137MOL   C13538487   5.949   2.462   2.878 -0.6308 -0.6181 -0.3401
  137MOL   H13638488   6.091   2.678   2.645 -1.7760  0.9973 -2.1688
  137MOL   H13738489   5.884   2.663   2.551  0.1478  0.7443  0.6775
  137MOL   H13838490   5.584   2.457   2.695  2.6049 -2.6469 -0.7888
  137MOL   H13938491   5.683   2.648   2.485 -2.3053  1.2318 -1.6338
  137MOL   H14038492   5.744   2.414   2.869  2.1958 -1.7975  0.6769
  137MOL   H14138493   5.966   2.404   2.968 -1.8373 -2.7320 -1.4158
  137MOL   C14238494   5.479   2.579   2.479 -0.0543 -0.4228  0.2273
  137MOL   C14338495   5.451   2.579   2.339 -0.2379  0.0091  0.4015
  137MOL   C14438496   5.323   2.552   2.297  0.4316  0.1310 -0.7806
  137MOL   C14538497   5.216   2.551   2.390  0.0470  0.8463 -0.1873
  137MOL   C14638498   5.074   2.516   2.363  0.4228  0.5789  0.0496
  137MOL   C14738499   5.026   2.448   2.255  0.5333 -0.1849  0.2514
  137MOL   C14838500   5.244   2.547   2.528 -0.5637 -0.1820 -0.7076
  137MOL   C14938501   5.374   2.561   2.573 -0.3162  0.2925  0.1826
  137MOL   H15038502   5.533   2.574   2.268 -0.4926  0.8886  0.0406
  137MOL   H15138503   5.306   2.535   2.191 -0.2351 -2.3120 -0.3224
  137MOL   H15238504   5.006   2.552   2.439 -0.3313 -1.4760  0.3949
  137MOL   H15338505   5.093   2.407   2.181 -0.2796  0.6776 -0.9617
  137MOL   H15438506   5.162   2.525   2.594  0.2217  1.3139  0.7924
  137MOL   H15538507   5.387   2.573   2.680  0.1952 -0.6946  0.2379
  137MOL   C15638508   4.887   2.418   2.228  0.0338  0.0142 -0.2953
  137MOL   C15738509   4.843   2.420   2.097 -0.1216  0.9760  0.1387
  137MOL   C15838510   4.706   2.379   2.079  0.9000 -0.5415 -0.4090
  137MOL   C15938511   4.613   2.344   2.180  0.9548  0.3508  0.2087
  137MOL   C16038512   4.479   2.281   2.158  0.2776 -0.4970 -0.4644
  137MOL   C16138513   4.424   2.252   2.038 -0.4944 -0.1963  0.0030
  137MOL   C16238514   4.658   2.351   2.318 -0.5188 -0.5701 -0.4654
  137MOL   C16338515   4.790   2.389   2.339 -0.6396  0.1052 -0.6889
  137MOL   H16438516   4.913   2.443   2.018  1.1807 -0.3850  0.8692
  137MOL   H16538517   4.668   2.371   1.978 -3.5367 -0.2624  1.1172
  137MOL   H16638518   4.424   2.270   2.250  0.6982 -2.8955 -0.4633
  137MOL   H16738519   4.486   2.259   1.950  1.3118  0.6817  1.3103
  137MOL   H16838520   4.598   2.329   2.405  1.8450  3.7888  2.4102
  137MOL   H16938521   4.824   2.403   2.440 -1.7371  1.6003 -0.5173
  137MOL   C17038522   4.285   2.206   2.012  0.3294  0.6494  0.4682
  137MOL   C17138523   4.242   2.200   1.878 -0.1333  0.1075 -0.6359
  137MOL   C17238524   4.109   2.172   1.851  0.0993  0.5004 -1.1169
  137MOL   C17338525   4.019   2.136   1.957  0.5109 -0.1542  0.5598
  137MOL   C17438526   3.879   2.090   1.926  0.5024 -0.8297  0.4458
  137MOL   C17538527   3.795   2.032   2.014 -0.8619 -0.8098  0.6219
  137MOL   C17638528   4.068   2.129   2.091  0.0691 -0.1074  0.7823
  137MOL   C17738529   4.197   2.175   2.114 -0.8168 -0.8748 -0.2884
  137MOL   H17838530   4.312   2.225   1.799 -0.4715  1.9579 -0.3620
  137MOL   H17938531   4.077   2.175   1.748  0.1248 -0.0247 -1.1437
  137MOL   H18038532   3.850   2.111   1.824 -1.5370  1.4498  1.4358
  137MOL   H18138533   3.827   2.014   2.116  0.3185  1.2433  0.6306
  137MOL   H18238534   4.009   2.093   2.174  0.7983 -0.2106  1.2563
  137MOL   H18338535   4.244   2.165   2.211  1.0232 -0.1330 -1.0829
  137MOL   C18438536   3.652   1.986   1.992  0.0345  0.2579  0.6057
  137MOL   C18538537   3.605   1.873   2.066 -0.1226 -0.1597  0.3303
  137MOL   C18638538   3.474   1.829   2.045  0.4403  0.5248  0.7396
  137MOL   C18738539   3.395   1.875   1.937  0.0022 -0.2093 -0.3271
  137MOL   C18838540   3.257   1.816   1.920  0.0787  0.2959 -0.3107
  137MOL   C18938541   3.173   1.851   1.823 -0.5890  0.3590  0.7226
  137MOL   C19038542   3.442   1.987   1.871 -0.1711  0.0763  0.5467
  137MOL   C19138543   3.568   2.045   1.897  0.5345  0.5195 -0.3776
  137MOL   H19238544   3.664   1.818   2.138 -0.3277 -0.1490  0.5072
  137MOL   H19338545   3.434   1.751   2.107 -2.3923 -0.1727 -1.8699
  137MOL   H19438546   3.224   1.745   1.994  4.7951 -1.6696  0.1290
  137MOL   H19538547   3.206   1.925   1.751  2.6382 -2.7533 -1.1022
  137MOL   H19638548   3.380   2.028   1.792  0.5948  1.3076  0.5653
  137MOL   H19738549   3.603   2.134   1.847 -1.2499  1.2712 -0.3124
  137MOL   C19838550   3.036   1.797   1.795  0.1344 -0.0303  0.1092
  137MOL   C19938551   2.988   1.683   1.862 -0.1835 -0.4603  0.6756
  137MOL   C20038552   2.870   1.623   1.814 -0.0461  0.0150  0.5339
  137MOL   C20138553   2.787   1.683   1.716  0.0549  0.6261  0.4065
  137MOL   C20238554   2.656   1.613   1.682  0.1051 -0.5061  0.0751
  137MOL   C20338555   2.580   1.653   1.581 -0.6084  0.8974 -0.4468
  137MOL   C20438556   2.843   1.796   1.650  0.0834 -0.2399  0.1668
  137MOL   C20538557   2.966   1.854   1.686 -0.4539 -0.0912  0.1844
  137MOL   H20638558   3.046   1.637   1.941 -1.1768 -3.0959 -0.0693
  137MOL   H20738559   2.841   1.535   1.870  0.3252 -0.1093  0.5301
  137MOL   H20838560   2.629   1.539   1.755  1.6686 -0.3567  0.8239
  137MOL   H20938561   2.616   1.738   1.525 -0.1591  0.2812 -1.0978
  137MOL   H21038562   2.783   1.863   1.590 -0.3713  2.0338  3.0389
  137MOL   H21138563   2.996   1.950   1.647  1.4702 -0.3805  0.8899
  137MOL   C21238564   2.445   1.598   1.543 -0.1741 -0.1319  0.5438
  137MOL   C21338565   2.390   1.643   1.425 -0.3775  0.3307 -0.0385
  137MOL   C21438566   2.278   1.586   1.369  0.6370  0.1904  1.2717
  137MOL   C21538567   2.207   1.486   1.437  0.3569  0.4930  0.6138
  137MOL   C21638568   2.072   1.456   1.391 -0.0267  0.4971  0.1514
  137MOL   C21738569   1.984   1.368   1.442  0.7881  0.6875  0.4218
  137MOL   C21838570   2.253   1.448   1.566  0.0680 -0.5762 -0.1448
  137MOL   C21938571   2.379   1.498   1.616 -0.5844  0.6610  0.5791
  137MOL   H22038572   2.440   1.723   1.371 -0.0282 -0.8808 -1.5579
  137MOL   H22138573   2.249   1.615   1.269 -1.6509 -1.3904  1.4491
  137MOL   H22238574   2.046   1.513   1.303  0.6473 -0.7122 -0.8604
  137MOL   H22338575   2.019   1.317   1.531 -0.9362  1.1916  1.4251
  137MOL   H22438576   2.201   1.372   1.622 -2.6019  1.3823  0.1582
  137MOL   H22538577   2.422   1.448   1.702 -1.2669  0.0320  0.5566
  137MOL   C22638578   1.848   1.334   1.400 -0.7257 -0.2906  0.1786
  137MOL   C22738579   1.780   1.419   1.307 -0.2063 -0.0660 -0.5623
  137MOL   C22838580   1.658   1.378   1.247  0.1066 -0.1573  0.0536
  137MOL   C22938581   1.597   1.262   1.285  0.3185  0.6977 -0.3650
  137MOL   C23038582   1.473   1.215   1.217 -0.3407  0.3995 -0.3657
  137MOL   C23138583   1.377   1.289   1.162 -0.4635 -0.5585  0.0276
  137MOL   C23238584   1.662   1.172   1.379  0.0174  0.4150  0.6877
  137MOL   C23338585   1.786   1.213   1.439  0.1555 -0.0254 -0.1026
  137MOL   H23438586   1.818   1.516   1.279 -1.1891  1.3465  2.7466
  137MOL   H23538587   1.627   1.437   1.162 -2.5324 -0.4104  0.7950
  137MOL   H23638588   1.469   1.108   1.200 -0.3602  0.1788  1.0361
  137MOL   H23738589   1.366   1.396   1.175  1.3540 -0.6307  2.5839
  137MOL   H23838590   1.620   1.076   1.405 -0.6852 -0.0369 -1.9678
  137MOL   H23938591   1.842   1.138   1.494  0.6963 -0.4547 -1.2267
  137MOL   C24038592   1.276   1.225   1.079  0.3429  0.6052  0.2216
  137MOL   C24138593   1.227   1.290   0.966 -0.4680 -0.3718 -1.0028
  137MOL   C24238594   1.139   1.228   0.876  0.6294  0.0156 -0.0293
  137MOL   C24338595   1.088   1.101   0.897  0.4447 -0.0070  0.1235
  137MOL   C24438596   0.998   1.032   0.807  0.5250 -0.5260  0.2569
  137MOL   C24538597   1.018   0.904   0.777  0.2440  0.6614  0.4399
  137MOL   C24638598   1.134   1.034   1.009  0.0400  0.3345  0.3081
  137MOL   C24738599   1.229   1.093   1.101 -0.1725  0.0891  0.3292
  137MOL   H24838600   1.260   1.392   0.950  0.0792 -1.0099 -4.2522
  137MOL   H24938601   1.108   1.294   0.796 -0.2111 -0.9628 -0.5265
  137MOL   H25038602   0.922   1.084   0.751 -0.3264  0.9378  2.7204
  137MOL   H25138603   1.104   0.858   0.825 -0.9467  0.1087  2.1031
  137MOL   H25238604   1.092   0.940   1.043  1.9140  0.0274  1.8877
  137MOL   H25338605   1.245   1.049   1.199  0.2719  3.8757  2.0530
  137MOL   C25438606   0.933   0.823   0.690  0.4985 -0.6278  0.0462
  137MOL   C25538607   0.977   0.701   0.635  0.0009  0.3027  0.2349
  137MOL   C25638608   0.893   0.615   0.558  0.4894 -0.0847  0.2346
  137MOL   C25738609   0.767   0.661   0.527 -0.1433  0.4282  0.3856
  137MOL   C25838610   0.681   0.577   0.446  0.3097  0.2534 -0.2593
  137MOL   C25938611   0.654   0.444   0.464 -0.3134 -0.0156  0.5606
  137MOL   C26038612   0.715   0.783   0.581 -0.4047 -0.7281  0.1795
  137MOL   C26138613   0.800   0.867   0.665 -0.3621  0.2725 -0.0908
  137MOL   H26238614   1.078   0.673   0.663  0.9952  1.2309 -2.2454
  137MOL   H26338615   0.921   0.516   0.524 -2.4913 -0.7639 -0.3527
  137MOL   H26438616   0.627   0.619   0.363 -3.6649 -1.4477  1.2850
  137MOL   H26538617   0.588   0.404   0.388 -1.0385  0.6856  0.8193
  137MOL   H26638618   0.611   0.813   0.571 -0.6077 -1.3928  0.2634
  137MOL   H26738619   0.764   0.952   0.720 -0.5603 -0.8031  1.5042
  137MOL   C26838620   0.705   0.350   0.568  0.0671 -0.3626  0.4642
  137MOL   C26938621   0.785   0.237   0.532  0.5124  0.0982 -0.0776
  137MOL   C27038622   0.848   0.163   0.636 -0.2998  0.4161  0.7653
  137MOL   C27138623   0.843   0.202   0.768  0.8146 -0.3107 -0.1074
  137MOL   C27238624   0.918   0.130   0.870  0.1348 -0.0779 -0.4354
  137MOL   C27338625   0.974   0.006   0.869 -0.1615 -0.1342 -0.2911
  137MOL   C27438626   0.773   0.314   0.807  0.2222 -0.2697  0.3048
  137MOL   C27538627   0.709   0.394   0.710  0.0007  0.6687  0.6606
  137MOL   H27638628   0.775   0.219   0.426 -0.8689  0.3118  0.0060
  137MOL   H27738629   0.896   0.069   0.613  0.6659  1.1444 -0.2870
  137MOL   H27838630   0.928   0.188   0.961  1.1382 -2.6296  1.1339
  137MOL   H27938631   0.975   8.082   0.785  1.4403  0.1829 -0.5584
  137MOL   H28038632   0.766   0.355   0.907 -0.2154 -0.8010  0.4951
  137MOL   H28138633   0.658   0.486   0.736 -0.3441  0.9865 -1.0483
  137MOL   H28238634   1.029   8.114   0.954 -0.2491  1.5055  0.4851
  138MOL     C138635   4.627   7.334   7.878 -0.1613  0.2369  0.3738
  138MOL     C238636   4.666   7.392   7.758  0.7091  0.2129 -0.0443
  138MOL     C338637   4.787   7.356   7.697 -0.0560 -0.0940 -0.3297
  138MOL     C438638   4.876   7.265   7.754 -0.6390 -0.5827 -0.5678
  138MOL     C538639   5.004   7.238   7.692  0.4477 -0.2231 -0.2587
  138MOL     C638640   5.090   7.137   7.729 -0.5913  0.0579  0.1895
  138MOL     C738641   4.835   7.204   7.879 -0.6648 -1.0283  0.3335
  138MOL     C838642   4.715   7.246   7.943  0.1931 -0.3736  0.2826
  138MOL     H938643   4.604   7.468   7.713  0.5675  0.5689  0.7356
  138MOL    H1038644   4.809   7.413   7.609 -0.7889  2.1865  0.9313
  138MOL    H1138645   5.041   7.313   7.624  1.5533  0.8265  1.4484
  138MOL    H1238646   5.059   7.063   7.801 -1.3810  0.5610  0.3709
  138MOL    H1338647   4.903   7.137   7.931  2.0308  0.1037 -1.6031
  138MOL    H1438648   4.693   7.204   8.040 -0.9365 -0.5627 -0.0423
  138MOL    H1538649   4.529   7.357   7.919 -0.4046  1.5195 -0.8847
  138MOL    C1638650   5.230   7.128   7.691 -0.1497  0.3478  0.4031
  138MOL    C1738651   5.300   7.230   7.629 -1.0650 -0.9969 -0.0929
  138MOL    C1838652   5.443   7.222   7.603  1.2791 -0.8084 -0.0528
  138MOL    C1938653   5.509   7.106   7.654 -0.4161 -0.2178  0.4875
  138MOL    C2038654   5.656   7.105   7.642 -0.0928 -0.1416 -0.0262
  138MOL    C2138655   5.732   6.999   7.674  0.4104  0.7146 -0.2677
  138MOL    C2238656   5.436   7.011   7.720 -0.5052 -0.2568 -0.0302
  138MOL    C2338657   5.295   7.020   7.740 -0.5717  0.1390 -0.6540
  138MOL    H2438658   5.246   7.315   7.591  0.6330  0.0796 -0.1588
  138MOL    H2538659   5.496   7.300   7.550 -0.6368 -0.0570 -0.8977
  138MOL    H2638660   5.695   7.199   7.605 -0.9671  0.4628  0.5704
  138MOL    H2738661   5.687   6.906   7.705  2.2387 -0.2045 -0.2810
  138MOL    H2838662   5.481   6.923   7.764 -1.3073 -0.1072  1.1059
  138MOL    H2938663   5.245   6.941   7.794 -0.0563  0.0301 -0.3330
  138MOL    C3038664   5.882   6.992   7.676  0.5782  0.2654 -0.3986
  138MOL    C3138665   5.960   7.105   7.671 -0.2699  0.3566 -0.4114
  138MOL    C3238666   6.098   7.095   7.700  0.3490 -0.2714 -0.5375
  138MOL    C3338667   6.161   6.965   7.721  0.6047  0.0516 -0.2988
  138MOL    C3438668   6.306   6.972   7.744  0.4987 -1.3666 -0.2868
  138MOL    C3538669   6.390   6.869   7.745  0.2195  0.2246  0.5279
  138MOL    C3638670   6.082   6.851   7.707 -0.1957 -0.2449  0.3030
  138MOL    C3738671   5.943   6.864   7.687 -0.0458 -0.4130  0.8213
  138MOL    H3838672   5.916   7.201   7.647 -3.2915 -1.0234 -0.6860
  138MOL    H3938673   6.154   7.186   7.718  0.8721 -0.6324 -0.3391
  138MOL    H4038674   6.340   7.074   7.760 -1.1100 -1.0030  0.9199
  138MOL    H4138675   6.340   6.774   7.736  0.5521  0.1008  0.0079
  138MOL    H4238676   6.127   6.758   7.738  1.6812  1.0164  1.4448
  138MOL    H4338677   5.877   6.780   7.700 -0.3390 -0.6923 -2.0388
  138MOL    C4438678   6.539   6.876   7.758  0.3616  0.3104  0.1239
  138MOL    C4538679   6.610   6.758   7.724  0.6501  0.8542 -1.0142
  138MOL    C4638680   6.743   6.755   7.758 -0.1251 -0.0747  0.6545
  138MOL    C4738681   6.813   6.853   7.824 -0.9218  0.2966  0.0931
  138MOL    C4838682   6.962   6.833   7.856  0.0112 -0.1735 -0.3749
  138MOL    C4938683   7.033   6.939   7.894 -0.3400  0.5544 -0.0745
  138MOL    C5038684   6.748   6.970   7.857 -0.2337 -0.0225  0.2222
  138MOL    C5138685   6.615   6.985   7.817 -0.2050 -0.1325 -0.2052
  138MOL    H5238686   6.557   6.671   7.690 -0.6303  0.1122  2.7476
  138MOL    H5338687   6.802   6.665   7.745 -0.4654 -0.2784  0.5086
  138MOL    H5438688   7.003   6.733   7.846  0.1463 -0.1708  0.1369
  138MOL    H5538689   7.001   7.040   7.915  0.2256  0.7441 -0.1108
  138MOL    H5638690   6.795   7.043   7.922 -0.0003 -0.6789  0.8008
  138MOL    H5738691   6.561   7.072   7.852  0.0770 -0.8448  2.0612
  138MOL    C5838692   7.176   6.932   7.927  0.2206 -0.0572  0.2130
  138MOL    C5938693   7.221   6.985   8.050  0.2023 -0.0828 -0.8036
  138MOL    C6038694   7.357   6.962   8.091  0.2443  0.1983 -0.1409
  138MOL    C6138695   7.441   6.882   8.019 -0.2236 -0.6072  0.2845
  138MOL    C6238696   7.579   6.876   8.072  0.7063 -0.8325  0.4084
  138MOL    C6338697   7.684   6.827   8.008 -0.3656  0.9773  0.8245
  138MOL    C6438698   7.395   6.828   7.895  0.0475 -0.4402  0.5199
  138MOL    C6538699   7.263   6.843   7.855  0.0231 -0.4898  0.1845
  138MOL    H6638700   7.160   7.056   8.104  0.2635 -1.0008  0.4869
  138MOL    H6738701   7.397   7.008   0.035  2.8419  0.3883 -1.3660
  138MOL    H6838702   7.594   6.903   0.031 -0.2727 -0.9631  0.5901
  138MOL    H6938703   7.679   6.788   7.908  1.3239 -0.5174  1.3065
  138MOL    H7038704   7.457   6.773   7.826 -1.5404 -1.2588 -0.2587
  138MOL    H7138705   7.238   6.801   7.759  1.2284 -1.1521  0.1545
  138MOL    C7238706   7.822   6.818   8.066 -0.2375 -0.3470 -1.0542
  138MOL    C7338707   7.923   6.754   7.990 -0.2419  0.0637  0.3850
  138MOL    C7438708   8.050   6.727   8.044 -0.5560  0.2140  0.2455
  138MOL    C7538709   8.080   6.769   0.036 -0.1014  0.3651  0.2617
  138MOL    C7638710   0.061   6.727   0.104  0.2022 -0.1877  0.2038
  138MOL    C7738711   0.158   6.644   0.057 -0.2777 -0.0144  0.4297
  138MOL    C7838712   7.986   6.843   0.106 -0.0496 -0.1302  0.2285
  138MOL    C7938713   7.860   6.873   0.050  0.2559 -0.1587  0.2297
  138MOL    H8038714   7.897   6.719   7.891  0.6703 -1.0696  0.5347
  138MOL    H8138715   8.115   6.663   7.987  2.9078  0.4432  3.7159
  138MOL    H8238716   0.066   6.777   0.199 -0.2426  1.9905 -0.8744
  138MOL    H8338717   0.153   6.596   8.105 -1.1345  0.6901  0.1134
  138MOL    H8438718   8.008   6.872   0.208 -1.5779  0.8162  0.3085
  138MOL    H8538719   7.795   6.938   0.107 -0.1757  0.4418 -0.9350
  138MOL    C8638720   0.280   6.611   0.124 -0.3250 -0.1956 -0.0882
  138MOL    C8738721   0.317   6.651   0.259 -0.1343 -0.5308 -0.5743
  138MOL    C8838722   0.435   6.604   0.322 -0.3927  0.1863 -1.1080
  138MOL    C8938723   0.517   6.521   0.245  0.4307  0.4176 -0.3793
  138MOL    C9038724   0.643   6.484   0.313 -0.5765 -0.3363  0.1451
  138MOL    C9138725   0.739   6.407   0.266 -0.1375  0.2812 -0.0738
  138MOL    C9238726   0.485   6.486   0.111  0.0865 -0.4252 -0.2723
  138MOL    C9338727   0.363   6.518   0.057 -0.0471 -0.4265 -0.1210
  138MOL    H9438728   0.250   6.710   0.320  2.3347  0.2622  1.4801
  138MOL    H9538729   0.444   6.622   0.428 -3.9260  1.0870 -0.9135
  138MOL    H9638730   0.654   6.522   0.413  0.7935 -1.0409  0.2735
  138MOL    H9738731   0.718   6.376   0.164 -0.4339 -1.4767  0.5033
  138MOL    H9838732   0.548   6.435   0.040 -1.6056 -2.4559 -0.3553
  138MOL    H9938733   0.336   6.480   8.104 -1.0558  0.3471 -0.1520
  138MOL   C10038734   0.865   6.356   0.330  0.0121 -1.1481  0.1394
  138MOL   C10138735   0.930   6.246   0.265 -0.0684 -0.4184  0.0843
  138MOL   C10238736   1.050   6.194   0.314  0.5152  0.5589  0.5186
  138MOL   C10338737   1.104   6.242   0.440  0.2815  0.0012 -0.0600
  138MOL   C10438738   1.231   6.195   0.495 -0.6709  0.5897  0.7600
  138MOL   C10538739   1.291   6.080   0.465  0.4054  0.8944 -0.0065
  138MOL   C10638740   1.036   6.350   0.501  0.5646 -0.3043  0.1463
  138MOL   C10738741   0.925   6.412   0.450  0.4180 -0.4322 -0.4227
  138MOL   H10838742   0.881   6.199   0.181  0.2337 -2.7502  1.1518
  138MOL   H10938743   1.108   6.116   0.268 -0.0178 -0.1910  1.1181
  138MOL   H11038744   1.294   6.258   0.555 -0.0495  0.4421  0.2713
  138MOL   H11138745   1.236   6.012   0.402  2.7539 -1.1177  0.0244
  138MOL   H11238746   1.078   6.397   0.589 -0.6869 -0.8014  1.0384
  138MOL   H11338747   0.879   6.491   0.506  0.3048 -2.1898  2.0659
  138MOL   C11438748   1.428   6.029   0.512  0.3471 -0.1372  0.0414
  138MOL   C11538749   1.482   5.915   0.445  0.5614 -0.1864  0.4661
  138MOL   C11638750   1.622   5.883   0.458  0.8881 -0.6476 -0.5356
  138MOL   C11738751   1.696   5.945   0.558 -0.2901 -0.3624  0.0803
  138MOL   C11838752   1.827   5.899   0.602  0.4933  0.2226 -0.1000
  138MOL   C11938753   1.889   5.790   0.549  0.0609  0.3306 -0.1714
  138MOL   C12038754   1.637   6.042   0.644  0.2314 -0.3979 -0.3444
  138MOL   C12138755   1.506   6.097   0.611 -0.1097  0.1800  1.0481
  138MOL   H12238756   1.435   5.854   0.370  0.4539  0.1298  0.2780
  138MOL   H12338757   1.666   5.809   0.392 -0.0725 -1.8072  0.0899
  138MOL   H12438758   1.874   5.960   0.677  1.4067 -1.3171  0.6162
  138MOL   H12538759   1.835   5.727   0.479 -0.8506 -0.6034  1.3460
  138MOL   H12638760   1.686   6.075   0.735  0.5783  1.8491 -1.3065
  138MOL   H12738761   1.465   6.178   0.669  0.8897  0.2859  1.6342
  138MOL   C12838762   2.022   5.728   0.588 -0.0812 -0.0265 -0.0068
  138MOL   C12938763   2.042   5.596   0.546  0.0914  0.1504  0.0516
  138MOL   C13038764   2.164   5.535   0.578 -0.4413 -0.6919  0.2619
  138MOL   C13138765   2.254   5.594   0.672 -0.0375 -0.2067 -0.0483
  138MOL   C13238766   2.384   5.531   0.698  0.2734  0.1165  0.2834
  138MOL   C13338767   2.429   5.414   0.643 -0.0974 -0.6272 -0.4631
  138MOL   C13438768   2.234   5.728   0.712 -0.0572 -1.4764  0.3743
  138MOL   C13538769   2.116   5.790   0.667  0.4252 -0.3252 -0.9770
  138MOL   H13638770   1.971   5.545   0.484  0.0292 -1.5475  1.4720
  138MOL   H13738771   2.169   5.429   0.559  0.8046 -0.6432  0.3011
  138MOL   H13838772   2.446   5.590   0.763  2.7464  0.1936 -2.0920
  138MOL   H13938773   2.365   5.366   0.570  1.5334 -1.0573 -1.6518
  138MOL   H14038774   2.305   5.775   0.778 -0.3660 -1.0821  0.4275
  138MOL   H14138775   2.098   5.890   0.706 -1.4896 -0.7695 -0.6469
  138MOL   C14238776   2.556   5.350   0.664 -0.0053 -0.4419 -0.5402
  138MOL   C14338777   2.591   5.238   0.587 -0.3469 -0.7728  0.3574
  138MOL   C14438778   2.716   5.167   0.602  0.8001  0.2105 -0.1276
  138MOL   C14538779   2.801   5.212   0.708  0.3956 -0.0167 -0.1737
  138MOL   C14638780   2.932   5.146   0.735 -0.4783  0.3411  0.0856
  138MOL   C14738781   2.986   5.037   0.671 -0.5867  0.9814  0.5560
  138MOL   C14838782   2.769   5.330   0.782  0.1735 -0.5286  0.3818
  138MOL   C14938783   2.651   5.398   0.762 -0.3033  0.0851  0.1056
  138MOL   H15038784   2.537   5.186   0.509 -0.3741  0.1960 -0.2709
  138MOL   H15138785   2.742   5.070   0.562  1.2537 -0.3056  1.3670
  138MOL   H15238786   2.986   5.201   0.811  0.0618 -0.0976  0.0288
  138MOL   H15338787   2.916   4.987   0.606  0.1149  1.8008 -0.8678
  138MOL   H15438788   2.835   5.362   0.862 -0.5605  0.5592  0.5640
  138MOL   H15538789   2.634   5.490   0.817 -0.2861  0.2298 -0.1284
  138MOL   C15638790   3.123   4.990   0.682  0.4907  0.0832  0.3357
  138MOL   C15738791   3.161   4.870   0.608  0.0570  0.4986  0.5562
  138MOL   C15838792   3.282   4.814   0.624  0.2150  0.2036  0.1725
  138MOL   C15938793   3.374   4.874   0.703  0.8686  0.0084  0.0450
  138MOL   C16038794   3.506   4.820   0.722  0.0446  0.1319 -0.0844
  138MOL   C16138795   3.560   4.747   0.620 -0.3090  0.2894  0.0447
  138MOL   C16238796   3.350   4.994   0.764  0.2030  0.6989 -0.5991
  138MOL   C16338797   3.227   5.055   0.747 -0.6393 -0.0257 -0.0149
  138MOL   H16438798   3.086   4.815   0.554  1.7712 -1.7657  0.4074
  138MOL   H16538799   3.297   4.720   0.574 -0.8780 -0.6246  1.3663
  138MOL   H16638800   3.557   4.853   0.812  1.7931  0.9553 -1.3563
  138MOL   H16738801   3.508   4.725   0.528  1.3491  0.9776 -1.0643
  138MOL   H16838802   3.419   5.046   0.829 -0.2808 -2.3135  2.4378
  138MOL   H16938803   3.204   5.147   0.799  4.0461  1.5621 -0.5522
  138MOL   C17038804   3.701   4.692   0.623  0.6166  0.4534  0.5394
  138MOL   C17138805   3.742   4.600   0.526  0.2878 -0.3317 -1.1801
  138MOL   C17238806   3.875   4.550   0.530 -0.0836  0.2103  0.6794
  138MOL   C17338807   3.975   4.614   0.607  0.3632  0.1863  0.5271
  138MOL   C17438808   4.112   4.572   0.592  0.7578 -0.6600 -0.2785
  138MOL   C17538809   4.202   4.552   0.685  0.6098  0.1141  0.0903
  138MOL   C17638810   3.936   4.713   0.703 -0.5192 -0.1726  0.1009
  138MOL   C17738811   3.799   4.747   0.710 -0.0970 -0.1897 -0.1254
  138MOL   H17838812   3.671   4.548   0.463  0.4690 -0.8206 -0.9830
  138MOL   H17938813   3.905   4.469   0.465  0.4995  0.5364  0.5362
  138MOL   H18038814   4.132   4.561   0.486 -2.3452 -3.0449 -0.6806
  138MOL   H18138815   4.173   4.564   0.788  2.5051  1.2945  0.5165
  138MOL   H18238816   4.009   4.770   0.758  0.2830 -0.4946 -0.6163
  138MOL   H18338817   3.767   4.818   0.784  0.4434  1.8656 -1.8182
  138MOL   C18438818   4.336   4.494   0.664 -0.5809  0.2954  1.1853
  138MOL   C18538819   4.401   4.435   0.780 -0.2052  0.0089 -0.5971
  138MOL   C18638820   4.525   4.376   0.769  0.1401  0.6744 -0.0779
  138MOL   C18738821   4.590   4.372   0.644 -0.1158 -0.0077 -0.1083
  138MOL   C18838822   4.721   4.306   0.624  0.0699  0.2020  0.2511
  138MOL   C18938823   4.783   4.230   0.710  0.1591 -0.4378 -0.2264
  138MOL   C19038824   4.520   4.425   0.528  0.2118  0.4240  0.9433
  138MOL   C19138825   4.393   4.486   0.538 -0.2502 -0.4990 -0.4603
  138MOL   H19238826   4.343   4.431   0.872 -0.8400 -1.5286 -1.0551
  138MOL   H19338827   4.586   4.344   0.852 -0.6881  0.7887  0.5858
  138MOL   H19438828   4.769   4.330   0.530 -3.5938  0.6174 -1.6178
  138MOL   H19538829   4.728   4.192   0.795 -0.3178 -0.5988 -0.6077
  138MOL   H19638830   4.569   4.415   0.432 -0.8546 -0.9563  0.5329
  138MOL   H19738831   4.350   4.519   0.445 -0.4778  0.9084  0.1389
  138MOL   C19838832   4.923   4.169   0.697 -0.3262  0.2188 -0.3010
  138MOL   C19938833   4.974   4.082   0.795  0.0107 -0.0982  0.1019
  138MOL   C20038834   5.098   4.014   0.788 -0.1305 -0.6549 -0.0039
  138MOL   C20138835   5.174   4.041   0.676 -0.4867  0.2234  0.1180
  138MOL   C20238836   5.297   3.965   0.637  0.4894  0.5032 -0.4639
  138MOL   C20338837   5.356   3.873   0.723  0.2115 -0.1625  0.5533
  138MOL   C20438838   5.135   4.136   0.583 -0.6562 -0.0819 -0.4773
  138MOL   C20538839   5.009   4.200   0.593  0.2899  0.3171  0.0539
  138MOL   H20638840   4.905   4.057   0.874 -0.0493 -1.0044 -0.2313
  138MOL   H20738841   5.121   3.940   0.864  0.5123  1.5434  2.0178
  138MOL   H20838842   5.338   3.979   0.538 -0.7145 -0.0806 -1.0530
  138MOL   H20938843   5.308   3.854   0.818 -0.7345 -1.1350 -0.1034
  138MOL   H21038844   5.183   4.148   0.487  0.2651 -1.2090 -0.1685
  138MOL   H21138845   4.988   4.274   0.517  3.1923 -0.4898 -1.6281
  138MOL   C21238846   5.467   3.779   0.689 -0.3056  0.3706  0.7438
  138MOL   C21338847   5.507   3.680   0.780  0.0784 -0.0184  0.0268
  138MOL   C21438848   5.611   3.591   0.751 -0.0779 -0.7440  0.0338
  138MOL   C21538849   5.678   3.595   0.626  0.0014  0.0918 -0.4320
  138MOL   C21638850   5.790   3.512   0.604 -0.1322 -0.2007  0.8602
  138MOL   C21738851   5.825   3.464   0.484 -0.0779  0.5020 -0.6298
  138MOL   C21838852   5.625   3.685   0.525  0.3591  0.8481 -0.0435
  138MOL   C21938853   5.523   3.777   0.558 -0.3104  0.5825  0.6360
  138MOL   H22038854   5.458   3.675   0.876 -0.6531 -0.3965 -0.3600
  138MOL   H22138855   5.653   3.523   0.824  1.6943 -0.4334 -0.6621
  138MOL   H22238856   5.849   3.488   0.691 -0.2760  1.0252  1.2957
  138MOL   H22338857   5.758   3.476   0.401  2.1291  0.0093 -2.5377
  138MOL   H22438858   5.665   3.691   0.425  0.1523  0.4205 -0.1510
  138MOL   H22538859   5.485   3.851   0.489  3.6714  1.2920 -0.9193
  138MOL   C22638860   5.954   3.397   0.450 -0.5149  0.0989  0.4099
  138MOL   C22738861   5.962   3.335   0.322 -0.9467 -0.7800 -0.5216
  138MOL   C22838862   6.088   3.290   0.283 -0.1826  0.1976 -0.1210
  138MOL   C22938863   6.207   3.307   0.365  0.3795 -0.5114  0.2099
  138MOL   C23038864   6.342   3.276   0.313  0.4342 -0.6246  0.0356
  138MOL   C23138865   6.378   3.216   0.200  0.0617  0.1237  0.1120
  138MOL   C23238866   6.191   3.359   0.495 -0.1037  0.5130 -0.7297
  138MOL   C23338867   6.066   3.402   0.536  1.1797  0.1072  0.5513
  138MOL   H23438868   5.878   3.334   0.254 -0.9578  2.3441 -0.6120
  138MOL   H23538869   6.089   3.248   0.183  2.1268 -1.8738  0.7170
  138MOL   H23638870   6.414   3.314   0.383 -1.1713  1.0432  0.8364
  138MOL   H23738871   6.302   3.179   0.133 -2.6109  2.4615  1.7531
  138MOL   H23838872   6.274   3.362   0.565 -0.8828 -1.4947  0.3337
  138MOL   H23938873   6.055   3.446   0.634  1.4958 -1.3260  1.2397
  138MOL   C24038874   6.516   3.193   0.149 -0.1488 -0.0942  0.3921
  138MOL   C24138875   6.623   3.235   0.227  0.0024 -0.2449  0.3140
  138MOL   C24238876   6.754   3.206   0.190 -0.9750  0.3699  0.1410
  138MOL   C24338877   6.783   3.126   0.071  0.1554 -0.0876  0.3393
  138MOL   C24438878   6.924   3.082   0.038 -0.0214  0.4675 -0.6552
  138MOL   C24538879   7.032   3.128   0.101 -0.3156 -0.6924  0.5824
  138MOL   C24638880   6.670   3.082   8.142 -0.7673  0.9345 -0.0840
  138MOL   C24738881   6.540   3.114   0.038  0.2640 -0.0910 -0.0471
  138MOL   H24838882   6.613   3.300   0.313  1.3458  0.0807  0.2286
  138MOL   H24938883   6.833   3.239   0.255 -1.2886 -0.3741  0.9132
  138MOL   H25038884   6.937   3.017   8.097  2.6925 -0.0312  0.0864
  138MOL   H25138885   7.023   3.199   0.183 -0.8016 -0.5826  0.4363
  138MOL   H25238886   6.685   3.012   8.062  1.1159 -0.0323  1.0811
  138MOL   H25338887   6.455   3.073   8.130 -0.4632  2.4499 -0.8889
  138MOL   C25438888   7.166   3.077   0.078  0.1145 -0.2367  0.0069
  138MOL   C25538889   7.185   2.946   0.046  0.2987  0.1955  0.8842
  138MOL   C25638890   7.313   2.889   0.036  0.2331  0.0321  0.3467
  138MOL   C25738891   7.423   2.977   0.036  0.0394 -1.0708  0.2828
  138MOL   C25838892   7.559   2.927   0.037  0.3823  1.3914  0.1952
  138MOL   C25938893   7.658   2.983   8.117 -0.2512 -0.0287 -0.0597
  138MOL   C26038894   7.402   3.114   0.052 -0.0768  0.0609 -1.0815
  138MOL   C26138895   7.277   3.172   0.065 -0.5516  0.0210 -0.1442
  138MOL   H26238896   7.098   2.883   0.042  0.9364 -0.5661 -2.8931
  138MOL   H26338897   7.332   2.784   0.021  1.4795  0.5269 -1.8533
  138MOL   H26438898   7.580   2.848   0.107 -2.9354  2.0184  2.0131
  138MOL   H26538899   7.757   2.950   8.144 -1.1167 -2.0427  0.6894
  138MOL   H26638900   7.492   3.172   0.036  0.9779 -1.3017 -0.2122
  138MOL   H26738901   7.263   3.279   0.064 -0.0003  0.1092  0.6028
  138MOL   C26838902   7.649   3.078   8.003 -0.5015 -0.1873 -0.0483
  138MOL   C26938903   7.541   3.088   7.909  0.1207  0.3658 -0.3908
  138MOL   C27038904   7.536   3.185   7.809  0.5383  0.3821  0.3877
  138MOL   C27138905   7.632   3.286   7.802  0.6120  0.3799 -0.6559
  138MOL   C27238906   7.629   3.385   7.693 -0.8527  0.0681 -0.3288
  138MOL   C27338907   7.738   3.453   7.647 -0.5066 -0.0842  0.3800
  138MOL   C27438908   7.727   3.288   7.899  0.1315 -0.4657  0.5782
  138MOL   C27538909   7.735   3.190   8.002  0.6269 -0.6757  0.0242
  138MOL   H27638910   7.461   3.015   7.914  0.0410  0.3670 -1.3734
  138MOL   H27738911   7.457   3.190   7.735  3.1563  0.6863 -2.4606
  138MOL   H27838912   7.534   3.417   7.652 -1.9157 -0.6461  1.5244
  138MOL   H27938913   7.840   3.428   7.672 -0.0828  1.8761  0.7312
  138MOL   H28038914   7.802   3.365   7.901  0.0275 -0.2942 -1.5156
  138MOL   H28138915   7.807   3.205   8.081 -1.1409 -2.2240  1.9819
  138MOL   H28238916   7.736   3.536   7.578 -0.3812  0.4678  1.0337
  139MOL     C138917   5.341   0.418   2.173 -0.0690 -0.6166  0.4969
  139MOL     C238918   5.443   0.361   2.102  0.1686 -0.2283 -0.6042
  139MOL     C338919   5.559   0.324   2.162 -0.6497  0.1399 -0.4495
  139MOL     C438920   5.588   0.361   2.296  0.4425  0.4031 -0.0347
  139MOL     C538921   5.716   0.338   2.355 -0.4642 -0.1060 -0.8543
  139MOL     C638922   5.733   0.299   2.481 -0.0418 -0.1296  0.4411
  139MOL     C738923   5.492   0.429   2.368 -0.0777 -0.6468  0.1880
  139MOL     C838924   5.366   0.450   2.311 -0.0190  0.1634  0.5811
  139MOL     H938925   5.438   0.337   1.997 -1.5169 -0.8313 -0.3918
  139MOL    H1038926   5.639   0.278   2.106 -0.2211  1.0325 -0.5818
  139MOL    H1138927   5.804   0.360   2.295 -1.2243  0.9023 -1.6014
  139MOL    H1238928   5.641   0.275   2.533 -0.3157 -2.2993 -1.0041
  139MOL    H1338929   5.519   0.465   2.466  0.6851 -1.0859  0.1396
  139MOL    H1438930   5.287   0.504   2.360 -1.6533 -1.0352 -0.6481
  139MOL    H1538931   5.247   0.442   2.125  0.0682 -0.8656  0.1062
  139MOL    C1638932   5.861   0.283   2.549  0.2974 -0.2546  0.0715
  139MOL    C1738933   5.862   0.248   2.683 -0.4330  0.6201 -0.0802
  139MOL    C1838934   5.980   0.217   2.748 -0.6083 -0.4549 -0.2659
  139MOL    C1938935   6.101   0.228   2.677  0.3386  0.4825 -0.1075
  139MOL    C2038936   6.219   0.183   2.742 -0.0550  0.1019  0.0005
  139MOL    C2138937   6.350   0.213   2.712 -0.6055  0.5091  0.1677
  139MOL    C2238938   6.103   0.279   2.544  0.1124 -0.1309  0.2882
  139MOL    C2338939   5.982   0.301   2.482  0.0768  0.4407  0.1962
  139MOL    H2438940   5.771   0.231   2.739 -0.6830 -0.4065 -0.7612
  139MOL    H2538941   5.974   0.180   2.849  0.0915 -0.2241 -0.1423
  139MOL    H2638942   6.191   0.118   2.824 -1.4030 -0.0754 -0.5889
  139MOL    H2738943   6.370   0.273   2.624  1.1625 -0.3402 -0.0479
  139MOL    H2838944   6.193   0.310   2.494  1.0184 -2.2581  0.5134
  139MOL    H2938945   5.977   0.329   2.378 -1.7421  0.3277  0.2257
  139MOL    C3038946   6.466   0.177   2.786 -0.1876  0.2067  0.1199
  139MOL    C3138947   6.591   0.187   2.725 -0.2507 -0.3049 -0.0234
  139MOL    C3238948   6.715   0.157   2.788  0.2994  0.7110 -0.0336
  139MOL    C3338949   6.710   0.118   2.926  0.1298 -0.3795  0.6895
  139MOL    C3438950   6.835   0.078   2.996  0.8278  0.0798  0.3813
  139MOL    C3538951   6.953   0.079   2.933 -0.6264 -1.0841 -0.2835
  139MOL    C3638952   6.585   0.102   2.990  0.5025 -0.7388 -0.2348
  139MOL    C3738953   6.463   0.126   2.920 -0.1284 -0.8680  0.3476
  139MOL    H3838954   6.599   0.217   2.621  1.3826  1.1440  0.4812
  139MOL    H3938955   6.803   0.178   2.730 -0.2329 -0.8183 -1.4363
  139MOL    H4038956   6.819   0.049   3.099 -4.3078 -3.2901 -1.1807
  139MOL    H4138957   6.961   0.104   2.828  0.8409 -2.4841 -0.5175
  139MOL    H4238958   6.573   0.068   3.091 -3.7516  0.3156 -0.2726
  139MOL    H4338959   6.373   0.096   2.972  0.2790 -4.2068 -0.7781
  139MOL    C4438960   7.073   0.035   2.997 -0.3998 -0.2215 -0.4709
  139MOL    C4538961   7.083   0.006   3.134  0.0507  0.3789  0.1530
  139MOL    C4638962   7.205   8.127   3.192  0.4623 -0.3006  0.6491
  139MOL    C4738963   7.317   8.116   3.106 -0.0745 -0.4149  0.0225
  139MOL    C4838964   7.443   8.075   3.162  0.4027 -0.4816  0.0017
  139MOL    C4938965   7.567   8.081   3.109  0.4313 -0.6560 -0.2881
  139MOL    C5038966   7.308   0.002   2.969  0.6837 -0.0049  0.2558
  139MOL    C5138967   7.186   0.044   2.916 -0.7858 -0.3025 -0.3353
  139MOL    H5238968   6.994   8.138   3.195 -1.1424 -0.0039 -1.6216
  139MOL    H5338969   7.208   8.118   3.299 -1.4482 -0.2670  0.7350
  139MOL    H5438970   7.434   8.019   3.254 -0.9669 -2.0190 -1.0182
  139MOL    H5538971   7.584   8.121   3.010  1.1097 -1.5985 -0.5554
  139MOL    H5638972   7.385   8.139   2.894  1.2089  1.9122  0.5855
  139MOL    H5738973   7.186   0.071   2.812  1.1164 -0.2186 -0.3338
  139MOL    C5838974   7.691   8.033   3.169 -0.6581  0.0189 -0.7785
  139MOL    C5938975   7.702   7.977   3.298 -0.8564  0.0629  0.8333
  139MOL    C6038976   7.831   7.931   3.348  0.5255 -0.3434 -0.6347
  139MOL    C6138977   7.946   7.919   3.263  0.0166  0.0215 -0.6601
  139MOL    C6238978   8.077   7.867   3.308  0.9659  0.5005  0.1284
  139MOL    C6338979   0.049   7.894   3.246 -0.2327  0.7358  0.3842
  139MOL    C6438980   7.934   7.978   3.136 -0.1720  0.2014 -0.0039
  139MOL    C6538981   7.810   8.040   3.096  0.3926 -0.1997 -0.1637
  139MOL    H6638982   7.616   7.966   3.362 -1.9539  1.0788 -0.4331
  139MOL    H6738983   7.835   7.898   3.450 -0.7450  0.5363 -0.2873
  139MOL    H6838984   8.071   7.798   3.391  1.5612  1.0524  0.6452
  139MOL    H6938985   0.052   7.957   3.158 -1.0951  0.7444  0.3612
  139MOL    H7038986   8.020   7.987   3.071 -0.2810  1.7101  0.0429
  139MOL    H7138987   7.809   8.080   2.996  1.4407  2.7108  0.9294
  139MOL    C7238988   0.182   7.844   3.296 -0.3766 -0.3328 -0.1294
  139MOL    C7338989   0.196   7.799   3.431 -0.1231 -0.2544 -0.0748
  139MOL    C7438990   0.325   7.758   3.475  0.2836 -0.4548  0.2238
  139MOL    C7538991   0.438   7.778   3.399 -0.2816 -0.3825  0.4703
  139MOL    C7638992   0.569   7.735   3.453 -0.0735 -0.1037 -0.2001
  139MOL    C7738993   0.686   7.716   3.382 -0.1869  0.0679  0.0720
  139MOL    C7838994   0.421   7.826   3.262 -0.6453  0.2389  0.2497
  139MOL    C7938995   0.292   7.854   3.215  0.2227 -0.5694 -0.0979
  139MOL    H8038996   0.107   7.790   3.492  0.5300  0.3553  0.9735
  139MOL    H8138997   0.341   7.719   3.574  1.7205 -1.4327 -0.3715
  139MOL    H8238998   0.578   7.714   3.558  1.8196  0.3524 -0.2453
  139MOL    H8338999   0.685   7.736   3.276 -1.1504 -0.9467 -0.1252
  139MOL    H8439000   0.502   7.835   3.192 -0.3120  0.4155  0.6568
  139MOL    H8539001   0.286   7.892   3.115  0.8297  3.6342  1.3434
  139MOL    C8639002   0.814   7.654   3.423  0.3329 -0.0241  0.1712
  139MOL    C8739003   0.832   7.600   3.551  0.1157  0.1024 -0.1147
  139MOL    C8839004   0.953   7.537   3.581  0.0534 -0.4732 -0.3005
  139MOL    C8939005   1.064   7.543   3.499  0.3889  0.6993 -0.6653
  139MOL    C9039006   1.190   7.491   3.546 -0.4118 -0.0737  0.2206
  139MOL    C9139007   1.308   7.489   3.480  0.4416 -0.4650 -0.5017
  139MOL    C9239008   1.051   7.608   3.376  0.3806 -0.3707  0.5679
  139MOL    C9339009   0.927   7.655   3.336  0.1622 -0.3296 -0.0358
  139MOL    H9439010   0.751   7.596   3.622 -0.4590  2.1912 -0.6413
  139MOL    H9539011   0.964   7.492   3.679 -0.3974 -0.9750 -0.4757
  139MOL    H9639012   1.199   7.456   3.648 -0.8787 -0.8775 -0.0099
  139MOL    H9739013   1.305   7.530   3.380  0.2476  1.1595  0.1540
  139MOL    H9839014   1.138   7.623   3.314  1.1540 -2.0248  1.2170
  139MOL    H9939015   0.932   7.708   3.242  0.7472 -0.0134  0.1716
  139MOL   C10039016   1.429   7.435   3.526 -0.0270  0.6004  0.3405
  139MOL   C10139017   1.540   7.433   3.436  0.0922  0.9701 -0.1749
  139MOL   C10239018   1.667   7.384   3.476  0.2324  0.4630  0.3302
  139MOL   C10339019   1.688   7.339   3.614  0.2742 -0.2256  0.8517
  139MOL   C10439020   1.815   7.295   3.666  0.7533  1.0357 -0.5343
  139MOL   C10539021   1.929   7.289   3.599  0.4201  0.9684 -0.0996
  139MOL   C10639022   1.579   7.349   3.699 -0.5545  0.2777 -0.2521
  139MOL   C10739023   1.458   7.404   3.662  0.4083 -0.8554 -0.1483
  139MOL   H10839024   1.535   7.449   3.329  0.0544 -0.1909 -0.3464
  139MOL   H10939025   1.751   7.384   3.409 -0.0383 -3.7825 -0.1305
  139MOL   H11039026   1.812   7.248   3.763  0.4935  1.2608 -0.4312
  139MOL   H11139027   1.923   7.326   3.497 -1.1243 -0.6205 -0.6257
  139MOL   H11239028   1.594   7.323   3.803 -0.4492 -0.1268 -0.3661
  139MOL   H11339029   1.375   7.418   3.728 -0.8715 -2.9305 -1.2567
  139MOL   C11439030   2.065   7.243   3.640  0.0346 -0.1953 -0.4355
  139MOL   C11539031   2.092   7.207   3.772 -1.0409  1.3863 -1.3188
  139MOL   C11639032   2.223   7.162   3.816  0.5965  0.3978 -0.2048
  139MOL   C11739033   2.320   7.146   3.721 -0.3382 -0.2314 -0.4447
  139MOL   C11839034   2.454   7.097   3.765  0.5022  0.1626 -0.6032
  139MOL   C11939035   2.567   7.081   3.688  0.6793 -0.2007 -0.2075
  139MOL   C12039036   2.296   7.189   3.588 -0.2302  0.3111 -0.2411
  139MOL   C12139037   2.170   7.236   3.545 -0.0908 -0.4833 -0.7476
  139MOL   H12239038   2.020   7.195   3.852 -0.9993  0.5060 -1.4089
  139MOL   H12339039   2.239   7.112   3.911 -1.6726 -0.6378 -0.3303
  139MOL   H12439040   2.460   7.061   3.867  0.0257 -1.0092 -0.9697
  139MOL   H12539041   2.566   7.123   3.589 -0.6325 -0.9896 -0.5424
  139MOL   H12639042   2.371   7.186   3.510 -0.7140  0.3717 -0.7132
  139MOL   H12739043   2.153   7.272   3.444 -0.4707  1.9111  0.1473
  139MOL   C12839044   2.682   7.010   3.742  0.6980  0.0654 -0.2194
  139MOL   C12939045   2.686   6.923   3.856  0.5704  0.2919  0.1855
  139MOL   C13039046   2.804   6.860   3.890  0.1718 -0.3268 -0.4829
  139MOL   C13139047   2.917   6.869   3.808  0.7811  1.0861  1.1270
  139MOL   C13239048   3.036   6.792   3.842  0.4361 -0.0010  0.3253
  139MOL   C13339049   3.153   6.793   3.776 -0.0009 -0.3555 -0.5789
  139MOL   C13439050   2.917   6.957   3.697 -0.0138 -0.7589 -0.2652
  139MOL   C13539051   2.799   7.029   3.663 -0.3864 -0.2830 -0.0624
  139MOL   H13639052   2.599   6.896   3.913 -0.2939 -0.4405 -1.4426
  139MOL   H13739053   2.813   6.799   3.979  1.0168  1.6706  0.8351
  139MOL   H13839054   3.026   6.737   3.934 -2.2822 -0.7201 -0.3467
  139MOL   H13939055   3.153   6.849   3.684  0.6667 -1.7902 -1.4673
  139MOL   H14039056   2.998   6.955   3.626 -0.1027  0.1111 -0.3933
  139MOL   H14139057   2.787   7.087   3.572  0.3455 -0.3599 -0.2108
  139MOL   C14239058   3.278   6.720   3.816 -0.2757 -0.7648 -0.3091
  139MOL   C14339059   3.390   6.718   3.726  0.2292 -0.0821 -0.2996
  139MOL   C14439060   3.508   6.654   3.767  0.2144 -0.1595 -0.5259
  139MOL   C14539061   3.518   6.588   3.894 -0.6285 -0.6326 -0.1893
  139MOL   C14639062   3.641   6.522   3.940 -1.2926  0.2474  1.2611
  139MOL   C14739063   3.747   6.478   3.863  0.3368  0.9642  0.5933
  139MOL   C14839064   3.409   6.596   3.982  0.0072  0.2325  0.1374
  139MOL   C14939065   3.293   6.658   3.941 -0.2583  0.4793 -0.6066
  139MOL   H15039066   3.389   6.768   3.630  2.2617 -0.1544 -0.3823
  139MOL   H15139067   3.595   6.655   3.702  0.1001  1.4649 -0.6655
  139MOL   H15239068   3.642   6.499   4.046 -0.9796  0.2587  1.2607
  139MOL   H15339069   3.734   6.492   3.757 -0.0570 -1.0064  0.3721
  139MOL   H15439070   3.420   6.549   4.079  1.4200  1.7977  0.7737
  139MOL   H15539071   3.208   6.654   4.007  1.3926 -2.1764  1.4468
  139MOL   C15639072   3.864   6.401   3.897  0.4000 -0.1941  0.4129
  139MOL   C15739073   3.884   6.330   4.018  0.4875  0.0485 -0.6464
  139MOL   C15839074   4.003   6.256   4.055  0.5466  0.5780  0.0088
  139MOL   C15939075   4.119   6.274   3.981  0.0126 -0.2019  0.7750
  139MOL   C16039076   4.240   6.199   4.021 -0.7830  0.2997 -0.1265
  139MOL   C16139077   4.355   6.178   3.953  0.4887 -0.0082  0.1965
  139MOL   C16239078   4.108   6.361   3.868 -0.4537  0.2831  0.5578
  139MOL   C16339079   3.981   6.412   3.825 -0.6254 -0.0189  0.1558
  139MOL   H16439080   3.798   6.328   4.083  1.4272  2.3407  0.7079
  139MOL   H16539081   4.015   6.216   4.154  1.6108 -0.0622 -0.3665
  139MOL   H16639082   4.244   6.172   4.125 -1.1748  0.4002 -0.0849
  139MOL   H16739083   4.363   6.191   3.846 -1.9273  0.5071  0.0488
  139MOL   H16839084   4.198   6.373   3.809  0.5817 -0.7801  1.8614
  139MOL   H16939085   3.987   6.473   3.736  0.8074  0.4259  0.5480
  139MOL   C17039086   4.483   6.128   4.007  0.2051  0.3859 -0.2005
  139MOL   C17139087   4.494   6.076   4.136  0.2940 -0.4235 -0.0116
  139MOL   C17239088   4.616   6.033   4.188 -0.9176 -0.5686  0.1774
  139MOL   C17339089   4.732   6.024   4.102 -0.0975 -0.2337  0.0769
  139MOL   C17439090   4.856   5.979   4.162  0.4498  0.2252  0.2606
  139MOL   C17539091   4.960   5.928   4.091 -0.3152 -0.1058  0.4325
  139MOL   C17639092   4.720   6.063   3.970 -0.2584  0.4015 -0.1192
  139MOL   C17739093   4.601   6.121   3.924 -0.3104 -0.2333 -0.4655
  139MOL   H17839094   4.404   6.070   4.196 -0.0144  1.9498 -0.1916
  139MOL   H17939095   4.617   6.001   4.290 -0.6940 -1.6438 -0.1597
  139MOL   H18039096   4.872   5.985   4.269  0.0050 -0.8684  0.3983
  139MOL   H18139097   4.952   5.915   3.984  0.1654  0.2588  0.3490
  139MOL   H18239098   4.810   6.047   3.913  0.9827 -0.9040  2.1349
  139MOL   H18339099   4.607   6.149   3.820  1.3524  0.6500 -0.1575
  139MOL   C18439100   5.088   5.877   4.136  0.1000 -0.2703 -0.0704
  139MOL   C18539101   5.102   5.829   4.270  0.0499 -1.0654 -0.3680
  139MOL   C18639102   5.229   5.796   4.310  0.0957 -0.1871  0.2552
  139MOL   C18739103   5.344   5.803   4.225 -0.0778  0.5377 -0.8696
  139MOL   C18839104   5.480   5.769   4.274 -0.4352 -0.1237  0.1994
  139MOL   C18939105   5.598   5.773   4.209 -0.7170  0.3619  0.1076
  139MOL   C19039106   5.326   5.843   4.089  0.4957  0.4695  0.5319
  139MOL   C19139107   5.200   5.892   4.048 -0.8665  0.3216 -0.4070
  139MOL   H19239108   5.015   5.835   4.333  1.3375 -0.6070  1.4020
  139MOL   H19339109   5.255   5.760   4.408 -0.5304 -2.5830 -0.4171
  139MOL   H19439110   5.486   5.751   4.380  1.8169 -0.1568  0.0795
  139MOL   H19539111   5.590   5.808   4.107  1.1468  0.7080  0.0614
  139MOL   H19639112   5.411   5.844   4.022 -0.8107 -0.1729 -1.1696
  139MOL   H19739113   5.199   5.942   3.952 -0.1465 -2.1936 -1.7724
  139MOL   C19839114   5.726   5.723   4.264 -0.2920  0.3512  0.8122
  139MOL   C19939115   5.741   5.683   4.393 -0.4618  0.2048  0.4473
  139MOL   C20039116   5.861   5.633   4.438  0.0001  0.2678  0.6689
  139MOL   C20139117   5.982   5.632   4.362  0.0825  1.0149  0.5710
  139MOL   C20239118   6.108   5.578   4.417 -0.3406 -0.8888 -1.0409
  139MOL   C20339119   6.228   5.612   4.370 -0.3760  0.4313 -0.3187
  139MOL   C20439120   5.964   5.678   4.231 -0.0717 -0.1484 -0.6258
  139MOL   C20539121   5.839   5.726   4.180 -0.9386  0.1701 -0.1624
  139MOL   H20639122   5.659   5.680   4.464  2.1028  0.1794  3.5216
  139MOL   H20739123   5.853   5.600   4.541 -0.4376 -0.7588  0.3102
  139MOL   H20839124   6.097   5.518   4.506 -1.2646  3.0872  1.6528
  139MOL   H20939125   6.246   5.673   4.283  1.7374  0.2210 -0.0659
  139MOL   H21039126   6.052   5.669   4.168  0.8826 -0.8384  0.7677
  139MOL   H21139127   5.833   5.777   4.085  1.0584  0.4585 -0.1544
  139MOL   C21239128   6.361   5.594   4.428 -0.2431 -0.4675 -0.2963
  139MOL   C21339129   6.371   5.581   4.573  0.4305  0.4765  0.7358
  139MOL   C21439130   6.496   5.572   4.630 -0.2475  0.5609 -0.0708
  139MOL   C21539131   6.614   5.574   4.554 -1.1795 -0.1266 -0.1879
  139MOL   C21639132   6.740   5.541   4.625  0.0936  0.1828  0.4789
  139MOL   C21739133   6.862   5.507   4.576  0.1191 -0.4137 -0.2790
  139MOL   C21839134   6.603   5.593   4.413  0.3131 -0.1344  0.2399
  139MOL   C21939135   6.478   5.607   4.349 -0.2298 -0.1570  0.4461
  139MOL   H22039136   6.282   5.571   4.632 -0.8905 -1.9717 -1.5780
  139MOL   H22139137   6.522   5.562   4.735 -1.7697  0.6601  0.3227
  139MOL   H22239138   6.727   5.563   4.730  0.1560 -0.3932  0.6086
  139MOL   H22339139   6.870   5.492   4.470  0.6857 -1.7562 -0.0578
  139MOL   H22439140   6.686   5.585   4.344 -1.1397 -3.1717 -1.2242
  139MOL   H22539141   6.471   5.635   4.245 -2.6961  0.9611  0.8756
  139MOL   C22639142   6.984   5.487   4.654  0.6704  0.3010  0.1997
  139MOL   C22739143   7.096   5.435   4.589  0.5252  0.0483  1.1107
  139MOL   C22839144   7.208   5.412   4.666 -0.4750 -0.0427 -0.1247
  139MOL   C22939145   7.212   5.434   4.805 -0.3975 -0.1693 -0.2944
  139MOL   C23039146   7.340   5.424   4.877  0.1575  0.2450 -0.1550
  139MOL   C23139147   7.452   5.366   4.835 -0.3322  0.2112 -0.3821
  139MOL   C23239148   7.102   5.494   4.870 -0.2193  0.8939 -0.4890
  139MOL   C23339149   6.991   5.518   4.791  0.1097  0.2607 -0.0810
  139MOL   H23439150   7.098   5.412   4.484 -0.0452 -0.5081  1.2201
  139MOL   H23539151   7.290   5.372   4.609  0.4525 -1.0198  1.8830
  139MOL   H23639152   7.335   5.468   4.975 -0.5925 -0.4428  0.1213
  139MOL   H23739153   7.460   5.315   4.740  1.0945 -1.7499  0.7383
  139MOL   H23839154   7.105   5.511   4.977  0.8154  1.8703 -0.6740
  139MOL   H23939155   6.910   5.565   4.843 -0.9125 -1.3885 -0.1420
  139MOL   C24039156   7.573   5.358   4.912  0.5311  0.4667 -0.4437
  139MOL   C24139157   7.696   5.333   4.853  0.7357 -0.9767  0.6373
  139MOL   C24239158   7.815   5.323   4.925 -1.1334  0.2892  0.2934
  139MOL   C24339159   7.809   5.318   5.067 -0.2579  0.0439  0.7103
  139MOL   C24439160   7.919   5.272   5.149 -0.1348 -0.6291 -0.5335
  139MOL   C24539161   8.037   5.230   5.104  0.3769 -0.4010 -0.9033
  139MOL   C24639162   7.691   5.348   5.131 -0.0007  0.5254 -0.3759
  139MOL   C24739163   7.575   5.378   5.052 -0.5252  0.0001  0.4245
  139MOL   H24839164   7.700   5.315   4.747  1.6228  1.7657  0.1798
  139MOL   H24939165   7.898   5.281   4.871 -1.0099 -0.4104  1.0187
  139MOL   H25039166   7.901   5.286   5.255  1.1564 -1.6457 -0.1721
  139MOL   H25139167   8.053   5.223   4.997 -0.6340  1.6317 -1.2145
  139MOL   H25239168   7.689   5.355   5.239  0.8941  1.1064 -0.3911
  139MOL   H25339169   7.484   5.402   5.106 -0.4730  2.4313 -0.4766
  139MOL   C25439170   0.010   5.202   5.196 -0.2268  0.6416 -0.5194
  139MOL   C25539171   8.134   5.171   5.335 -0.7996  0.1715 -0.5523
  139MOL   C25639172   0.102   5.153   5.422 -0.2391  0.7792  0.3330
  139MOL   C25739173   0.231   5.170   5.378  0.3323 -0.3190 -0.1157
  139MOL   C25839174   0.336   5.169   5.478 -0.5845 -0.8579  0.1895
  139MOL   C25939175   0.431   5.262   5.497 -0.2560 -0.2628  0.0924
  139MOL   C26039176   0.253   5.213   5.243  0.1585 -0.0057 -0.5226
  139MOL   C26139177   0.139   5.232   5.160 -0.4412 -0.2263  0.5732
  139MOL   H26239178   8.033   5.145   5.364 -0.8548 -1.2103 -1.9124
  139MOL   H26339179   0.089   5.133   5.528  0.3213  2.5205  0.7480
  139MOL   H26439180   0.346   5.072   5.525  0.9754 -1.3103 -1.0443
  139MOL   H26539181   0.510   5.228   5.562 -1.8127 -0.2971  2.0173
  139MOL   H26639182   0.346   5.242   5.196 -0.2600  1.2399 -0.6097
  139MOL   H26739183   0.151   5.275   5.062 -2.1748  0.0998  0.4914
  139MOL   C26839184   0.449   5.404   5.460 -0.3037  0.5880  0.2171
  139MOL   C26939185   0.574   5.467   5.481 -0.0253  0.0673  0.2432
  139MOL   C27039186   0.581   5.601   5.458  0.4665  0.1041 -0.7905
  139MOL   C27139187   0.469   5.673   5.415  0.8224 -1.1192  0.0895
  139MOL   C27239188   0.469   5.817   5.400  0.0753 -0.8947 -0.3659
  139MOL   C27339189   0.384   5.886   5.322 -0.4131  1.0345  0.0055
  139MOL   C27439190   0.344   5.605   5.401 -1.0936  0.0925 -0.0972
  139MOL   C27539191   0.330   5.470   5.420 -0.2047 -0.4744  0.0888
  139MOL   H27639192   0.661   5.412   5.514 -0.4126 -0.1217  0.9598
  139MOL   H27739193   0.677   5.649   5.470  1.3975 -1.7391 -0.6405
  139MOL   H27839194   0.547   5.859   5.463 -0.6408  1.8673 -1.2247
  139MOL   H27939195   0.309   5.832   5.266  0.6910  0.5195 -0.9976
  139MOL   H28039196   0.260   5.668   5.376 -0.2212  1.7781  1.1728
  139MOL   H28139197   0.233   5.423   5.412  0.1720 -1.0999 -0.9276
  139MOL   H28239198   0.394   5.994   5.317 -2.4108  1.1838 -1.4536
  140MOL     C139199   0.843   5.074   5.446  0.3525  0.6447  0.1005
  140MOL     C239200   0.734   5.081   5.537 -0.7272  0.0580  0.1265
  140MOL     C339201   0.649   4.966   5.535 -0.7338  0.1904  0.2327
  140MOL     C439202   0.679   4.856   5.450 -0.1676 -0.0291  0.4784
  140MOL     C539203   0.599   4.742   5.466  0.2022  0.3163 -0.4796
  140MOL     C639204   0.614   4.613   5.418  0.8801 -0.2337 -0.3752
  140MOL     C739205   0.780   4.860   5.356 -0.3759  1.3756  0.6080
  140MOL     C839206   0.866   4.971   5.359  0.2311  0.0838  0.1156
  140MOL     H939207   0.724   5.159   5.612  0.7124  1.2745 -0.9187
  140MOL    H1039208   0.559   4.960   5.595 -1.0094 -0.0629 -0.1987
  140MOL    H1139209   0.509   4.766   5.521 -0.0642  0.9554 -1.1721
  140MOL    H1239210   0.694   4.591   5.349 -0.9639 -1.8799 -2.0402
  140MOL    H1339211   0.808   4.776   5.294  0.4701  2.8865 -1.0901
  140MOL    H1439212   0.955   4.974   5.298  0.6303  0.7686  0.7269
  140MOL    H1539213   0.922   5.147   5.454 -0.6507  1.6463  1.1343
  140MOL    C1639214   0.527   4.495   5.448  0.4475  1.2097 -0.6865
  140MOL    C1739215   0.529   4.370   5.378  0.4493 -0.1127  0.5179
  140MOL    C1839216   0.449   4.257   5.411  0.0845  0.0738  0.2190
  140MOL    C1939217   0.366   4.260   5.526 -0.5064 -0.6515  0.3024
  140MOL    C2039218   0.281   4.148   5.558 -0.2334 -0.0470 -0.2492
  140MOL    C2139219   0.193   4.140   5.659  0.1967  0.0651  0.0800
  140MOL    C2239220   0.364   4.386   5.596  0.2117  0.3316  0.0676
  140MOL    C2339221   0.438   4.502   5.559  0.3039  0.0002  0.2770
  140MOL    H2439222   0.604   4.352   5.303  0.0110  3.0705 -0.7920
  140MOL    H2539223   0.456   4.162   5.359  0.7726 -0.1008  0.6086
  140MOL    H2639224   0.300   4.062   5.495  3.9605  0.7347 -0.1847
  140MOL    H2739225   0.193   4.223   5.729  1.5993  1.0885 -1.0986
  140MOL    H2839226   0.284   4.398   5.667 -1.4692  0.8191 -1.8570
  140MOL    H2939227   0.430   4.597   5.609  0.7246  0.6402 -0.8473
  140MOL    C3039228   0.097   4.039   5.702  0.2870  0.0031  0.4633
  140MOL    C3139229   0.078   3.908   5.650 -0.1664 -0.1075 -0.5483
  140MOL    C3239230   8.114   3.829   5.687 -0.1664 -0.1724 -0.4810
  140MOL    C3339231   8.018   3.862   5.784  0.4583 -0.2346 -0.1795
  140MOL    C3439232   7.909   3.773   5.839 -0.3436 -0.0764  0.1097
  140MOL    C3539233   7.901   3.639   5.817  0.3690  0.6926  0.6382
  140MOL    C3639234   8.037   3.997   5.844  0.1220 -0.4006 -0.1019
  140MOL    C3739235   0.004   4.077   5.805  0.0954 -0.3216  0.1682
  140MOL    H3839236   0.144   3.886   5.567  2.0616 -1.2678  1.4940
  140MOL    H3939237   8.102   3.729   5.648 -0.3693 -0.8368  1.2735
  140MOL    H4039238   7.832   3.828   5.891  0.8815  1.0902  0.7267
  140MOL    H4139239   7.977   3.593   5.755 -2.5627  0.4319 -2.9219
  140MOL    H4239240   7.967   4.029   5.920  0.4788  1.9783 -0.7337
  140MOL    H4339241   0.012   4.176   5.849 -0.1016 -0.6361  0.9289
  140MOL    C4439242   7.794   3.546   5.852 -0.0972 -0.0548  0.0424
  140MOL    C4539243   7.796   3.413   5.802  1.0048  0.7401 -0.0259
  140MOL    C4639244   7.690   3.326   5.824  0.2200 -0.8901 -0.1231
  140MOL    C4739245   7.575   3.367   5.894 -0.2626  0.4166  0.3119
  140MOL    C4839246   7.462   3.278   5.899  0.1785 -0.4251  0.3673
  140MOL    C4939247   7.351   3.294   5.968  0.5722  0.1892 -0.4986
  140MOL    C5039248   7.574   3.503   5.941 -0.3018  0.1500  0.2197
  140MOL    C5139249   7.684   3.588   5.933  0.9996 -0.0229  0.8532
  140MOL    H5239250   7.886   3.374   5.757  2.3260  2.0969  1.3181
  140MOL    H5339251   7.695   3.224   5.787 -2.5266 -1.0463 -0.1619
  140MOL    H5439252   7.470   3.189   5.839 -0.6151 -1.5322  1.8819
  140MOL    H5539253   7.346   3.374   6.040  1.5961 -0.4581  0.3188
  140MOL    H5639254   7.488   3.541   5.994 -0.6973  1.1701 -1.1180
  140MOL    H5739255   7.679   3.693   5.957  4.0977  0.0603  1.4355
  140MOL    C5839256   7.235   3.205   5.970 -0.8973 -0.0898  0.0995
  140MOL    C5939257   7.240   3.073   5.909 -0.2332 -0.9848 -1.0381
  140MOL    C6039258   7.122   2.998   5.890 -0.0221  0.1712  0.0303
  140MOL    C6139259   6.999   3.051   5.941 -0.0925  1.1226 -0.3163
  140MOL    C6239260   6.875   2.969   5.913  0.1809  0.2596  0.0315
  140MOL    C6339261   6.744   2.988   5.943  0.3050 -0.2601 -0.6870
  140MOL    C6439262   6.995   3.172   6.020 -0.4356  0.3669 -0.1587
  140MOL    C6539263   7.111   3.255   6.017  0.2296 -0.1671  0.4773
  140MOL    H6639264   7.337   3.036   5.878  0.4408  1.1719 -1.6188
  140MOL    H6739265   7.126   2.897   5.853 -2.0140 -0.5899  1.8208
  140MOL    H6839266   6.909   2.884   5.856 -3.5366 -0.3894 -1.3035
  140MOL    H6939267   6.718   3.082   5.989  0.6678 -0.0594 -0.8930
  140MOL    H7039268   6.902   3.213   6.057 -0.0880  2.8867 -1.9412
  140MOL    H7139269   7.100   3.352   6.064 -1.0013 -0.7676  1.4680
  140MOL    C7239270   6.640   2.897   5.934  0.3862 -0.0440 -0.0081
  140MOL    C7339271   6.506   2.949   5.936  0.4256  0.7076 -0.3482
  140MOL    C7439272   6.401   2.862   5.899 -0.1056 -0.2480 -0.8936
  140MOL    C7539273   6.421   2.721   5.872  0.8468 -0.0116 -0.2355
  140MOL    C7639274   6.316   2.622   5.848 -0.5406  0.4991 -0.1454
  140MOL    C7739275   6.186   2.655   5.834  0.0183  0.4073  0.1791
  140MOL    C7839276   6.555   2.681   5.853 -0.1916 -0.3151  0.4965
  140MOL    C7939277   6.661   2.770   5.887 -0.5321 -0.1245  0.3405
  140MOL    H8039278   6.489   3.053   5.960 -1.4791  0.0500  1.3446
  140MOL    H8139279   6.301   2.902   5.897 -1.0784 -2.2889  2.3666
  140MOL    H8239280   6.348   2.518   5.849  0.3086  0.7591  0.0583
  140MOL    H8339281   6.159   2.759   5.844  0.1628  0.4015  0.6685
  140MOL    H8439282   6.578   2.579   5.824  0.3531 -0.1933  0.4927
  140MOL    H8539283   6.765   2.742   5.878 -1.3757 -2.7113 -2.2241
  140MOL    C8639284   6.073   2.562   5.817 -0.1563 -0.6326  0.4981
  140MOL    C8739285   6.081   2.431   5.782 -0.2832  0.4183  0.2546
  140MOL    C8839286   5.961   2.351   5.762 -0.4212  0.6022 -0.1793
  140MOL    C8939287   5.833   2.412   5.791  0.5054  0.2075  0.2438
  140MOL    C9039288   5.708   2.337   5.754 -0.5002 -0.0788 -0.3089
  140MOL    C9139289   5.579   2.383   5.758  0.1749 -0.6004 -0.2926
  140MOL    C9239290   5.830   2.543   5.843  0.4621 -0.2408  0.4229
  140MOL    C9339291   5.949   2.618   5.854 -0.7004 -0.1439 -0.8466
  140MOL    H9439292   6.174   2.402   5.735 -0.4840  1.2934 -0.7036
  140MOL    H9539293   5.961   2.250   5.725 -3.6074  0.2401  0.7034
  140MOL    H9639294   5.716   2.236   5.717  0.0703  0.2452 -1.0760
  140MOL    H9739295   5.573   2.486   5.790 -0.6893  0.3133 -3.2276
  140MOL    H9839296   5.737   2.585   5.878  0.6288  0.0891  0.4696
  140MOL    H9939297   5.939   2.722   5.880 -1.6805 -0.8034  1.5415
  140MOL   C10039298   5.458   2.312   5.717 -0.3486 -0.7845 -0.6106
  140MOL   C10139299   5.334   2.367   5.739  0.0616  0.2170 -0.2117
  140MOL   C10239300   5.212   2.299   5.731 -0.3437  0.4903  0.4982
  140MOL   C10339301   5.212   2.163   5.693 -0.4595  0.7569 -0.2171
  140MOL   C10439302   5.093   2.085   5.670  0.0984  0.1761 -0.1068
  140MOL   C10539303   4.965   2.127   5.670 -0.1242 -0.6853  0.1170
  140MOL   C10639304   5.342   2.099   5.672  0.2513  0.6074 -0.3395
  140MOL   C10739305   5.459   2.175   5.674  0.0708 -0.4926  0.2357
  140MOL   H10839306   5.322   2.460   5.791  0.7641 -1.5194  3.1863
  140MOL   H10939307   5.121   2.357   5.735 -0.3492  0.3551  2.5196
  140MOL   H11039308   5.118   1.981   5.657  0.7257  0.4343 -1.0582
  140MOL   H11139309   4.952   2.230   5.701  0.2333 -0.2992 -1.0047
  140MOL   H11239310   5.340   1.994   5.647  0.1717 -0.0525  2.3829
  140MOL   H11339311   5.552   2.124   5.658 -1.5626 -3.6009  0.2598
  140MOL   C11439312   4.848   2.048   5.646  0.5861 -0.0095  0.2555
  140MOL   C11539313   4.723   2.105   5.648 -0.6271 -0.2348  0.1642
  140MOL   C11639314   4.611   2.024   5.634  0.4131 -0.0732  0.0301
  140MOL   C11739315   4.619   1.883   5.623  0.5823  0.4112 -0.0896
  140MOL   C11839316   4.502   1.797   5.624  0.1864 -0.1792 -0.0122
  140MOL   C11939317   4.388   1.834   5.672 -0.2729 -0.3746 -0.9161
  140MOL   C12039318   4.749   1.825   5.616  0.0555 -0.1569  0.5024
  140MOL   C12139319   4.858   1.909   5.608  0.4097 -0.3544  0.0692
  140MOL   H12239320   4.712   2.211   5.664  0.0386 -0.0326 -0.6704
  140MOL   H12339321   4.517   2.077   5.633 -0.5141 -1.6594  1.4227
  140MOL   H12439322   4.522   1.696   5.590 -0.4303 -0.4754  0.5015
  140MOL   H12539323   4.367   1.935   5.704 -3.4092 -0.9215 -1.0340
  140MOL   H12639324   4.760   1.718   5.613 -0.2956 -0.1583 -2.0367
  140MOL   H12739325   4.953   1.858   5.616  1.0807  0.6814 -1.2446
  140MOL   C12839326   4.270   1.752   5.700  0.1257  0.3733 -0.5086
  140MOL   C12939327   4.274   1.608   5.689  0.3938  0.1951  0.0260
  140MOL   C13039328   4.155   1.535   5.711 -0.2513  0.5729  0.0844
  140MOL   C13139329   4.031   1.595   5.720 -0.0961 -0.2397 -0.0645
  140MOL   C13239330   3.918   1.508   5.752 -0.0044  0.0654  0.1809
  140MOL   C13339331   3.797   1.552   5.780 -0.0010 -0.4278 -0.0363
  140MOL   C13439332   4.028   1.738   5.718 -0.4091 -0.0894 -0.8056
  140MOL   C13539333   4.145   1.814   5.706 -0.4869 -1.0267  0.0561
  140MOL   H13639334   4.366   1.554   5.676 -1.1165 -2.2416 -0.8373
  140MOL   H13739335   4.163   1.428   5.719  0.5751  0.7549  2.0223
  140MOL   H13839336   3.935   1.402   5.761  0.9883  0.2029 -0.0121
  140MOL   H13939337   3.781   1.657   5.762  0.5393 -0.6960 -2.1328
  140MOL   H14039338   3.932   1.787   5.722  0.0506  0.6392  2.5317
  140MOL   H14139339   4.134   1.921   5.703  1.4002 -0.8279 -0.0925
  140MOL   C14239340   3.683   1.478   5.825 -0.1929  0.3472  0.0697
  140MOL   C14339341   3.588   1.550   5.901 -0.4815  0.1438  0.1599
  140MOL   C14439342   3.493   1.486   5.980  0.3253  0.2435  0.4945
  140MOL   C14539343   3.487   1.345   5.975  0.3116 -0.4246 -0.2324
  140MOL   C14639344   3.408   1.266   6.074  0.5334  0.5401  0.1087
  140MOL   C14739345   3.303   1.306   6.144  1.0565  0.4300 -0.9254
  140MOL   C14839346   3.567   1.278   5.878  0.9037 -0.7355 -0.8935
  140MOL   C14939347   3.668   1.341   5.807  0.0414  0.6040  0.2521
  140MOL   H15039348   3.608   1.655   5.917 -0.1740 -0.0114  0.8376
  140MOL   H15139349   3.433   1.534   6.055 -0.2839  0.2090  0.0351
  140MOL   H15239350   3.442   1.164   6.084  0.2190  0.5315  1.1369
  140MOL   H15339351   3.258   1.403   6.126 -2.8279 -1.4656 -1.8969
  140MOL   H15439352   3.559   1.171   5.873 -0.2069 -0.7131 -0.0340
  140MOL   H15539353   3.733   1.277   5.749 -1.4956  0.4222 -1.3053
  140MOL   C15639354   3.241   1.240   6.262  0.1089  0.5099 -0.1046
  140MOL   C15739355   3.302   1.122   6.321 -0.5169 -0.3377 -0.0455
  140MOL   C15839356   3.262   1.086   6.447  0.2744  0.5466 -0.2945
  140MOL   C15939357   3.157   1.149   6.519 -0.2408  0.0696  0.1876
  140MOL   C16039358   3.132   1.116   6.662  0.4315  0.4050  0.0516
  140MOL   C16139359   3.235   1.109   6.750  1.3105 -0.9138 -0.4468
  140MOL   C16239360   3.082   1.246   6.452 -0.0721  0.8908 -0.0394
  140MOL   C16339361   3.126   1.295   6.327  0.3056 -0.5464 -0.5957
  140MOL   H16439362   3.389   1.077   6.275 -2.3017 -0.4725 -3.4599
  140MOL   H16539363   3.317   1.005   6.493 -0.8078 -0.3255 -0.5176
  140MOL   H16639364   3.029   1.101   6.691  0.7268  0.9532  1.4429
  140MOL   H16739365   3.332   1.129   6.705  1.6994 -0.6440  0.4828
  140MOL   H16839366   2.999   1.299   6.495 -0.5127 -1.2528  1.9008
  140MOL   H16939367   3.067   1.357   6.261 -0.7724 -0.9253 -0.0025
  140MOL   C17039368   3.218   1.082   6.894 -0.1806 -0.4018 -0.0712
  140MOL   C17139369   3.093   1.047   6.952  0.2334 -0.0141 -0.7943
  140MOL   C17239370   3.075   1.044   7.087 -0.6928 -0.6253  0.4547
  140MOL   C17339371   3.184   1.087   7.169 -0.2055  0.5817 -0.1013
  140MOL   C17439372   3.160   1.104   7.311 -0.4023  0.6876  0.3738
  140MOL   C17539373   3.231   1.188   7.387  0.1362 -0.4211 -0.0586
  140MOL   C17639374   3.306   1.123   7.111  0.0812 -0.1417 -0.2227
  140MOL   C17739375   3.327   1.108   6.975  0.6089 -0.0465 -0.5805
  140MOL   H17839376   3.011   1.037   6.883  0.2430 -2.4259 -0.4755
  140MOL   H17939377   2.977   1.026   7.130  0.1535 -3.1455  1.4331
  140MOL   H18039378   3.077   1.045   7.346 -0.1538 -0.4086 -0.8604
  140MOL   H18139379   3.314   1.250   7.357  0.9492 -1.3792  0.1931
  140MOL   H18239380   3.392   1.145   7.173  0.2285 -1.8131  0.1999
  140MOL   H18339381   3.420   1.137   6.928 -0.0965  1.3362 -1.1721
  140MOL   C18439382   3.189   1.226   7.520  0.3983  0.7328 -0.0067
  140MOL   C18539383   3.218   1.356   7.563 -0.1827 -0.0044  0.5125
  140MOL   C18639384   3.184   1.400   7.690 -0.3268 -0.1349  0.5251
  140MOL   C18739385   3.112   1.314   7.777 -0.1595 -0.2141 -0.2508
  140MOL   C18839386   3.076   1.344   7.910 -0.1308  0.8837 -0.1449
  140MOL   C18939387   3.145   1.434   7.987 -0.1463 -0.2041 -0.1969
  140MOL   C19039388   3.078   1.188   7.731  0.3246  0.7372  0.2611
  140MOL   C19139389   3.121   1.136   7.605  0.4006  0.2863  0.1108
  140MOL   H19239390   3.272   1.422   7.497 -1.7491  0.9755  0.1853
  140MOL   H19339391   3.211   1.496   7.732 -1.9600  0.4271  0.3302
  140MOL   H19439392   3.001   1.288   7.965  0.1690  0.2872 -0.3313
  140MOL   H19539393   3.224   1.486   7.935 -2.2529  1.4554 -1.7856
  140MOL   H19639394   3.020   1.122   7.795  1.5207 -1.2033 -0.5936
  140MOL   H19739395   3.088   1.041   7.564  0.4520  0.6288 -0.7496
  140MOL   C19839396   3.127   1.465   8.130  0.4625 -0.2912 -0.0602
  140MOL   C19939397   3.198   1.571   0.042  0.3278  0.2450  0.0766
  140MOL   C20039398   3.198   1.587   0.181 -0.0951 -0.7074 -0.0611
  140MOL   C20139399   3.116   1.504   0.264 -1.1062  0.4721  0.0497
  140MOL   C20239400   3.114   1.536   0.405 -0.0398 -0.1561  0.0392
  140MOL   C20339401   3.030   1.489   0.499  0.0380 -0.1716  0.1460
  140MOL   C20439402   3.040   1.404   0.205  0.6568  1.3340  0.0042
  140MOL   C20539403   3.038   1.382   0.066  0.1390 -1.0857 -0.3172
  140MOL   H20639404   3.256   1.633   8.119 -0.2438  1.2941  0.5339
  140MOL   H20739405   3.260   1.662   0.228  1.1104 -2.2681  0.9063
  140MOL   H20839406   3.191   1.606   0.433  0.3539 -0.6362  0.1768
  140MOL   H20939407   2.947   1.427   0.469 -1.4499  2.1315 -0.5878
  140MOL   H21039408   2.977   1.333   0.257  2.4456  0.9971  1.7909
  140MOL   H21139409   2.970   1.309   0.024 -0.6814  0.2598 -1.3997
  140MOL   C21239410   3.036   1.518   0.639  1.0228  0.2543 -0.0139
  140MOL   C21339411   2.917   1.537   0.716  0.1940 -0.4499 -0.1863
  140MOL   C21439412   2.921   1.562   0.855 -0.6009  0.5812 -0.3550
  140MOL   C21539413   3.040   1.568   0.920  0.0876 -0.2030 -0.3100
  140MOL   C21639414   3.039   1.565   1.069  0.0070  0.2606  0.4156
  140MOL   C21739415   3.152   1.594   1.146 -0.5079  0.0648 -0.4378
  140MOL   C21839416   3.162   1.559   0.847 -0.7758  0.0638 -0.8007
  140MOL   C21939417   3.160   1.533   0.711  0.0111 -0.5107  0.3800
  140MOL   H22039418   2.819   1.537   0.670 -0.6705 -0.1490  1.6036
  140MOL   H22139419   2.830   1.562   0.914  0.4741 -1.0213  1.3719
  140MOL   H22239420   2.947   1.531   1.116  0.0610  2.0788  1.8985
  140MOL   H22339421   3.244   1.625   1.099  0.7882  0.2098  2.1004
  140MOL   H22439422   3.260   1.563   0.892 -0.0758 -0.5223 -2.2104
  140MOL   H22539423   3.252   1.508   0.660  0.6867  1.5564  0.5448
  140MOL   C22639424   3.174   1.589   1.290  0.0989 -0.3158  0.1854
  140MOL   C22739425   3.299   1.608   1.342 -0.3868 -0.3691  0.3084
  140MOL   C22839426   3.326   1.592   1.479  0.2636  0.2082  0.4966
  140MOL   C22939427   3.227   1.551   1.570  0.3531 -0.6637 -1.1663
  140MOL   C23039428   3.250   1.506   1.709  0.0293  0.3612 -0.7379
  140MOL   C23139429   3.363   1.516   1.780 -0.2035  0.4878 -0.8204
  140MOL   C23239430   3.096   1.556   1.519 -0.4414 -0.2104 -0.2753
  140MOL   C23339431   3.070   1.557   1.380 -0.5275  0.1387  0.0275
  140MOL   H23439432   3.385   1.630   1.280 -2.0757 -0.9276 -2.3422
  140MOL   H23539433   3.430   1.583   1.508 -0.0116  1.0314  1.7793
  140MOL   H23639434   3.173   1.455   1.764  0.7124  1.3496  1.1970
  140MOL   H23739435   3.452   1.559   1.736  1.3918 -0.6732  1.1753
  140MOL   H23839436   3.008   1.548   1.581  1.2898 -1.5657  2.0912
  140MOL   H23939437   2.970   1.552   1.340 -0.4710 -1.0548  0.0135
  140MOL   C24039438   3.382   1.477   1.922  0.5703  0.6431  0.1123
  140MOL   C24139439   3.516   1.459   1.968  0.1469 -0.1579  0.3040
  140MOL   C24239440   3.540   1.417   2.102 -0.4420  0.5078  0.5541
  140MOL   C24339441   3.436   1.402   2.191  0.1222  0.4798  0.0110
  140MOL   C24439442   3.471   1.377   2.325 -0.2921  0.2759 -0.0437
  140MOL   C24539443   3.388   1.396   2.431 -0.4465 -0.1484 -0.2773
  140MOL   C24639444   3.303   1.428   2.142 -0.7425  1.1696  0.5001
  140MOL   C24739445   3.281   1.458   2.008 -0.2424 -0.1068 -0.5762
  140MOL   H24839446   3.599   1.467   1.899  0.1369  1.6873  0.4663
  140MOL   H24939447   3.640   1.409   2.141 -0.3110  0.6092  0.2442
  140MOL   H25039448   3.572   1.345   2.348  0.8481  4.2567  0.9251
  140MOL   H25139449   3.289   1.436   2.415 -1.9522 -4.1640 -1.4281
  140MOL   H25239450   3.217   1.417   2.207  0.2125  0.7769  1.7155
  140MOL   H25339451   3.178   1.466   1.975  0.0309 -1.0907 -1.6752
  140MOL   C25439452   3.429   1.365   2.565 -0.9869 -0.0554  0.2115
  140MOL   C25539453   3.563   1.314   2.595  0.4974 -0.3456 -0.5991
  140MOL   C25639454   3.593   1.265   2.726  0.1302  0.5510  0.1123
  140MOL   C25739455   3.500   1.265   2.827  0.3132 -0.2544 -0.4035
  140MOL   C25839456   3.525   1.222   2.960  0.0600 -0.7580 -1.0022
  140MOL   C25939457   3.639   1.221   3.034  0.5903 -0.5279 -0.4227
  140MOL   C26039458   3.374   1.323   2.799 -0.2123  0.8163 -0.1454
  140MOL   C26139459   3.343   1.373   2.672 -0.0257 -0.2663  0.1161
  140MOL   H26239460   3.645   1.295   2.527  2.5490  1.8404  1.1595
  140MOL   H26339461   3.693   1.229   2.748  1.1682  2.7019 -0.8353
  140MOL   H26439462   3.440   1.176   3.008 -0.2225 -0.3983 -1.1543
  140MOL   H26539463   3.636   1.175   3.132 -1.4032  1.7588  0.6314
  140MOL   H26639464   3.299   1.326   2.877 -0.0623 -0.2483  0.0488
  140MOL   H26739465   3.249   1.416   2.643  2.0412  2.4335 -3.0062
  140MOL   C26839466   3.775   1.280   3.004  0.2983 -0.5506 -0.4154
  140MOL   C26939467   3.797   1.404   2.934  0.1079 -0.2434  0.0190
  140MOL   C27039468   3.920   1.467   2.920 -0.6518  0.2406 -1.1959
  140MOL   C27139469   4.031   1.404   2.982 -0.4775  1.2945 -0.5039
  140MOL   C27239470   4.162   1.465   2.965  0.0561 -0.1341  0.1009
  140MOL   C27339471   4.185   1.597   2.982 -0.5630  0.2725 -0.4347
  140MOL   C27439472   4.015   1.280   3.047 -0.1596 -0.6617 -0.0729
  140MOL   C27539473   3.888   1.224   3.065  0.0225  0.0167  0.1590
  140MOL   H27639474   3.710   1.449   2.888 -2.0502 -2.5593  1.7024
  140MOL   H27739475   3.929   1.559   2.863 -0.4686  0.9054 -0.1062
  140MOL   H27839476   4.245   1.401   2.940  1.1192  0.8495  0.9867
  140MOL   H27939477   4.094   1.651   3.003 -1.3553 -1.6042  1.1325
  140MOL   H28039478   4.110   1.246   3.086  0.6338  1.6187  0.0903
  140MOL   H28139479   3.872   1.139   3.130 -0.0250 -1.3060 -1.5293
  140MOL   H28239480   4.282   1.644   2.975 -0.7668  0.5031 -2.0505
  141MOL     C139481   3.319   5.980   4.750 -0.0607 -1.0167 -0.9247
  141MOL     C239482   3.333   6.087   4.667 -0.0901 -0.7945 -0.3728
  141MOL     C339483   3.225   6.172   4.646 -0.2568  0.3566 -0.1670
  141MOL     C439484   3.098   6.147   4.706 -0.7531 -0.4295 -0.4409
  141MOL     C539485   2.987   6.243   4.687 -0.2349 -0.3506 -0.7579
  141MOL     C639486   2.869   6.241   4.756 -0.2086 -0.3544  0.0510
  141MOL     C739487   3.089   6.040   4.797 -0.5764  0.3671  0.5369
  141MOL     C839488   3.201   5.964   4.827 -0.1628  0.7050  0.5118
  141MOL     H939489   3.425   6.105   4.614  1.1275 -0.5852  1.7634
  141MOL    H1039490   3.245   6.258   4.583  1.9395  0.5686  0.8037
  141MOL    H1139491   3.011   6.315   4.610  0.6586 -1.3580 -1.4549
  141MOL    H1239492   2.852   6.165   4.831  0.0497 -1.8955 -1.4191
  141MOL    H1339493   2.992   6.027   4.844 -1.3045 -2.2382 -1.5685
  141MOL    H1439494   3.179   5.883   4.895 -1.2044  0.2892 -0.3030
  141MOL    H1539495   3.403   5.913   4.756 -0.0360 -0.8399  0.8272
  141MOL    C1639496   2.763   6.338   4.729  0.8219 -0.1539 -0.3734
  141MOL    C1739497   2.754   6.425   4.620  0.5167 -0.0703 -0.2130
  141MOL    C1839498   2.642   6.511   4.607  0.1021 -0.2766 -0.3973
  141MOL    C1939499   2.538   6.514   4.701 -0.4766 -0.1297  0.4590
  141MOL    C2039500   2.417   6.588   4.686  0.3651 -0.8397  0.2775
  141MOL    C2139501   2.369   6.640   4.573 -0.3862 -0.3270  0.1694
  141MOL    C2239502   2.547   6.432   4.813 -0.2222 -0.7862 -0.6602
  141MOL    C2339503   2.653   6.340   4.826 -0.8794  0.8755  0.9336
  141MOL    H2439504   2.830   6.416   4.544 -0.0831 -0.8914 -0.7201
  141MOL    H2539505   2.635   6.568   4.516 -1.5641 -1.8444 -1.2762
  141MOL    H2639506   2.368   6.612   4.779  2.5620  1.2777  0.9511
  141MOL    H2739507   2.427   6.623   4.484  0.1337  1.5665  0.1350
  141MOL    H2839508   2.466   6.430   4.884 -0.9236 -0.5556 -1.4511
  141MOL    H2939509   2.650   6.271   4.909  0.7141 -0.4116 -0.0382
  141MOL    C3039510   2.244   6.719   4.561 -0.0189 -0.5277  0.4894
  141MOL    C3139511   2.191   6.758   4.434  0.3323  1.2187  0.2208
  141MOL    C3239512   2.067   6.824   4.417  0.2647 -0.2344  0.2428
  141MOL    C3339513   2.001   6.870   4.534 -0.1018 -0.4627 -0.4578
  141MOL    C3439514   1.866   6.931   4.512 -0.3062  0.5276 -0.1580
  141MOL    C3539515   1.792   6.985   4.607 -0.0061  0.3861 -0.0078
  141MOL    C3639516   2.054   6.841   4.660  0.0555  0.4904  0.8719
  141MOL    C3739517   2.171   6.765   4.669  0.0340  0.1709 -0.4298
  141MOL    H3839518   2.246   6.717   4.350  0.0703 -0.0939  0.6651
  141MOL    H3939519   2.023   6.849   4.322 -1.8188  0.9474  1.4847
  141MOL    H4039520   1.829   6.940   4.411 -0.1089 -1.8035 -0.4649
  141MOL    H4139521   1.844   6.981   4.702  0.7676  1.4494 -0.3767
  141MOL    H4239522   1.999   6.871   4.747  0.7694 -1.2581  1.9462
  141MOL    H4339523   2.204   6.754   4.771  0.7392  1.6058 -0.5018
  141MOL    C4439524   1.664   7.058   4.600 -0.3033  0.8916 -0.4846
  141MOL    C4539525   1.610   7.117   4.714  0.2128 -0.1545  0.4914
  141MOL    C4639526   1.493   7.196   4.703 -0.6236  0.5006  0.5717
  141MOL    C4739527   1.425   7.226   4.582  1.1386  0.1103 -0.2376
  141MOL    C4839528   1.307   7.316   4.580  0.1517 -0.0729  0.3427
  141MOL    C4939529   1.275   7.404   4.676  0.0621  0.1731 -0.8876
  141MOL    C5039530   1.483   7.160   4.467  0.6382  0.4752  0.0724
  141MOL    C5139531   1.599   7.084   4.478  0.0525  0.3605  0.3310
  141MOL    H5239532   1.658   7.097   4.809 -1.0036  1.1329  1.4007
  141MOL    H5339533   1.438   7.230   4.789 -0.9138  0.3292  0.4550
  141MOL    H5439534   1.253   7.316   4.486 -0.6910  1.9306  0.8094
  141MOL    H5539535   1.332   7.420   4.767  0.7521  2.2318 -1.6779
  141MOL    H5639536   1.449   7.180   4.367  0.0651  0.2614  0.2189
  141MOL    H5739537   1.643   7.045   4.387  0.6558 -1.4009  1.3532
  141MOL    C5839538   1.158   7.493   4.666 -0.5816  0.1729 -0.0378
  141MOL    C5939539   1.155   7.609   4.746  1.6018 -0.2980  0.3053
  141MOL    C6039540   1.054   7.706   4.726 -0.1234 -0.5537  0.1785
  141MOL    C6139541   0.956   7.684   4.626 -0.3549 -0.2196  0.0334
  141MOL    C6239542   0.858   7.789   4.608  0.1829  0.0952  0.3654
  141MOL    C6339543   0.739   7.787   4.546  0.3034  0.4426 -0.2348
  141MOL    C6439544   0.960   7.565   4.551  0.0110  0.9405 -0.2636
  141MOL    C6539545   1.053   7.467   4.570  0.1031  0.4624 -0.2313
  141MOL    H6639546   1.237   7.644   4.807  1.1476 -1.1410  1.4093
  141MOL    H6739547   1.060   7.802   4.776  2.8734 -1.0279  0.8339
  141MOL    H6839548   0.882   7.885   4.651 -0.6121  0.7788 -0.6898
  141MOL    H6939549   0.703   7.699   4.496  2.3335  0.2034 -1.2801
  141MOL    H7039550   0.868   7.543   4.497 -0.5076  2.4418 -0.0299
  141MOL    H7139551   1.045   7.372   4.519 -1.1562 -0.2122  1.1829
  141MOL    C7239552   0.649   7.905   4.539 -0.6976  0.0335 -0.4739
  141MOL    C7339553   0.686   8.038   4.571 -0.3941  0.6183 -0.1711
  141MOL    C7439554   0.605   0.002   4.544  0.1485 -0.0538  0.0748
  141MOL    C7539555   0.470   8.132   4.502 -0.1649 -0.4567  0.2637
  141MOL    C7639556   0.398   0.112   4.474 -0.2636  0.5035  0.2565
  141MOL    C7739557   0.409   0.217   4.560 -0.3942 -0.4392  0.4594
  141MOL    C7839558   0.421   7.998   4.486  0.2415 -0.4758  0.0969
  141MOL    C7939559   0.513   7.889   4.499  0.6469 -0.9804  0.3375
  141MOL    H8039560   0.789   8.066   4.590 -0.1850 -0.3669  0.1938
  141MOL    H8139561   0.643   0.103   4.550  1.5518 -0.5107 -0.8191
  141MOL    H8239562   0.342   0.121   4.382 -0.1132 -1.7432 -0.0616
  141MOL    H8339563   0.468   0.202   4.649  2.8797 -0.2803 -1.5747
  141MOL    H8439564   0.323   7.975   4.448 -0.1283 -1.7093  1.7748
  141MOL    H8539565   0.466   7.792   4.489  1.5094 -1.1904 -2.0564
  141MOL    C8639566   0.356   0.355   4.545  0.2096 -0.3387  0.2610
  141MOL    C8739567   0.395   0.446   4.641  0.0138 -0.1090  0.7390
  141MOL    C8839568   0.369   0.582   4.619 -0.0068 -0.3839  0.2949
  141MOL    C8939569   0.305   0.629   4.501 -0.1290  0.3385  0.2298
  141MOL    C9039570   0.308   0.781   4.484 -0.6320 -0.0272  0.3435
  141MOL    C9139571   0.313   0.849   4.369 -0.3245  0.1553  0.1659
  141MOL    C9239572   0.258   0.529   4.404 -0.9767 -0.1467 -0.2868
  141MOL    C9339573   0.279   0.391   4.430  0.5334 -0.3964 -0.0566
  141MOL    H9439574   0.454   0.411   4.724  1.7960  0.2464 -0.3349
  141MOL    H9539575   0.437   0.643   4.676  1.9168 -0.4065 -1.8672
  141MOL    H9639576   0.314   0.840   4.575 -1.0616  0.7921 -0.1567
  141MOL    H9739577   0.304   0.797   4.274 -0.8166  0.7075 -0.0903
  141MOL    H9839578   0.224   0.565   4.308  0.4032  0.3536 -0.6021
  141MOL    H9939579   0.258   0.316   4.356 -0.1046 -1.1534  0.8829
  141MOL   C10039580   0.349   0.990   4.360  0.0311 -0.1448  0.2019
  141MOL   C10139581   0.370   1.056   4.235  0.5087  0.4249  0.3785
  141MOL   C10239582   0.422   1.186   4.217  0.2005  0.5667 -0.2562
  141MOL   C10339583   0.471   1.251   4.332  0.2564  0.1726  0.1869
  141MOL   C10439584   0.559   1.366   4.328  0.3186  0.1372  0.3903
  141MOL   C10539585   0.631   1.407   4.435  0.1374 -0.1640  0.2399
  141MOL   C10639586   0.431   1.199   4.459 -0.2637  0.2771  0.5524
  141MOL   C10739587   0.369   1.075   4.472  0.0839  0.5508 -0.5347
  141MOL   H10839588   0.326   1.002   4.152 -0.8517  0.9004  0.7778
  141MOL   H10939589   0.421   1.239   4.123  0.0541 -0.7419 -0.9985
  141MOL   H11039590   0.561   1.421   4.235 -1.6165 -1.1058 -0.4227
  141MOL   H11139591   0.636   1.352   4.528  0.3807 -0.7656 -0.1236
  141MOL   H11239592   0.456   1.243   4.555 -0.1783 -0.2680  0.7832
  141MOL   H11339593   0.372   1.037   4.573 -2.6063  2.6330  0.4190
  141MOL   C11439594   0.733   1.518   4.440  0.5933  0.0713  0.5414
  141MOL   C11539595   0.828   1.510   4.540  0.3210 -0.4024 -0.9812
  141MOL   C11639596   0.937   1.601   4.542  0.0902 -0.6184  0.1517
  141MOL   C11739597   0.957   1.686   4.435 -0.0865 -0.2932  0.2228
  141MOL   C11839598   1.073   1.776   4.440  0.3152 -0.0536 -0.1436
  141MOL   C11939599   1.117   1.842   4.552 -0.1837 -0.5397 -0.1755
  141MOL   C12039600   0.866   1.690   4.326  0.1203  0.5560 -0.3779
  141MOL   C12139601   0.759   1.604   4.332  0.6419  0.2388 -0.5520
  141MOL   H12239602   0.810   1.433   4.614 -1.0010 -1.1430 -2.0569
  141MOL   H12339603   1.004   1.584   4.625  1.5269 -0.3205 -0.9260
  141MOL   H12439604   1.122   1.780   4.343  1.4688  1.2956  0.4826
  141MOL   H12539605   1.055   1.842   4.640 -1.1919 -0.3896 -0.8805
  141MOL   H12639606   0.888   1.768   4.254 -0.3905  1.0006 -0.0552
  141MOL   H12739607   0.694   1.589   4.247 -1.6933 -1.0471  1.3767
  141MOL   C12839608   1.245   1.915   4.579  0.1294 -0.3384 -0.5609
  141MOL   C12939609   1.355   1.915   4.494 -0.0168 -0.4411  0.1710
  141MOL   C13039610   1.473   1.983   4.537  0.7468  0.4055 -0.3134
  141MOL   C13139611   1.477   2.051   4.662  0.1268  0.0717 -0.8668
  141MOL   C13239612   1.601   2.111   4.698 -0.1599 -0.3206  0.2787
  141MOL   C13339613   1.625   2.202   4.796 -0.4051  0.5952  0.2711
  141MOL   C13439614   1.365   2.052   4.747 -0.2331 -0.7893 -0.4591
  141MOL   C13539615   1.250   1.987   4.705  0.2178  0.9410  0.5424
  141MOL   H13639616   1.362   1.857   4.403  0.8832  1.6451 -1.1296
  141MOL   H13739617   1.562   1.982   4.475  1.2006 -0.7685  0.3475
  141MOL   H13839618   1.680   2.077   4.633 -3.2553 -0.8118 -3.3576
  141MOL   H13939619   1.552   2.247   4.862 -0.8229 -0.6130  0.6456
  141MOL   H14039620   1.361   2.100   4.844 -0.6950  0.6424 -1.1609
  141MOL   H14139621   1.163   1.993   4.768 -0.2042  0.7324 -0.0131
  141MOL   C14239622   1.758   2.257   4.826 -0.9735  0.8917  0.2547
  141MOL   C14339623   1.868   2.176   4.781 -0.2295 -0.3782  0.4075
  141MOL   C14439624   2.000   2.205   4.823 -0.6714  0.0710  0.3272
  141MOL   C14539625   2.031   2.309   4.917 -0.4255  0.9965  0.1915
  141MOL   C14639626   2.174   2.338   4.948 -0.3273 -0.2605 -0.1914
  141MOL   C14739627   2.211   2.454   5.013 -0.4029 -0.3325 -0.4539
  141MOL   C14839628   1.926   2.389   4.959 -0.1282 -0.0535 -0.3725
  141MOL   C14939629   1.789   2.365   4.918  0.0286 -0.0645 -0.3100
  141MOL   H15039630   1.865   2.087   4.719  1.2051 -0.7682  0.8739
  141MOL   H15139631   2.089   2.153   4.789 -1.6053  0.5866 -3.0974
  141MOL   H15239632   2.253   2.271   4.918  1.3614  1.5962 -0.0283
  141MOL   H15339633   2.128   2.514   5.048 -1.7784 -1.9543 -0.9064
  141MOL   H15439634   1.933   2.474   5.025  1.7856 -1.9715  2.0064
  141MOL   H15539635   1.703   2.419   4.956  0.8509  2.2320 -1.5658
  141MOL   C15639636   2.349   2.499   5.047  0.4768  0.5128 -0.2499
  141MOL   C15739637   2.359   2.595   5.146  0.5960 -0.4600 -0.0460
  141MOL   C15839638   2.483   2.645   5.183 -0.6282 -0.5088  0.5273
  141MOL   C15939639   2.601   2.602   5.122  0.0068  0.1441  0.7881
  141MOL   C16039640   2.729   2.671   5.158  0.0616  0.5373  0.3231
  141MOL   C16139641   2.851   2.654   5.106 -0.2030 -0.1837 -0.5458
  141MOL   C16239642   2.593   2.495   5.037 -0.4447  0.0057  0.3033
  141MOL   C16339643   2.471   2.448   4.990  0.4314  0.7970 -0.6053
  141MOL   H16439644   2.270   2.640   5.188 -0.2216 -2.4306  0.3895
  141MOL   H16539645   2.495   2.734   5.242 -0.0277  1.9946 -3.2006
  141MOL   H16639646   2.720   2.734   5.245 -1.6067 -1.3650  1.5908
  141MOL   H16739647   2.867   2.583   5.026 -1.9845 -0.8829 -0.2922
  141MOL   H16839648   2.682   2.454   4.993 -0.6447 -0.6402  0.4961
  141MOL   H16939649   2.470   2.363   4.923 -4.4144 -1.7225  2.4328
  141MOL   C17039650   2.973   2.724   5.153 -0.2828 -0.6008  0.1141
  141MOL   C17139651   2.975   2.817   5.257  0.0185 -0.1343  0.3204
  141MOL   C17239652   3.095   2.870   5.307 -0.0497  0.7032 -0.0730
  141MOL   C17339653   3.221   2.840   5.245  0.4188 -0.5960 -0.1896
  141MOL   C17439654   3.345   2.907   5.305  0.0862  0.7723  0.2394
  141MOL   C17539655   3.470   2.891   5.256  0.6254 -0.0501 -0.4783
  141MOL   C17639656   3.217   2.767   5.124 -0.0967 -0.2212  0.5983
  141MOL   C17739657   3.096   2.700   5.085 -0.0331  0.2673  0.0236
  141MOL   H17839658   2.881   2.843   5.304  0.6823  0.2724  1.4309
  141MOL   H17939659   3.079   2.922   5.401 -2.9715 -0.8772  0.3566
  141MOL   H18039660   3.315   2.970   5.387 -0.7481 -1.4724  1.7277
  141MOL   H18139661   3.490   2.827   5.171 -2.4108 -1.8270  0.0823
  141MOL   H18239662   3.309   2.760   5.067  0.0022  0.8501  0.6098
  141MOL   H18339663   3.094   2.639   4.996 -1.6612 -0.5493  0.5829
  141MOL   C18439664   3.595   2.956   5.312  0.1755 -0.2638 -0.2409
  141MOL   C18539665   3.594   3.049   5.418 -0.2707  0.7856  0.7436
  141MOL   C18639666   3.717   3.109   5.453  0.1174 -0.3755 -0.7223
  141MOL   C18739667   3.839   3.084   5.389  0.0903  0.3347 -0.4772
  141MOL   C18839668   3.961   3.149   5.443  0.5165 -1.1855  0.4949
  141MOL   C18939669   4.092   3.132   5.405  0.1966 -0.3665 -0.2742
  141MOL   C19039670   3.838   2.986   5.295  0.6122 -0.1249  0.4836
  141MOL   C19139671   3.720   2.924   5.255 -0.7888  0.7199  0.4057
  141MOL   H19239672   3.513   3.079   5.482 -0.0600  0.5014  1.1466
  141MOL   H19339673   3.714   3.190   5.524  0.9893  0.1449 -1.2649
  141MOL   H19439674   3.938   3.221   5.521  2.3131  1.1626 -1.0902
  141MOL   H19539675   4.112   3.061   5.326 -0.9096  0.0509 -0.9505
  141MOL   H19639676   3.934   2.954   5.257  0.6892  1.2463 -0.4971
  141MOL   H19739677   3.734   2.863   5.168 -0.2145  1.8503 -0.3151
  141MOL   C19839678   4.205   3.202   5.472  0.7564  0.1651  0.1218
  141MOL   C19939679   4.190   3.293   5.583  0.1175 -0.0111 -0.1053
  141MOL   C20039680   4.303   3.337   5.654 -0.4038  0.2989 -0.2739
  141MOL   C20139681   4.434   3.292   5.609 -0.6931  0.2990 -0.1275
  141MOL   C20239682   4.559   3.348   5.665  0.0445 -0.8827 -0.3583
  141MOL   C20339683   4.683   3.336   5.616 -0.4018  0.2466  0.7642
  141MOL   C20439684   4.444   3.211   5.495  0.4896 -0.2573  0.8627
  141MOL   C20539685   4.330   3.166   5.431  0.1773  0.4746 -0.0871
  141MOL   H20639686   4.092   3.322   5.620 -0.0068  2.4906 -2.2551
  141MOL   H20739687   4.306   3.393   5.746  1.3266  1.9978 -1.3401
  141MOL   H20839688   4.542   3.404   5.756 -0.8325 -0.2583 -0.8938
  141MOL   H20939689   4.702   3.283   5.524  2.1362  0.5508  1.0760
  141MOL   H21039690   4.543   3.184   5.463  0.7908  0.8857  0.8112
  141MOL   H21139691   4.337   3.093   5.352  1.1191  0.2271  0.2179
  141MOL   C21239692   4.805   3.399   5.663 -0.9954  0.7010 -0.2862
  141MOL   C21339693   4.800   3.509   5.757  0.1847  0.1477  0.0999
  141MOL   C21439694   4.918   3.567   5.808  0.5037 -0.5791 -0.1842
  141MOL   C21539695   5.043   3.531   5.759  0.0180 -0.3311  0.9251
  141MOL   C21639696   5.167   3.598   5.810 -0.7326  0.0774  0.8110
  141MOL   C21739697   5.293   3.587   5.760 -0.7103  0.2296  0.1245
  141MOL   C21839698   5.049   3.436   5.654 -0.0965  0.6886 -0.7243
  141MOL   C21939699   4.929   3.370   5.615  0.3877 -0.2789  0.4981
  141MOL   H22039700   4.708   3.548   5.798  0.3185 -0.6828  1.2165
  141MOL   H22139701   4.904   3.643   5.884  0.4450 -0.5619 -0.2114
  141MOL   H22239702   5.148   3.656   5.899  0.1424  1.0679  0.3665
  141MOL   H22339703   5.304   3.524   5.673 -0.2271  0.7552 -0.1956
  141MOL   H22439704   5.144   3.415   5.608  1.0044  2.3504  0.7301
  141MOL   H22539705   4.935   3.304   5.530 -0.9990  0.6035 -0.2996
  141MOL   C22639706   5.416   3.658   5.808  0.2024 -0.2167  0.1765
  141MOL   C22739707   5.397   3.745   5.916 -0.7606  0.3330  0.3331
  141MOL   C22839708   5.506   3.830   5.954  0.5548 -0.7550  0.6294
  141MOL   C22939709   5.632   3.830   5.894  0.3396  0.1940  0.1949
  141MOL   C23039710   5.745   3.915   5.944  0.0821 -0.1752  0.6755
  141MOL   C23139711   5.866   3.907   5.884 -0.2603 -0.7805 -0.6674
  141MOL   C23239712   5.644   3.744   5.781  0.1857 -1.1399  0.3380
  141MOL   C23339713   5.539   3.661   5.737 -0.3968 -0.0994 -0.4908
  141MOL   H23439714   5.306   3.760   5.972  0.0734  1.6669  1.3770
  141MOL   H23539715   5.481   3.899   6.033 -0.3536 -0.6189  0.2237
  141MOL   H23639716   5.732   3.986   6.024  1.7510  1.4466 -0.4478
  141MOL   H23739717   5.882   3.839   5.802 -0.5904 -0.1507 -1.2643
  141MOL   H23839718   5.732   3.735   5.720 -1.3179 -2.2230 -1.7231
  141MOL   H23939719   5.560   3.601   5.649  2.5737  0.1008  0.0061
  141MOL   C24039720   5.981   3.989   5.935 -0.2301 -0.2344 -0.3659
  141MOL   C24139721   6.017   4.006   6.070 -0.3045  0.0438  0.0129
  141MOL   C24239722   6.116   4.096   6.111  0.0619  0.3571  0.0967
  141MOL   C24339723   6.196   4.161   6.018  0.6680  0.3966 -0.1715
  141MOL   C24439724   6.302   4.245   6.064 -0.1475 -0.0302 -0.5788
  141MOL   C24539725   6.400   4.302   5.994 -0.8773 -0.7031 -0.1584
  141MOL   C24639726   6.175   4.132   5.876  0.1080  0.3925 -0.1159
  141MOL   C24739727   6.068   4.045   5.838 -0.5849 -0.5453  0.4987
  141MOL   H24839728   5.959   3.949   6.142 -0.6898 -2.0230 -1.8800
  141MOL   H24939729   6.141   4.114   6.215 -0.5844  1.1641  0.1107
  141MOL   H25039730   6.308   4.264   6.170  0.3545  3.1988 -1.1327
  141MOL   H25139731   6.416   4.281   5.889  1.5981 -1.6398  0.3730
  141MOL   H25239732   6.226   4.179   5.794  2.5751 -1.7131  0.1568
  141MOL   H25339733   6.042   4.041   5.733  1.8804  3.2218 -0.3494
  141MOL   C25439734   6.511   4.389   6.042  0.4902 -0.0766  0.1136
  141MOL   C25539735   6.542   4.397   6.181  0.5730  0.6277  0.1106
  141MOL   C25639736   6.637   4.494   6.227  0.3880 -0.5255 -0.0510
  141MOL   C25739737   6.710   4.567   6.132 -0.6891 -0.1853 -0.2175
  141MOL   C25839738   6.819   4.650   6.179 -0.3095  0.7507  0.1756
  141MOL   C25939739   6.849   4.775   6.138 -0.1662 -0.2696 -0.2726
  141MOL   C26039740   6.668   4.566   5.999 -0.6250 -0.2086 -0.1275
  141MOL   C26139741   6.567   4.480   5.951  0.4740  0.7248 -0.4361
  141MOL   H26239742   6.488   4.335   6.251  3.6124 -0.3278  1.6966
  141MOL   H26339743   6.668   4.513   6.329  2.2147 -0.8208 -0.5426
  141MOL   H26439744   6.878   4.590   6.247  0.2284  1.4968  0.3767
  141MOL   H26539745   6.940   4.813   6.182 -0.1591  1.7796 -1.9913
  141MOL   H26639746   6.722   4.625   5.926 -0.3002  0.5573  0.7179
  141MOL   H26739747   6.546   4.485   5.845 -0.0840  1.9979 -0.2749
  141MOL   C26839748   6.773   4.858   6.048  0.5882 -0.0198  0.6541
  141MOL   C26939749   6.629   4.873   6.060 -0.6352 -0.2180  0.9147
  141MOL   C27039750   6.562   4.970   5.984 -0.8050  0.6699 -0.0878
  141MOL   C27139751   6.625   5.045   5.883  0.3639 -0.6839 -0.3455
  141MOL   C27239752   6.535   5.114   5.787 -0.2718 -0.1804 -0.2501
  141MOL   C27339753   6.559   5.152   5.665  0.2956  0.0994 -0.3344
  141MOL   C27439754   6.763   5.032   5.868  0.3383 -0.2012 -0.3794
  141MOL   C27539755   6.837   4.941   5.951  0.3371 -0.0406 -0.5978
  141MOL   H27639756   6.564   4.816   6.124 -1.0766 -1.7524 -0.8438
  141MOL   H27739757   6.455   4.982   5.992 -0.8044  0.0455  0.9282
  141MOL   H27839758   6.435   5.135   5.822 -0.5050  1.0571 -1.6351
  141MOL   H27939759   6.648   5.130   5.607 -0.3837 -0.4502 -1.1658
  141MOL   H28039760   6.809   5.082   5.784  1.2317  1.3537  0.9915
  141MOL   H28139761   6.944   4.932   5.948  0.2939 -0.8863  0.1158
  141MOL   H28239762   6.482   5.211   5.619  2.0600  0.8440 -2.4197
  142MOL     C139763   1.222   3.565   0.641  0.9497 -0.2046 -0.9093
  142MOL     C239764   1.195   3.564   0.778  0.0193  0.1050  0.1057
  142MOL     C339765   1.064   3.552   0.824  0.3845 -0.1955  0.6702
  142MOL     C439766   0.951   3.560   0.741 -0.4168  0.1219  0.7245
  142MOL     C539767   0.819   3.537   0.794  0.7136  0.6569  0.2123
  142MOL     C639768   0.787   3.475   0.913 -0.3051 -0.5975  0.0770
  142MOL     C739769   0.976   3.572   0.600 -0.0666  0.1659 -0.1136
  142MOL     C839770   1.114   3.573   0.554  0.1861  0.1445  0.1857
  142MOL     H939771   1.279   3.572   0.846 -0.4676  2.4357  0.4742
  142MOL    H1039772   1.048   3.551   0.931 -0.0602  0.2313  0.6083
  142MOL    H1139773   0.741   3.577   0.730 -0.1059  1.1586  1.5148
  142MOL    H1239774   0.865   3.441   0.979 -0.4163  1.5409  1.3596
  142MOL    H1339775   0.896   3.570   0.528 -1.9154  1.6405  1.8528
  142MOL    H1439776   1.136   3.583   0.449 -0.8793 -0.6654 -0.1200
  142MOL    H1539777   1.324   3.564   0.607  1.3582 -2.2605  0.2916
  142MOL    C1639778   0.656   3.449   0.965  0.3402 -0.3107 -0.1988
  142MOL    C1739779   0.649   3.405   1.100 -0.9672 -0.4627 -0.1956
  142MOL    C1839780   0.524   3.403   1.166 -0.2574  0.1199 -0.7185
  142MOL    C1939781   0.401   3.427   1.097  0.0663 -0.3807  0.2959
  142MOL    C2039782   0.272   3.431   1.158  0.6433  0.0737 -0.9698
  142MOL    C2139783   0.250   3.429   1.289  0.1758 -0.2548 -0.3463
  142MOL    C2239784   0.414   3.454   0.959  0.7616  0.4469  0.3227
  142MOL    C2339785   0.539   3.465   0.892  0.3227  0.2128  0.1638
  142MOL    H2439786   0.745   3.399   1.149 -1.1201  2.5909  0.5799
  142MOL    H2539787   0.533   3.390   1.273 -0.4257  0.5690 -0.6492
  142MOL    H2639788   0.188   3.423   1.090  0.6656 -5.3857 -0.6193
  142MOL    H2739789   0.338   3.426   1.352 -0.2120  0.1032  0.2078
  142MOL    H2839790   0.328   3.470   0.896  2.3199  2.2640 -1.4239
  142MOL    H2939791   0.555   3.485   0.787  1.8962 -1.4756  0.0509
  142MOL    C3039792   0.116   3.409   1.351  0.4596  0.7104 -0.2117
  142MOL    C3139793   0.098   3.449   1.484 -0.1099  0.1845 -0.0857
  142MOL    C3239794   8.113   3.444   1.538  0.3697 -0.2900  0.1134
  142MOL    C3339795   8.002   3.428   1.460  0.0772 -0.0348  0.1672
  142MOL    C3439796   7.873   3.469   1.516  0.3981 -0.9604 -0.4099
  142MOL    C3539797   7.779   3.549   1.456 -0.7905  0.2982 -0.1349
  142MOL    C3639798   8.020   3.390   1.327 -0.1856 -0.5173 -0.1716
  142MOL    C3739799   0.005   3.387   1.270 -0.3402 -0.1203  0.6211
  142MOL    H3839800   0.184   3.469   1.546 -0.1693 -0.9877  0.3801
  142MOL    H3939801   8.106   3.491   1.635  0.3853  0.4014 -0.2107
  142MOL    H4039802   7.848   3.429   1.613  2.0762 -0.7400  0.1315
  142MOL    H4139803   7.806   3.592   1.360 -1.4277  0.7525 -0.1161
  142MOL    H4239804   7.929   3.378   1.270 -1.0483  1.8617  0.6711
  142MOL    H4339805   0.011   3.357   1.166  2.0617  0.9569  0.4123
  142MOL    C4439806   7.642   3.580   1.500 -1.0521 -0.0858  0.0367
  142MOL    C4539807   7.587   3.529   1.618  0.6569 -0.0589  0.1603
  142MOL    C4639808   7.445   3.551   1.642  0.1204 -0.0413 -0.1804
  142MOL    C4739809   7.369   3.631   1.558 -0.6117  0.1961 -0.6137
  142MOL    C4839810   7.225   3.659   1.592 -0.2878  0.0911 -0.0472
  142MOL    C4939811   7.144   3.750   1.531 -1.2695  0.0992  0.0849
  142MOL    C5039812   7.427   3.682   1.444 -0.2902  0.0901 -0.0469
  142MOL    C5139813   7.561   3.654   1.411  0.1525  0.0913  0.2271
  142MOL    H5239814   7.643   3.475   1.692  0.0935 -2.4683 -1.1011
  142MOL    H5339815   7.413   3.522   1.741  0.0421  1.3050  0.1977
  142MOL    H5439816   7.186   3.591   1.666  1.6222  0.3356  1.2020
  142MOL    H5539817   7.188   3.825   1.468 -1.2625  1.1662  1.3400
  142MOL    H5639818   7.369   3.750   1.383 -1.7563 -0.7496  0.3881
  142MOL    H5739819   7.588   3.691   1.313 -3.1795  1.7262 -0.1278
  142MOL    C5839820   7.004   3.768   1.563  0.6361  0.1608  0.1678
  142MOL    C5939821   6.941   3.853   1.474 -0.1470 -0.7441 -0.2361
  142MOL    C6039822   6.799   3.865   1.475 -0.1175 -0.0814  0.3386
  142MOL    C6139823   6.723   3.804   1.581 -0.1481  0.1034  0.8145
  142MOL    C6239824   6.580   3.836   1.611 -0.2557 -0.8043  0.0558
  142MOL    C6339825   6.507   3.929   1.538  0.1082 -0.4373 -0.5513
  142MOL    C6439826   6.788   3.718   1.669 -0.1619 -0.5551  0.3252
  142MOL    C6539827   6.928   3.700   1.661  0.1203 -0.2010 -0.5850
  142MOL    H6639828   6.995   3.919   1.408 -2.6933  0.0613 -1.5914
  142MOL    H6739829   6.752   3.928   1.400 -3.0917 -1.5258  0.9350
  142MOL    H6839830   6.534   3.796   1.700 -1.4677  1.7414  0.6084
  142MOL    H6939831   6.557   3.979   1.456 -1.0299  0.1765 -0.8846
  142MOL    H7039832   6.720   3.676   1.741  0.5936 -2.7670 -0.2136
  142MOL    H7139833   6.978   3.634   1.730  1.4750  0.6256 -0.7621
  142MOL    C7239834   6.369   3.987   1.557  0.1299 -0.0954  0.1201
  142MOL    C7339835   6.335   4.115   1.502 -0.0963  0.8601  0.4080
  142MOL    C7439836   6.202   4.170   1.516 -0.1826  0.4522 -0.5215
  142MOL    C7539837   6.103   4.090   1.575  0.0676  0.7174 -0.5574
  142MOL    C7639838   5.960   4.136   1.591 -0.1846  0.1155 -0.1969
  142MOL    C7739839   5.914   4.258   1.547 -0.8659 -0.4154 -0.8903
  142MOL    C7839840   6.131   3.956   1.615  0.1601  0.1484 -0.5672
  142MOL    C7939841   6.267   3.910   1.615 -0.1803  0.0892  0.0875
  142MOL    H8039842   6.412   4.174   1.454  0.8418 -1.6671 -1.2992
  142MOL    H8139843   6.182   4.269   1.477  0.7750  0.9758  0.2951
  142MOL    H8239844   5.891   4.067   1.638 -0.4389  0.4238 -0.1134
  142MOL    H8339845   5.991   4.323   1.509 -1.3613  0.7552  0.0898
  142MOL    H8439846   6.060   3.892   1.666  1.1966 -0.5482  0.0168
  142MOL    H8539847   6.275   3.806   1.644  1.3333 -0.2350 -1.4313
  142MOL    C8639848   5.777   4.312   1.554 -0.0441 -0.1525 -0.0727
  142MOL    C8739849   5.676   4.242   1.622 -0.4752  0.0159 -0.2612
  142MOL    C8839850   5.545   4.293   1.625 -0.0498 -0.1077 -0.0523
  142MOL    C8939851   5.509   4.410   1.551 -0.3319  0.0145 -0.2184
  142MOL    C9039852   5.379   4.465   1.572  0.7486  0.2912  0.3716
  142MOL    C9139853   5.329   4.573   1.515 -0.5020 -0.1080 -0.2025
  142MOL    C9239854   5.609   4.471   1.475 -0.0019  0.2775  0.4428
  142MOL    C9339855   5.738   4.425   1.483 -0.1276  0.0058 -0.0064
  142MOL    H9439856   5.700   4.151   1.675 -1.6169 -0.3397 -0.3367
  142MOL    H9539857   5.467   4.231   1.669 -1.1309 -0.3414 -2.2409
  142MOL    H9639858   5.314   4.405   1.633  2.1323 -0.5971  0.9938
  142MOL    H9739859   5.401   4.635   1.463 -1.9013  2.2414  0.5700
  142MOL    H9839860   5.588   4.561   1.420 -3.0246 -0.0251  1.0386
  142MOL    H9939861   5.815   4.472   1.422  0.6017  1.0235  1.6781
  142MOL   C10039862   5.192   4.625   1.524 -0.0484  0.0756 -0.1860
  142MOL   C10139863   5.093   4.548   1.583 -0.2353 -0.2757  0.3723
  142MOL   C10239864   4.961   4.595   1.593 -0.2652 -0.1826 -0.1042
  142MOL   C10339865   4.924   4.719   1.541 -0.3055 -0.1049  0.6387
  142MOL   C10439866   4.789   4.771   1.557  0.3691  0.2612  0.4282
  142MOL   C10539867   4.736   4.879   1.492  0.2126  0.4503  0.4231
  142MOL   C10639868   5.026   4.793   1.471  0.4347  0.2026 -0.0785
  142MOL   C10739869   5.158   4.745   1.471  0.1141  0.6539 -0.1101
  142MOL   H10839870   5.110   4.454   1.634  1.4102 -0.6932 -0.8974
  142MOL   H10939871   4.880   4.536   1.634  0.0921 -1.4860 -1.2369
  142MOL   H11039872   4.732   4.719   1.633  0.4313 -2.5034 -1.3309
  142MOL   H11139873   4.792   4.931   1.415  2.9044 -0.3109  1.8375
  142MOL   H11239874   5.004   4.892   1.433 -1.5074  0.5955  1.9822
  142MOL   H11339875   5.233   4.800   1.415 -1.4567  2.1776 -0.7448
  142MOL   C11439876   4.597   4.932   1.518  0.0347  0.6592  0.1619
  142MOL   C11539877   4.502   4.847   1.580 -0.1773  0.3448  0.0280
  142MOL   C11639878   4.366   4.889   1.588 -1.0087 -0.9436 -0.0099
  142MOL   C11739879   4.331   5.014   1.534  0.0857 -0.9324  0.0874
  142MOL   C11839880   4.187   5.057   1.549  0.2189  0.5191 -0.6862
  142MOL   C11939881   4.144   5.184   1.526  0.2730  0.9620 -0.6189
  142MOL   C12039882   4.427   5.100   1.476  0.0234  0.2007  0.0576
  142MOL   C12139883   4.560   5.056   1.463 -0.2591 -0.8538  0.0999
  142MOL   H12239884   4.516   4.746   1.614  0.0908  0.1759 -0.5691
  142MOL   H12339885   4.298   4.824   1.642  1.0065 -2.2140  1.0747
  142MOL   H12439886   4.118   4.980   1.578 -0.0865  1.4006  1.0078
  142MOL   H12539887   4.219   5.259   1.507  2.1031 -0.8096 -0.5954
  142MOL   H12639888   4.412   5.198   1.435  3.2990 -0.0368 -1.8713
  142MOL   H12739889   4.632   5.116   1.409 -0.6914 -0.4824 -0.0635
  142MOL   C12839890   4.013   5.240   1.532 -0.1721  0.0957 -0.3824
  142MOL   C12939891   3.904   5.165   1.582  0.1054 -0.4616 -0.4344
  142MOL   C13039892   3.775   5.221   1.581 -0.0254 -0.3413  0.4888
  142MOL   C13139893   3.752   5.349   1.533  0.1821 -0.0312  0.4469
  142MOL   C13239894   3.622   5.417   1.536  0.1600  0.0456 -0.0141
  142MOL   C13339895   3.589   5.543   1.490  0.1042  0.1676 -0.9765
  142MOL   C13439896   3.861   5.421   1.475 -0.2260  0.1444 -0.1116
  142MOL   C13539897   3.992   5.368   1.476  0.5712  0.8288 -0.0983
  142MOL   H13639898   3.923   5.077   1.642 -0.2124  2.2450  3.8617
  142MOL   H13739899   3.700   5.160   1.628  0.3127 -1.8390 -0.8883
  142MOL   H13839900   3.548   5.356   1.585  2.5947 -2.5800  0.5603
  142MOL   H13939901   3.664   5.605   1.444 -0.5241  0.6115 -1.4118
  142MOL   H14039902   3.849   5.524   1.445 -0.0479  0.0384 -0.5562
  142MOL   H14139903   4.066   5.423   1.420  1.4435 -0.8420 -0.5989
  142MOL   C14239904   3.462   5.609   1.508 -0.7280 -0.7997  0.8019
  142MOL   C14339905   3.361   5.552   1.594 -0.3931  0.0128 -0.4336
  142MOL   C14439906   3.230   5.615   1.599  0.5271  0.2475 -0.4533
  142MOL   C14539907   3.213   5.731   1.520  0.3527  0.4209  0.1743
  142MOL   C14639908   3.078   5.798   1.523 -0.9845  0.0387  0.1049
  142MOL   C14739909   3.039   5.905   1.447 -0.4132 -0.0398 -0.5618
  142MOL   C14839910   3.317   5.789   1.448 -0.4607  0.1165 -0.9158
  142MOL   C14939911   3.446   5.733   1.445 -0.2040  0.4571 -0.2338
  142MOL   H15039912   3.372   5.458   1.646 -1.1460 -0.5463 -1.2718
  142MOL   H15139913   3.151   5.562   1.651 -0.0957 -1.1476 -2.7495
  142MOL   H15239914   3.015   5.751   1.598  0.5001 -2.4256 -0.1442
  142MOL   H15339915   3.111   5.946   1.378  1.0318 -2.1728 -0.3766
  142MOL   H15439916   3.296   5.878   1.390  0.3765 -0.3575 -1.9668
  142MOL   H15539917   3.521   5.786   1.387  0.6026  1.4626  1.6928
  142MOL   C15639918   2.902   5.971   1.458 -0.3565  0.0273 -0.3655
  142MOL   C15739919   2.874   6.068   1.353 -0.0952  0.0754 -0.2494
  142MOL   C15839920   2.752   6.134   1.356  0.3193 -0.3323 -0.3642
  142MOL   C15939921   2.658   6.117   1.458  0.7941 -0.2278  0.0142
  142MOL   C16039922   2.529   6.180   1.461 -0.5090  0.1347  0.7881
  142MOL   C16139923   2.480   6.245   1.356 -0.6695  1.1708  0.1681
  142MOL   C16239924   2.688   6.027   1.561  0.4200 -0.4495 -0.3692
  142MOL   C16339925   2.813   5.957   1.566 -0.6327  0.8432  0.0172
  142MOL   H16439926   2.936   6.082   1.266  0.9210 -0.7086  0.3382
  142MOL   H16539927   2.739   6.205   1.276  0.2148 -0.7562 -0.7321
  142MOL   H16639928   2.475   6.182   1.554 -0.3905  0.6287  0.8487
  142MOL   H16739929   2.542   6.250   1.268  1.0013 -1.0050  1.1773
  142MOL   H16839930   2.616   6.015   1.640  2.4409 -1.1651  1.4325
  142MOL   H16939931   2.843   5.894   1.649  0.1827  1.5451  0.2680
  142MOL   C17039932   2.347   6.306   1.334  0.5490  0.1657 -0.2672
  142MOL   C17139933   2.241   6.294   1.428 -0.5710 -0.4437 -0.4797
  142MOL   C17239934   2.118   6.362   1.408 -0.5064 -0.1765  0.2796
  142MOL   C17339935   2.102   6.434   1.285 -0.2571  0.7151  0.6978
  142MOL   C17439936   1.983   6.506   1.249  0.2588 -0.3396 -0.4066
  142MOL   C17539937   1.859   6.487   1.301 -0.8380 -0.0672 -0.1456
  142MOL   C17639938   2.208   6.447   1.194 -0.7848 -0.1633  0.4906
  142MOL   C17739939   2.328   6.374   1.214  0.0518  0.2323  0.3752
  142MOL   H17839940   2.245   6.247   1.526 -0.0873 -0.4617 -0.5070
  142MOL   H17939941   2.037   6.356   1.479 -0.6591 -0.4459  0.0835
  142MOL   H18039942   1.994   6.581   1.171  1.5331  0.6845  0.7178
  142MOL   H18139943   1.839   6.408   1.372 -2.4860 -1.1986 -1.8399
  142MOL   H18239944   2.209   6.500   1.100  3.6046  0.0798  0.5688
  142MOL   H18339945   2.396   6.382   1.131  0.8261  2.6123  1.1782
  142MOL   C18439946   1.741   6.553   1.254  0.1802 -0.1006 -0.3303
  142MOL   C18539947   1.628   6.558   1.341 -0.0609  0.0519  0.5611
  142MOL   C18639948   1.511   6.627   1.300  0.8141  0.3471 -0.7567
  142MOL   C18739949   1.510   6.693   1.177 -0.2732 -0.1065  0.4724
  142MOL   C18839950   1.387   6.756   1.125 -0.1896 -0.6609 -0.4089
  142MOL   C18939951   1.262   6.754   1.176  0.0943  0.1542  0.3526
  142MOL   C19039952   1.626   6.691   1.092  0.7070 -0.6664 -0.0221
  142MOL   C19139953   1.742   6.618   1.124  0.0890 -0.1662 -0.4434
  142MOL   H19239954   1.637   6.499   1.431  0.2411 -1.9611 -0.7531
  142MOL   H19339955   1.427   6.626   1.367  0.9994 -0.7475 -0.5298
  142MOL   H19439956   1.399   6.809   1.031 -1.1350 -0.3499 -0.3664
  142MOL   H19539957   1.239   6.702   1.268  0.0503  0.7999  0.7086
  142MOL   H19639958   1.630   6.747   1.000 -0.8478  1.2792  1.0577
  142MOL   H19739959   1.831   6.620   1.063 -1.0456 -0.0305 -2.1418
  142MOL   C19839960   1.138   6.810   1.115  0.5393 -0.9178  0.3262
  142MOL   C19939961   1.017   6.820   1.189 -0.0390 -0.7920  0.4343
  142MOL   C20039962   0.897   6.865   1.135  0.7949 -0.1173  0.0615
  142MOL   C20139963   0.902   6.909   1.000  1.1303  0.2961  0.1187
  142MOL   C20239964   0.782   6.962   0.934  0.7912 -0.3442  0.1424
  142MOL   C20339965   0.666   6.998   0.998 -0.1724 -0.1988 -0.2965
  142MOL   C20439966   1.019   6.907   0.930 -0.5315 -0.0149  0.5313
  142MOL   C20539967   1.137   6.854   0.983  0.0822 -0.0561  0.3727
  142MOL   H20639968   1.012   6.792   1.293 -3.3115 -1.3471  0.1829
  142MOL   H20739969   0.804   6.862   1.190  0.3539  3.6947 -0.3772
  142MOL   H20839970   0.787   6.966   0.827 -1.2835 -1.6459 -0.0226
  142MOL   H20939971   0.658   6.990   1.106 -1.0464  0.5269 -0.2999
  142MOL   H21039972   1.030   6.944   0.829  1.3212 -0.6009  0.5001
  142MOL   H21139973   1.224   6.860   0.920 -1.7669 -0.4419 -2.2665
  142MOL   C21239974   0.547   7.058   0.934 -0.4452 -0.2354  0.1090
  142MOL   C21339975   0.432   7.069   1.014  0.5022 -0.1425  0.7058
  142MOL   C21439976   0.308   7.105   0.959 -1.0461  0.3618  0.4843
  142MOL   C21539977   0.305   7.152   0.823  0.0643 -0.4213 -0.5759
  142MOL   C21639978   0.185   7.197   0.765  0.0949  0.2319  0.5774
  142MOL   C21739979   0.064   7.212   0.825 -0.3238  0.1349  0.6013
  142MOL   C21839980   0.425   7.159   0.750  0.1457  0.3672 -0.4367
  142MOL   C21939981   0.546   7.118   0.807  0.2341  0.0723  0.8259
  142MOL   H22039982   0.436   7.045   1.119 -0.2832  0.1645  0.8126
  142MOL   H22139983   0.221   7.102   1.022  0.4082  2.5071  2.6942
  142MOL   H22239984   0.187   7.232   0.663  0.0755 -0.2485  0.4071
  142MOL   H22339985   0.059   7.190   0.930 -0.3943  1.9143  0.9997
  142MOL   H22439986   0.431   7.203   0.652 -2.4053  2.2033  0.1949
  142MOL   H22539987   0.643   7.132   0.763  0.8467  1.5683  2.5906
  142MOL   C22639988   8.081   7.257   0.766 -0.2443 -0.2319  0.1089
  142MOL   C22739989   8.080   7.320   0.635  0.4859  0.3660 -0.0295
  142MOL   C22839990   7.958   7.355   0.567 -0.6517 -0.3888 -0.4825
  142MOL   C22939991   7.835   7.332   0.635  0.5853 -0.6146  0.2870
  142MOL   C23039992   7.718   7.372   0.556 -0.0231  0.1877 -1.4102
  142MOL   C23139993   7.597   7.398   0.613 -0.6001  0.5959  0.4041
  142MOL   C23239994   7.836   7.276   0.764  0.5068 -0.6192  0.2476
  142MOL   C23339995   7.953   7.241   0.827  0.3343 -0.5720 -0.3836
  142MOL   H23439996   0.027   7.327   0.577 -0.0257 -1.3436 -1.0669
  142MOL   H23539997   7.955   7.398   0.468  0.3508 -1.6131 -1.0698
  142MOL   H23639998   7.723   7.386   0.449 -0.7864 -2.6519 -1.8754
  142MOL   H23739999   7.584   7.390   0.720 -0.7090  1.1054  0.4337
  142MOL   H23840000   7.739   7.264   0.811 -0.5827  0.3406 -1.6744
  142MOL   H23940001   7.956   7.202   0.927 -1.4995  1.6759  0.5976
  142MOL   C24040002   7.475   7.437   0.542  0.1922  0.3378 -0.0883
  142MOL   C24140003   7.353   7.455   0.615 -0.2856 -0.5828 -0.6756
  142MOL   C24240004   7.236   7.484   0.549  0.3868  0.1571 -0.5370
  142MOL   C24340005   7.232   7.508   0.411 -0.7526 -0.2433  0.2899
  142MOL   C24440006   7.115   7.538   0.333 -0.5559 -0.9235  0.3759
  142MOL   C24540007   6.987   7.511   0.377 -0.1304  0.3383  0.2807
  142MOL   C24640008   7.355   7.504   0.337 -0.6427 -0.2067  0.0838
  142MOL   C24740009   7.478   7.473   0.404  1.0400 -0.6896 -0.2630
  142MOL   H24840010   7.345   7.440   0.722  0.9221  1.9346 -0.2044
  142MOL   H24940011   7.141   7.492   0.600  1.6563 -0.0971  1.9077
  142MOL   H25040012   7.131   7.589   0.240 -0.2497 -0.9340  0.4237
  142MOL   H25140013   6.973   7.458   0.470 -2.1657  0.0569 -0.1680
  142MOL   H25240014   7.350   7.538   0.235  1.4293 -1.9994 -0.6551
  142MOL   H25340015   7.572   7.467   0.351  2.1466  2.3018  1.2171
  142MOL   C25440016   6.863   7.546   0.309 -0.0356  0.2016 -0.1765
  142MOL   C25540017   6.738   7.547   0.378  0.0307 -0.5871 -0.1991
  142MOL   C25640018   6.621   7.606   0.317 -0.0754 -0.4115  0.2432
  142MOL   C25740019   6.625   7.667   0.190 -0.5703 -0.2421 -0.0350
  142MOL   C25840020   6.496   7.723   0.138  0.6959  0.1349  0.9839
  142MOL   C25940021   6.462   7.858   0.139 -0.6143 -0.2720 -0.8454
  142MOL   C26040022   6.740   7.656   0.117 -0.0574  0.6733 -0.0091
  142MOL   C26140023   6.854   7.590   0.178 -0.5135 -0.3234  0.2700
  142MOL   H26240024   6.716   7.511   0.477 -0.0423  2.0867  0.7828
  142MOL   H26340025   6.524   7.599   0.362 -1.0425  2.1421 -1.3468
  142MOL   H26440026   6.430   7.649   0.095 -0.4687  1.2674  0.7969
  142MOL   H26540027   6.367   7.878   0.091 -2.6379 -1.5873  2.4332
  142MOL   H26640028   6.746   7.691   0.015  0.4385  0.7315  0.0360
  142MOL   H26740029   6.940   7.586   0.113  0.3609  0.1848  1.3825
  142MOL   C26840030   6.532   7.977   0.197 -0.5787  0.4251 -0.3530
  142MOL   C26940031   6.453   8.093   0.221  0.3778 -0.1390 -0.3730
  142MOL   C27040032   6.507   0.062   0.284  0.7492 -0.0282  0.0119
  142MOL   C27140033   6.642   0.051   0.334 -0.5239 -0.7770  0.2678
  142MOL   C27240034   6.695   0.175   0.395 -0.6883 -0.0561 -0.2530
  142MOL   C27340035   6.823   0.196   0.442 -0.1753 -0.3679 -0.2427
  142MOL   C27440036   6.717   8.077   0.329 -0.2149 -0.1249  0.0272
  142MOL   C27540037   6.661   7.972   0.251  0.2979 -0.4425  0.6572
  142MOL   H27640038   6.352   8.096   0.182  1.1185  0.2965 -2.3339
  142MOL   H27740039   6.447   0.148   0.309 -2.1744 -2.1303  0.4870
  142MOL   H27840040   6.633   0.264   0.395 -1.6650 -0.7093  1.1573
  142MOL   H27940041   6.891   0.112   0.438  0.4319  0.1093 -0.1119
  142MOL   H28040042   6.820   8.065   0.359 -1.0352 -0.9464  2.5663
  142MOL   H28140043   6.731   7.892   0.234  0.6734 -0.0897  0.5195
  142MOL   H28240044   6.863   0.293   0.471 -1.0636 -0.4018  1.1140
  143MOL     C140045   1.123   2.020   4.043 -0.1886 -0.6264 -0.2783
  143MOL     C240046   1.159   2.041   4.178  0.5841  0.1097  0.0955
  143MOL     C340047   1.283   2.100   4.208 -0.0271 -0.4677 -0.1989
  143MOL     C440048   1.375   2.147   4.108 -0.2774 -0.2264  0.2870
  143MOL     C540049   1.498   2.227   4.132  0.1271  0.2588 -0.3314
  143MOL     C640050   1.554   2.232   4.251 -0.0087  0.1432 -0.1834
  143MOL     C740051   1.339   2.116   3.975 -0.4125 -0.5718  0.2690
  143MOL     C840052   1.219   2.050   3.941  0.2782  0.0039  0.2182
  143MOL     H940053   1.092   2.017   4.259 -0.0714 -0.3585 -0.5819
  143MOL    H1040054   1.309   2.142   4.304 -0.7801  2.1329 -1.0956
  143MOL    H1140055   1.537   2.273   4.043  0.3455 -0.6513 -0.7101
  143MOL    H1240056   1.510   2.167   4.326 -0.9717 -1.5964 -2.1911
  143MOL    H1340057   1.403   2.135   3.891 -0.3321 -1.0607  0.2207
  143MOL    H1440058   1.209   2.027   3.836  1.5732  1.8656 -0.3364
  143MOL    H1540059   1.031   1.970   4.017 -0.8417  1.1378 -1.4758
  143MOL    C1640060   1.680   2.303   4.277  0.1185  0.2018  0.6336
  143MOL    C1740061   1.720   2.317   4.416 -0.0214  0.0176  0.0766
  143MOL    C1840062   1.838   2.392   4.449  0.7238 -0.1470 -0.0593
  143MOL    C1940063   1.920   2.449   4.344  0.7444  0.3151  0.0958
  143MOL    C2040064   2.047   2.517   4.373 -0.2157 -0.0334  0.0253
  143MOL    C2140065   2.093   2.543   4.496 -1.0624  0.1206 -0.0547
  143MOL    C2240066   1.886   2.422   4.211 -0.8199 -0.3151 -0.3021
  143MOL    C2340067   1.771   2.350   4.175  0.7187 -0.6629  0.7128
  143MOL    H2440068   1.661   2.280   4.498 -0.2158 -1.1390 -0.5773
  143MOL    H2540069   1.845   2.416   4.554  1.5947  1.2785 -0.4216
  143MOL    H2640070   2.113   2.542   4.291  1.4187 -0.3672  1.2044
  143MOL    H2740071   2.041   2.518   4.587  0.5734  0.8849  1.1030
  143MOL    H2840072   1.955   2.456   4.135  1.2734 -0.4494  1.4938
  143MOL    H2940073   1.747   2.329   4.072  2.7502 -0.4133  0.1826
  143MOL    C3040074   2.222   2.611   4.533 -0.4256 -0.1612  0.0602
  143MOL    C3140075   2.259   2.616   4.670 -0.5583  0.6862  0.8042
  143MOL    C3240076   2.375   2.680   4.716 -0.3010  0.0717  0.2427
  143MOL    C3340077   2.463   2.746   4.623 -0.4764  0.1464  0.1642
  143MOL    C3440078   2.579   2.817   4.678 -0.1089 -0.7787  0.2358
  143MOL    C3540079   2.681   2.878   4.614  0.2478  0.3554 -0.0587
  143MOL    C3640080   2.425   2.742   4.485 -0.3072  0.4163 -0.9997
  143MOL    C3740081   2.311   2.670   4.445 -0.3290 -0.9364 -0.0455
  143MOL    H3840082   2.203   2.561   4.744  0.8796 -0.2623  1.1970
  143MOL    H3940083   2.392   2.689   4.822 -1.2269 -0.9489  0.4790
  143MOL    H4040084   2.584   2.814   4.786  1.5072  0.5900  0.2175
  143MOL    H4140085   2.682   2.886   4.506 -1.6705  1.5259 -0.0219
  143MOL    H4240086   2.483   2.783   4.404 -1.1209 -0.7185 -2.1851
  143MOL    H4340087   2.296   2.668   4.338  1.7309  2.6577 -0.4958
  143MOL    C4440088   2.794   2.928   4.687  0.5654  0.1605  0.1097
  143MOL    C4540089   2.856   3.044   4.638 -0.0784  0.2952  0.1937
  143MOL    C4640090   2.972   3.091   4.698  0.6128 -0.0864 -0.1685
  143MOL    C4740091   3.029   3.028   4.809  0.4411  0.2434  0.1724
  143MOL    C4840092   3.160   3.060   4.872  0.4232  0.0147 -0.0067
  143MOL    C4940093   3.239   3.165   4.832  0.3529 -0.2628  0.6129
  143MOL    C5040094   2.970   2.915   4.858  0.5969  0.3880 -0.3430
  143MOL    C5140095   2.846   2.866   4.804  0.6711 -0.3172  0.3106
  143MOL    H5240096   2.822   3.081   4.542  0.1971 -0.3882 -0.1684
  143MOL    H5340097   3.025   3.179   4.664 -1.7366  1.7181  0.7042
  143MOL    H5440098   3.194   3.000   4.955 -0.0214 -0.3295 -0.0716
  143MOL    H5540099   3.201   3.223   4.749  0.3732 -0.6029  0.3647
  143MOL    H5640100   3.014   2.870   4.946  1.3213  1.8121  0.0392
  143MOL    H5740101   2.795   2.783   4.849 -1.2627 -1.0591 -3.0539
  143MOL    C5840102   3.362   3.214   4.898  0.0538  0.0479 -0.5118
  143MOL    C5940103   3.452   3.129   4.966 -0.3784  0.5221 -0.3411
  143MOL    C6040104   3.571   3.180   5.024 -0.3441  0.7873  0.0604
  143MOL    C6140105   3.609   3.313   4.999  1.0046 -0.0948 -0.2074
  143MOL    C6240106   3.736   3.367   5.053  0.1614 -0.4437  0.6467
  143MOL    C6340107   3.788   3.486   5.047  0.2089 -0.1969 -0.0519
  143MOL    C6440108   3.522   3.400   4.932  0.6037  0.2436  0.1821
  143MOL    C6540109   3.397   3.353   4.881 -0.9900 -0.5821  0.5767
  143MOL    H6640110   3.423   3.025   4.970  0.3866  0.2674 -1.1355
  143MOL    H6740111   3.649   3.110   5.050 -0.1774  0.4011 -1.4504
  143MOL    H6840112   3.802   3.293   5.098  1.5111  0.2751 -0.1075
  143MOL    H6940113   3.736   3.568   4.999  1.3497  0.2601 -0.5344
  143MOL    H7040114   3.536   3.507   4.921 -1.4211  0.5512  0.3493
  143MOL    H7140115   3.328   3.434   4.862 -1.5980 -1.3479 -0.5141
  143MOL    C7240116   3.919   3.524   5.105  0.2031 -0.7643 -0.0620
  143MOL    C7340117   4.028   3.438   5.127  0.0389  0.5510  0.0004
  143MOL    C7440118   4.154   3.477   5.166 -0.4281 -0.5824 -0.3862
  143MOL    C7540119   4.175   3.613   5.185 -0.5638 -0.0459  0.6331
  143MOL    C7640120   4.312   3.663   5.223  0.1021  0.4390  0.1265
  143MOL    C7740121   4.418   3.598   5.267 -0.3885  0.1711  0.3049
  143MOL    C7840122   4.068   3.713   5.170 -0.2103 -0.0305 -0.1471
  143MOL    C7940123   3.938   3.663   5.134 -0.2359  0.1968  0.8980
  143MOL    H8040124   4.016   3.333   5.104 -0.1159  0.4500  0.5255
  143MOL    H8140125   4.226   3.397   5.180  0.0947 -0.6577 -3.1941
  143MOL    H8240126   4.320   3.768   5.198  1.0875  0.6273  1.1688
  143MOL    H8340127   4.412   3.491   5.282 -0.5827 -0.0781 -1.4520
  143MOL    H8440128   4.084   3.813   5.207 -0.6762  0.0551 -0.1856
  143MOL    H8540129   3.862   3.739   5.124 -0.0518  0.1411 -1.0823
  143MOL    C8640130   4.548   3.650   5.304 -0.1177  0.0922 -0.0167
  143MOL    C8740131   4.649   3.561   5.352  0.0355 -0.0946  0.3410
  143MOL    C8840132   4.782   3.607   5.376  0.3646 -0.6290 -0.1159
  143MOL    C8940133   4.813   3.741   5.355 -0.2723  0.0278  0.8096
  143MOL    C9040134   4.959   3.777   5.386  0.1329  0.3460  0.4501
  143MOL    C9140135   5.016   3.899   5.383 -0.0880  0.0890 -0.0644
  143MOL    C9240136   4.713   3.826   5.317  0.1793 -0.1844 -1.2848
  143MOL    C9340137   4.583   3.780   5.283  0.3875 -0.5721 -0.5378
  143MOL    H9440138   4.634   3.454   5.349  1.3357 -0.3052  1.1006
  143MOL    H9540139   4.861   3.542   5.412 -0.5987 -0.6685  2.0553
  143MOL    H9640140   5.021   3.695   5.420 -1.1139 -0.3662  1.0598
  143MOL    H9740141   4.960   3.988   5.359  1.6544  1.0927 -0.5311
  143MOL    H9840142   4.735   3.931   5.307  0.0960  0.1510  1.5154
  143MOL    H9940143   4.511   3.855   5.252 -1.4544 -0.3616  3.8691
  143MOL   C10040144   5.156   3.935   5.417  0.8415  0.1192  0.8401
  143MOL   C10140145   5.247   3.836   5.462  1.6707 -0.2251 -0.2940
  143MOL   C10240146   5.382   3.867   5.474  0.0842 -0.2162  0.0724
  143MOL   C10340147   5.436   4.001   5.451 -0.0199  0.3525  0.3216
  143MOL   C10440148   5.574   4.042   5.453 -0.2884  0.4936  0.4045
  143MOL   C10540149   5.680   3.958   5.477 -0.1422 -0.4398  0.3542
  143MOL   C10640150   5.341   4.099   5.410  0.0043  0.4700  0.1939
  143MOL   C10740151   5.205   4.066   5.386 -0.7496 -0.7703 -0.3637
  143MOL   H10840152   5.207   3.744   5.503 -1.3637  1.2182  0.1608
  143MOL   H10940153   5.435   3.787   5.523 -0.4128 -1.5703 -1.5294
  143MOL   H11040154   5.583   4.148   5.431  1.4500  0.7422  2.1521
  143MOL   H11140155   5.660   3.853   5.496 -1.9304 -0.2454 -0.3485
  143MOL   H11240156   5.367   4.201   5.389 -0.4092  0.9703  2.0125
  143MOL   H11340157   5.141   4.135   5.334  1.0866 -1.1177 -3.2534
  143MOL   C11440158   5.817   4.006   5.491  0.0729 -0.1095 -0.1498
  143MOL   C11540159   5.855   4.141   5.495 -0.0529 -0.4306  0.1283
  143MOL   C11640160   5.988   4.179   5.504  0.0419 -0.0972  0.0462
  143MOL   C11740161   6.091   4.083   5.504  0.8971  0.1180  0.0340
  143MOL   C11840162   6.228   4.135   5.516 -0.3893 -0.7176  0.8581
  143MOL   C11940163   6.328   4.054   5.560  0.8770  0.0984  0.1739
  143MOL   C12040164   6.054   3.943   5.500  0.3098 -0.2024 -0.6607
  143MOL   C12140165   5.916   3.908   5.510 -0.5763 -0.0291 -1.1824
  143MOL   H12240166   5.776   4.215   5.493 -1.0902 -1.5180  0.4479
  143MOL   H12340167   6.021   4.280   5.523  2.3645 -0.7513 -0.3980
  143MOL   H12440168   6.238   4.236   5.479  0.5045 -2.1549 -3.0272
  143MOL   H12540169   6.310   3.955   5.597  0.0616 -0.2577 -1.1539
  143MOL   H12640170   6.130   3.865   5.499  1.6566  1.0895 -1.9239
  143MOL   H12740171   5.880   3.806   5.512 -1.5372  0.3396  2.1396
  143MOL   C12840172   6.466   4.099   5.567  0.5840 -0.5360 -0.4727
  143MOL   C12940173   6.499   4.239   5.551  0.2596  0.2044 -0.1864
  143MOL   C13040174   6.630   4.282   5.552  0.7013  0.0349 -0.2192
  143MOL   C13140175   6.740   4.191   5.561  0.0757 -0.1797  0.0899
  143MOL   C13240176   6.878   4.248   5.574 -0.3251  1.0197  1.1670
  143MOL   C13340177   6.992   4.170   5.562 -0.4593 -0.1395 -0.5127
  143MOL   C13440178   6.710   4.050   5.564 -0.5602  0.0101 -0.0531
  143MOL   C13540179   6.572   4.006   5.566 -0.6368 -0.4184  0.0086
  143MOL   H13640180   6.421   4.314   5.560  0.4022  0.3609 -0.2457
  143MOL   H13740181   6.651   4.388   5.560 -1.7471  0.6796 -1.7487
  143MOL   H13840182   6.888   4.353   5.595 -1.0869  1.4036 -0.2886
  143MOL   H13940183   6.972   4.065   5.547 -1.8766  0.0370  0.1073
  143MOL   H14040184   6.792   3.980   5.574  0.6146  1.2787 -0.6889
  143MOL   H14140185   6.546   3.902   5.574  1.5669 -0.8760  1.4984
  143MOL   C14240186   7.134   4.226   5.573  1.1161  0.9552 -0.1750
  143MOL   C14340187   7.166   4.357   5.536  0.7093  0.1841  0.5646
  143MOL   C14440188   7.298   4.405   5.539  1.0403  0.7462 -0.2723
  143MOL   C14540189   7.397   4.323   5.593  0.0166  0.1902 -0.3345
  143MOL   C14640190   7.529   4.381   5.618 -0.0383  1.0139  0.0879
  143MOL   C14740191   7.643   4.321   5.658  0.5990  0.3493  0.0060
  143MOL   C14840192   7.363   4.190   5.643 -0.9880 -0.5112  0.7645
  143MOL   C14940193   7.229   4.144   5.632 -0.7663  0.1109 -0.0346
  143MOL   H15040194   7.089   4.424   5.500 -0.6547 -1.8098 -0.3170
  143MOL   H15140195   7.328   4.505   5.509  0.3634  1.0715  0.1340
  143MOL   H15240196   7.540   4.485   5.591 -0.8351  0.8847 -0.7613
  143MOL   H15340197   7.647   4.214   5.671  0.2352  0.2382 -0.7533
  143MOL   H15440198   7.444   4.129   5.679 -0.0804  0.2123 -0.0445
  143MOL   H15540199   7.212   4.040   5.657  0.6025 -0.1714 -0.2669
  143MOL   C15640200   7.762   4.392   5.681 -0.4135 -0.4835  0.5675
  143MOL   C15740201   7.764   4.533   5.707  0.1881 -0.0680  0.1822
  143MOL   C15840202   7.882   4.602   5.713  0.2379  0.1719  0.2001
  143MOL   C15940203   8.008   4.538   5.693  0.5666  0.9331 -0.6019
  143MOL   C16040204   8.135   4.624   5.709 -0.3745  0.0964 -0.1665
  143MOL   C16140205   0.110   4.591   5.762  0.0467 -0.4719  0.7434
  143MOL   C16240206   8.007   4.400   5.663 -0.0323 -0.7808 -0.1199
  143MOL   C16340207   7.884   4.328   5.661 -0.6353  0.5160 -0.2636
  143MOL   H16440208   7.670   4.583   5.726  0.7190  0.7312  0.7326
  143MOL   H16540209   7.886   4.708   5.734  1.4676  0.1659  0.0326
  143MOL   H16640210   8.120   4.720   5.664  2.1018 -0.6591 -2.6752
  143MOL   H16740211   0.130   4.495   5.807  0.4708 -0.8195 -0.1889
  143MOL   H16840212   8.099   4.356   5.629  0.0277  1.6055 -3.2590
  143MOL   H16940213   7.897   4.223   5.640  0.8348  0.8190 -0.9351
  143MOL   C17040214   0.216   4.688   5.784 -0.2237  0.1173 -0.0766
  143MOL   C17140215   0.190   4.820   5.742 -0.5796 -0.2729  0.5568
  143MOL   C17240216   0.297   4.914   5.755 -0.7301  0.0702  0.8129
  143MOL   C17340217   0.420   4.885   5.820  0.0121  0.0341  0.2503
  143MOL   C17440218   0.521   4.988   5.859 -0.3518 -0.0556 -0.0487
  143MOL   C17540219   0.497   5.115   5.861 -0.3270  0.8472 -0.0069
  143MOL   C17640220   0.441   4.749   5.863 -0.0102  0.6435  0.0322
  143MOL   C17740221   0.335   4.656   5.846 -0.5103 -0.0135 -0.0839
  143MOL   H17840222   0.099   4.860   5.703  0.8788  1.1644 -1.4454
  143MOL   H17940223   0.275   5.016   5.725 -1.5750  0.0816  1.4455
  143MOL   H18040224   0.619   4.949   5.883 -1.7238 -3.1070  0.7847
  143MOL   H18140225   0.397   5.146   5.833  0.0929  1.1210 -1.2415
  143MOL   H18240226   0.537   4.722   5.906  0.0682  0.5537 -0.2008
  143MOL   H18340227   0.352   4.559   5.888  0.4609 -0.3279 -1.1806
  143MOL   C18440228   0.589   5.224   5.895  0.9252 -0.2795  0.0746
  143MOL   C18540229   0.542   5.347   5.839 -0.0452 -0.0209 -0.2909
  143MOL   C18640230   0.626   5.461   5.847 -0.8995  0.0773 -0.1878
  143MOL   C18740231   0.748   5.444   5.917  0.0102 -1.4990 -0.0719
  143MOL   C18840232   0.819   5.570   5.952  0.1675  0.0605  0.4946
  143MOL   C18940233   0.760   5.688   5.980 -0.1549  1.0336 -0.0885
  143MOL   C19040234   0.796   5.321   5.963  0.4392  0.5784 -0.0614
  143MOL   C19140235   0.714   5.209   5.948 -0.6002  0.0339  0.0027
  143MOL   H19240236   0.445   5.354   5.793 -0.5373 -0.2958  0.7066
  143MOL   H19340237   0.589   5.555   5.809  1.2813  0.9887 -0.1248
  143MOL   H19440238   0.926   5.554   5.951  0.0747 -0.5936  0.8885
  143MOL   H19540239   0.653   5.677   5.984  0.0315 -0.9770 -0.1308
  143MOL   H19640240   0.896   5.311   6.002 -0.5878  1.7754  3.0518
  143MOL   H19740241   0.738   5.108   5.980 -0.4842 -0.3301 -1.2302
  143MOL   C19840242   0.827   5.817   6.012  0.3222 -0.8753  0.0417
  143MOL   C19940243   0.740   5.930   6.010 -0.3691  0.3580  0.5307
  143MOL   C20040244   0.795   6.051   6.039  0.0850 -0.8462 -0.0533
  143MOL   C20140245   0.924   6.072   6.081 -0.1735 -0.4040 -0.4343
  143MOL   C20240246   0.967   6.212   6.108 -0.0242  0.0277 -0.9794
  143MOL   C20340247   1.085   6.262   6.152 -0.4242 -0.0280 -0.3588
  143MOL   C20440248   1.005   5.960   6.096 -0.0081 -0.0446  0.2681
  143MOL   C20540249   0.960   5.829   6.061 -0.7184 -0.1124  0.8472
  143MOL   H20640250   0.639   5.914   5.975 -0.0786 -0.8779  0.1962
  143MOL   H20740251   0.734   6.137   6.014 -1.7708 -1.9420  0.5975
  143MOL   H20840252   0.892   6.284   6.078  0.9786  1.3121 -0.4204
  143MOL   H20940253   1.159   6.191   6.187 -1.1354 -0.2335  0.7568
  143MOL   H21040254   1.106   5.971   6.132 -0.3692  1.5801  0.8372
  143MOL   H21140255   1.028   5.745   6.055 -0.1773  0.4519 -1.2956
  143MOL   C21240256   1.118   6.408   6.144 -0.2840  0.5000 -0.8509
  143MOL   C21340257   1.229   6.449   6.221 -0.2834 -0.0649  0.5713
  143MOL   C21440258   1.263   6.588   6.223  0.1322 -0.1563  0.0241
  143MOL   C21540259   1.179   6.685   6.153 -0.3204 -0.2085  0.9200
  143MOL   C21640260   1.204   6.827   6.184 -0.2578  0.1352 -0.0840
  143MOL   C21740261   1.145   6.934   6.129 -0.7212  0.0863  0.7256
  143MOL   C21840262   1.077   6.640   6.065 -0.1819 -0.2894 -0.1189
  143MOL   C21940263   1.048   6.502   6.067  0.0234  0.2598 -0.2831
  143MOL   H22040264   1.272   6.374   6.285  2.9645  0.3921 -0.9850
  143MOL   H22140265   1.339   6.626   6.290 -0.0380  0.7066 -0.2650
  143MOL   H22240266   1.282   6.837   6.259  1.4471 -0.6080 -1.7209
  143MOL   H22340267   1.061   6.916   6.063 -0.6671  0.3023  0.5982
  143MOL   H22440268   1.026   6.704   5.995  0.3546  0.6608  0.3392
  143MOL   H22540269   0.979   6.468   5.991 -0.1061  1.2268 -0.6103
  143MOL   C22640270   1.165   7.078   6.148 -0.2188 -0.0798 -0.3065
  143MOL   C22740271   1.244   7.137   6.254  0.6568 -0.5666 -0.0465
  143MOL   C22840272   1.252   7.282   6.267  0.2561  0.5868  0.1916
  143MOL   C22940273   1.185   7.372   6.181 -0.8422  0.1215 -0.0679
  143MOL   C23040274   1.190   7.517   6.200 -0.7672 -0.2395 -0.4730
  143MOL   C23140275   1.137   7.611   6.119 -0.2312  0.8821  0.4484
  143MOL   C23240276   1.111   7.306   6.072  0.1326 -0.5590  0.2444
  143MOL   C23340277   1.104   7.166   6.056 -0.0664 -0.6232  0.2644
  143MOL   H23440278   1.297   7.077   6.327 -1.4487 -2.6272 -0.1246
  143MOL   H23540279   1.309   7.321   6.350 -0.1415  0.5004  0.5077
  143MOL   H23640280   1.237   7.550   6.292 -1.0361  1.4237 -0.9192
  143MOL   H23740281   1.079   7.586   6.031  0.1542 -0.3408  0.5402
  143MOL   H23840282   1.055   7.369   6.004  0.8536 -1.0162 -0.7799
  143MOL   H23940283   1.048   7.123   5.974  0.4902  1.3973 -1.2097
  143MOL   C24040284   1.142   7.751   6.143 -0.6579  0.5295 -0.0419
  143MOL   C24140285   1.219   7.801   6.249 -0.2625 -1.0036 -0.5402
  143MOL   C24240286   1.220   7.941   6.266 -0.6229  0.3568 -0.3267
  143MOL   C24340287   1.134   8.026   6.198  0.7411  0.2592  0.0031
  143MOL   C24440288   1.119   0.022   6.220 -0.7094 -0.4363  0.2428
  143MOL   C24540289   1.199   0.092   6.301  0.2991 -0.1170  0.1500
  143MOL   C24640290   1.055   7.967   6.094  0.2497  0.2441 -0.3477
  143MOL   C24740291   1.060   7.831   6.068 -0.6165 -0.3695  0.0811
  143MOL   H24840292   1.282   7.739   6.310  0.6738 -0.0125 -0.4811
  143MOL   H24940293   1.276   7.980   6.350  0.0614  1.6818 -1.3787
  143MOL   H25040294   1.039   0.079   6.175 -1.9813 -1.4671  1.1862
  143MOL   H25140295   1.287   0.048   6.346 -0.4527 -1.3748  0.4128
  143MOL   H25240296   0.977   8.024   6.046 -0.0954  0.1766  0.1261
  143MOL   H25340297   0.993   7.794   5.992 -1.3732 -0.2971  0.7064
  143MOL   C25440298   1.170   0.232   6.348 -0.6609  0.1437  0.3563
  143MOL   C25540299   1.048   0.261   6.402  0.2297 -0.2848 -0.3369
  143MOL   C25640300   1.021   0.387   6.452  0.4770 -0.2238 -0.2553
  143MOL   C25740301   1.112   0.496   6.439 -0.2683 -0.0463  1.0033
  143MOL   C25840302   1.071   0.636   6.468 -0.4873  0.1107  0.5641
  143MOL   C25940303   1.006   0.678   6.582  0.0671 -0.4108  0.6605
  143MOL   C26040304   1.244   0.467   6.392  0.2428 -0.0042 -0.2706
  143MOL   C26140305   1.268   0.334   6.349 -0.7220 -0.7496  0.7096
  143MOL   H26240306   0.977   0.180   6.415 -0.6381  0.8903  2.7587
  143MOL   H26340307   0.922   0.419   6.480 -0.1495 -0.4451 -2.1293
  143MOL   H26440308   1.097   0.707   6.391 -2.2028  0.0176 -0.1250
  143MOL   H26540309   0.983   0.783   6.592  1.0727  0.2288 -2.9309
  143MOL   H26640310   1.321   0.542   6.380  0.0133  0.2474 -0.1690
  143MOL   H26740311   1.367   0.303   6.320 -0.2458  1.0671  0.3580
  143MOL   C26840312   0.963   0.603   6.698  0.3506  0.2637 -0.3750
  143MOL   C26940313   0.833   0.623   6.748  0.1316  0.7955  0.0997
  143MOL   C27040314   0.794   0.548   6.864  0.4147 -0.1164  1.2156
  143MOL   C27140315   0.879   0.453   6.931  0.1638 -0.1822 -0.1003
  143MOL   C27240316   0.832   0.374   7.047 -0.2410 -0.3582 -0.4473
  143MOL   C27340317   0.701   0.342   7.070 -0.2826 -0.3734 -0.5244
  143MOL   C27440318   1.015   0.445   6.880  0.7294 -0.0590 -0.1412
  143MOL   C27540319   1.056   0.518   6.765  0.7220 -0.1982  0.3139
  143MOL   H27640320   0.770   0.699   6.704 -1.0344 -1.1119 -1.6325
  143MOL   H27740321   0.692   0.562   6.898  0.2266 -1.1193  1.0842
  143MOL   H27840322   0.902   0.344   7.124 -0.6303  0.1225  0.1034
  143MOL   H27940323   0.635   0.379   6.994  0.5002 -1.8991 -1.9816
  143MOL   H28040324   1.085   0.400   6.949  1.3978 -1.3250 -1.6210
  143MOL   H28140325   1.161   0.519   6.740  0.1044  3.4414 -2.6567
  143MOL   H28240326   0.672   0.289   7.160 -2.5438  0.7936 -0.5501
  144MOL     C140327   1.180   1.245   5.189  0.1965 -0.6141  0.1449
  144MOL     C240328   1.094   1.141   5.174 -0.1792  0.0035  0.7849
  144MOL     C340329   0.967   1.147   5.118 -0.6026 -0.3462 -0.3045
  144MOL     C440330   0.916   1.275   5.078 -0.3045  1.0026 -0.4534
  144MOL     C540331   0.787   1.278   5.006 -0.5060  0.7137  1.1919
  144MOL     C640332   0.731   1.392   4.957  0.6573  0.2436  0.3755
  144MOL     C740333   1.000   1.388   5.098 -0.1753 -0.0041  0.2223
  144MOL     C840334   1.128   1.370   5.155  0.2898 -0.1033 -0.9662
  144MOL     H940335   1.139   1.045   5.194 -0.1313  0.2812  2.0328
  144MOL    H1040336   0.907   1.058   5.112 -2.3196  0.5218  2.6829
  144MOL    H1140337   0.738   1.182   4.996 -2.6741  1.8078  1.1251
  144MOL    H1240338   0.793   1.479   4.972  2.0698 -0.6409 -0.2039
  144MOL    H1340339   0.962   1.486   5.074  1.5195  1.2610  2.5383
  144MOL    H1440340   1.181   1.462   5.172 -0.7687  0.5136 -0.9365
  144MOL    H1540341   1.271   1.230   5.245  1.3748  2.0259 -0.9740
  144MOL    C1640342   0.607   1.397   4.877  0.5772 -0.6363  0.9557
  144MOL    C1740343   0.511   1.291   4.871 -0.1791  0.8876  0.5092
  144MOL    C1840344   0.386   1.305   4.801 -0.3649  0.4810 -1.0404
  144MOL    C1940345   0.369   1.415   4.724 -0.5089  0.9304  0.2945
  144MOL    C2040346   0.264   1.426   4.626  0.4723 -0.5368  0.4851
  144MOL    C2140347   0.231   1.527   4.545 -0.3555 -0.4424  0.6209
  144MOL    C2240348   0.459   1.519   4.730  0.5077  0.1247  0.4881
  144MOL    C2340349   0.575   1.518   4.807 -0.6056 -0.3445  0.1175
  144MOL    H2440350   0.535   1.195   4.913 -0.8900  0.6739  0.4352
  144MOL    H2540351   0.305   1.235   4.813 -1.2063  1.4555 -1.0493
  144MOL    H2640352   0.205   1.335   4.618  1.7938 -1.3224 -0.4839
  144MOL    H2740353   0.269   1.628   4.555 -0.9333 -0.2087  0.5161
  144MOL    H2840354   0.444   1.602   4.663 -0.4255  0.1803  0.7555
  144MOL    H2940355   0.634   1.608   4.798  0.6560 -1.2844 -1.0834
  144MOL    C3040356   0.138   1.505   4.435  0.1820  0.1861 -0.0949
  144MOL    C3140357   0.073   1.616   4.377  0.3023  0.0655 -0.5008
  144MOL    C3240358   8.117   1.603   4.277 -0.4586  0.2896 -0.2763
  144MOL    C3340359   8.092   1.477   4.218 -0.5690 -0.2639 -0.2727
  144MOL    C3440360   8.001   1.465   4.103  0.2205 -0.0083 -0.8085
  144MOL    C3540361   7.983   1.354   4.031 -0.1585  0.1856 -0.2054
  144MOL    C3640362   0.013   1.367   4.276  0.0555  0.3776  0.2880
  144MOL    C3740363   0.109   1.377   4.378  0.8885 -0.4709 -0.4115
  144MOL    H3840364   0.080   1.720   4.405  1.6909 -0.1420 -0.0810
  144MOL    H3940365   8.068   1.688   4.231 -0.2060  1.7037  2.0073
  144MOL    H4040366   7.932   1.544   4.079 -0.4739 -0.8700 -1.6670
  144MOL    H4140367   8.046   1.271   4.057 -0.8553 -1.1110 -2.5380
  144MOL    H4240368   8.135   1.270   4.235 -0.0807 -0.2402  1.8170
  144MOL    H4340369   0.153   1.285   4.415  0.4783  0.0730  1.4902
  144MOL    C4440370   7.881   1.321   3.927 -0.1467 -0.4069  0.2268
  144MOL    C4540371   7.822   1.192   3.920  0.4142 -0.5300 -0.5066
  144MOL    C4640372   7.706   1.172   3.838 -0.3513  0.8084 -0.6154
  144MOL    C4740373   7.666   1.275   3.747 -0.0278  0.5177  0.2443
  144MOL    C4840374   7.548   1.252   3.662 -0.3857 -0.3644  0.8246
  144MOL    C4940375   7.521   1.325   3.550  0.1386 -0.2286  0.3973
  144MOL    C5040376   7.723   1.399   3.757 -0.1398 -0.5289 -0.2377
  144MOL    C5140377   7.826   1.424   3.850  0.0444 -0.0643 -0.3147
  144MOL    H5240378   7.851   1.112   3.985  0.6687  1.0837  1.4101
  144MOL    H5340379   7.656   1.077   3.836 -4.0661  2.5529  1.9549
  144MOL    H5440380   7.486   1.165   3.675 -1.2696  0.0638 -0.3888
  144MOL    H5540381   7.584   1.408   3.520 -0.3105 -0.6902 -1.9141
  144MOL    H5640382   7.685   1.485   3.702  1.6135  0.3725 -0.0971
  144MOL    H5740383   7.865   1.523   3.864 -0.3718  0.0144  0.3290
  144MOL    C5840384   7.401   1.309   3.468  0.5605  0.6228 -0.5275
  144MOL    C5940385   7.291   1.236   3.517  0.5497 -0.0012 -0.4617
  144MOL    C6040386   7.173   1.236   3.442 -0.0687  0.6326 -0.5632
  144MOL    C6140387   7.158   1.301   3.322 -0.0936 -1.0001 -0.4651
  144MOL    C6240388   7.031   1.297   3.251 -0.4207  0.2992  0.3330
  144MOL    C6340389   7.022   1.324   3.117  0.0325 -0.5126  0.0127
  144MOL    C6440390   7.269   1.382   3.273  0.3801 -0.7623 -0.2575
  144MOL    C6540391   7.390   1.381   3.348 -0.8133 -0.2973 -0.7270
  144MOL    H6640392   7.291   1.194   3.617  1.0894  1.7190  0.2772
  144MOL    H6740393   7.095   1.178   3.489  1.3710 -0.2839  0.7748
  144MOL    H6840394   6.943   1.267   3.306 -1.3232  3.8175  0.9465
  144MOL    H6940395   7.109   1.358   3.064 -0.3337 -0.6116 -0.6492
  144MOL    H7040396   7.262   1.440   3.182  2.1034  1.0390  0.7132
  144MOL    H7140397   7.473   1.441   3.314  0.2294 -0.8572  0.7543
  144MOL    C7240398   6.910   1.304   3.026 -0.3827 -0.4006 -0.2294
  144MOL    C7340399   6.909   1.361   2.901  0.3090 -0.2760  0.1483
  144MOL    C7440400   6.802   1.355   2.812  0.4824  0.3183  0.1045
  144MOL    C7540401   6.675   1.297   2.856  0.6167  0.0343 -0.3172
  144MOL    C7640402   6.551   1.292   2.780 -0.3633  0.1417  0.5471
  144MOL    C7740403   6.539   1.335   2.648 -0.0986 -0.4373  0.0274
  144MOL    C7840404   6.682   1.227   2.979  0.2175 -0.4690 -0.0579
  144MOL    C7940405   6.793   1.231   3.063  0.6824 -0.4885 -0.3999
  144MOL    H8040406   6.996   1.417   2.869 -1.8208  2.0679 -1.6733
  144MOL    H8140407   6.806   1.406   2.716  2.7356  0.9006  0.4821
  144MOL    H8240408   6.461   1.264   2.832  0.0093 -0.0053  1.1163
  144MOL    H8340409   6.628   1.363   2.594  0.4097  0.3857  1.2790
  144MOL    H8440410   6.599   1.167   3.016 -0.1703  0.4327  0.5715
  144MOL    H8540411   6.774   1.184   3.159 -0.0519  0.6043  0.0073
  144MOL    C8640412   6.414   1.349   2.576  0.3148 -0.2220 -0.4608
  144MOL    C8740413   6.289   1.292   2.623 -0.3006 -0.3272 -0.0481
  144MOL    C8840414   6.166   1.294   2.556  0.4196  0.4219  0.6712
  144MOL    C8940415   6.168   1.356   2.428  1.0050 -0.4753  0.1968
  144MOL    C9040416   6.039   1.353   2.352  0.2505 -0.9599 -0.2267
  144MOL    C9140417   6.006   1.426   2.242 -0.1792  0.3722  0.3495
  144MOL    C9240418   6.282   1.426   2.381 -0.2491 -0.0765 -0.1994
  144MOL    C9340419   6.400   1.424   2.459  0.1202 -0.7604 -0.1264
  144MOL    H9440420   6.280   1.245   2.720  2.7946 -1.2081 -0.1517
  144MOL    H9540421   6.075   1.256   2.599 -0.7726  2.6319  0.1521
  144MOL    H9640422   5.973   1.272   2.380  0.1494 -0.5802  0.6493
  144MOL    H9740423   6.079   1.491   2.197 -0.9165  0.4232 -0.7961
  144MOL    H9840424   6.289   1.475   2.285  1.4936 -0.6777 -0.3923
  144MOL    H9940425   6.487   1.471   2.414  0.2092  1.0012  1.7907
  144MOL   C10040426   5.876   1.415   2.171 -0.3443  0.0022 -0.3576
  144MOL   C10140427   5.775   1.334   2.231  0.8580  0.0855 -0.7083
  144MOL   C10240428   5.652   1.321   2.163 -0.0759  0.1495  0.2332
  144MOL   C10340429   5.637   1.357   2.028  0.3086  0.0559 -0.2914
  144MOL   C10440430   5.518   1.306   1.959 -0.0458 -0.4624  0.3870
  144MOL   C10540431   5.479   1.341   1.840  0.6608 -0.3880  1.0922
  144MOL   C10640432   5.740   1.437   1.967 -0.2554  0.0706 -0.5782
  144MOL   C10740433   5.863   1.468   2.041  0.0328 -0.1767 -0.7229
  144MOL   H10840434   5.771   1.291   2.330 -2.6664 -2.6998 -1.9605
  144MOL   H10940435   5.573   1.263   2.209 -1.0263  2.8168  2.0730
  144MOL   H11040436   5.464   1.226   2.007  0.2664 -1.1025 -0.3189
  144MOL   H11140437   5.539   1.423   1.803 -0.9923  0.3073 -0.0820
  144MOL   H11240438   5.732   1.478   1.867  0.5568 -0.6121 -0.9242
  144MOL   H11340439   5.942   1.528   1.998  0.0915  1.2130  1.2759
  144MOL   C11440440   5.384   1.277   1.745  0.6093 -0.4545  0.9647
  144MOL   C11540441   5.317   1.154   1.774  0.9848 -0.0390  0.0696
  144MOL   C11640442   5.235   1.101   1.674  0.1755  0.1694  0.0275
  144MOL   C11740443   5.211   1.158   1.550 -0.1218  0.6703 -0.3688
  144MOL   C11840444   5.134   1.075   1.455  0.2285 -0.2158  0.0113
  144MOL   C11940445   5.099   1.119   1.329  0.9858 -0.5704  0.3724
  144MOL   C12040446   5.259   1.288   1.539  0.6928 -0.5993  0.1813
  144MOL   C12140447   5.344   1.348   1.633 -0.3724  0.5371  0.9078
  144MOL   H12240448   5.324   1.115   1.875  1.7008 -0.0337  0.0236
  144MOL   H12340449   5.198   1.005   1.708 -2.5804  1.9204  2.2359
  144MOL   H12440450   5.108   0.976   1.490  0.1354 -0.0598  0.3852
  144MOL   H12540451   5.112   1.221   1.295 -0.6727 -0.3707  0.3016
  144MOL   H12640452   5.241   1.357   1.457  0.3192 -0.2746  0.5371
  144MOL   H12740453   5.383   1.448   1.622  1.1210 -0.0637  0.6892
  144MOL   C12840454   5.040   1.026   1.232  0.8169 -0.5655 -0.2195
  144MOL   C12940455   5.059   0.886   1.238 -0.0012 -0.4507 -0.3190
  144MOL   C13040456   5.007   0.795   1.146  0.0252 -0.7523 -0.7779
  144MOL   C13140457   4.958   0.846   1.021 -0.3262 -0.0286 -0.4106
  144MOL   C13240458   4.925   0.753   0.911 -0.5207  0.0647 -0.1393
  144MOL   C13340459   4.951   0.619   0.910  0.3997  0.0196  0.2641
  144MOL   C13440460   4.939   0.987   1.012 -0.4832 -0.4870  0.2022
  144MOL   C13540461   4.970   1.076   1.117  0.7809  0.5626 -0.2789
  144MOL   H13640462   5.117   0.841   1.318  0.1302  0.8632  0.3547
  144MOL   H13740463   5.007   0.688   1.163  0.4145 -0.6450 -0.0521
  144MOL   H13840464   4.874   0.793   0.824 -2.4798 -0.0163  0.9569
  144MOL   H13940465   4.990   0.574   1.000 -0.3775 -0.6450  0.2718
  144MOL   H14040466   4.893   1.031   0.925  0.9442 -0.9538 -0.8055
  144MOL   H14140467   4.953   1.182   1.117 -0.9878  0.3244  1.3504
  144MOL   C14240468   4.921   0.526   0.795 -0.6519 -0.4044  0.1871
  144MOL   C14340469   4.826   0.553   0.697  0.0335 -0.1343 -0.0667
  144MOL   C14440470   4.807   0.470   0.587 -0.2944 -0.0359 -0.0092
  144MOL   C14540471   4.891   0.353   0.574  0.2670 -0.1013  0.1257
  144MOL   C14640472   4.888   0.283   0.445  0.2271  0.6130  0.4884
  144MOL   C14740473   4.995   0.223   0.383 -0.5218 -0.9004  0.9071
  144MOL   C14840474   4.985   0.322   0.682 -0.1100  0.1042 -0.1480
  144MOL   C14940475   5.000   0.406   0.793 -0.3389 -0.4480 -0.1119
  144MOL   H15040476   4.768   0.644   0.709 -2.0205 -1.2564 -1.2341
  144MOL   H15140477   4.734   0.500   0.513  0.0339 -0.8788 -0.6853
  144MOL   H15240478   4.789   0.287   0.401  0.2913  0.6035  0.3410
  144MOL   H15340479   5.088   0.222   0.438 -0.2620  1.0877  0.5250
  144MOL   H15440480   5.044   0.232   0.671  0.2484  0.0899  1.7744
  144MOL   H15540481   5.063   0.378   0.876  1.6534 -2.7888 -2.3165
  144MOL   C15640482   5.013   0.153   0.255 -0.0334 -0.2575 -0.3186
  144MOL   C15740483   4.912   0.106   0.170 -0.3541  0.0786 -0.1911
  144MOL   C15840484   4.940   0.046   0.046 -0.4103  0.5968  0.5407
  144MOL   C15940485   5.077   0.041   0.004  0.5504 -0.5403 -1.2728
  144MOL   C16040486   5.121   8.128   8.017  0.3468  0.3065 -0.5140
  144MOL   C16140487   5.039   8.091   7.916 -0.3883  0.6969  0.3951
  144MOL   C16240488   5.176   0.103   0.082  0.3365  0.4238 -0.7901
  144MOL   C16340489   5.143   0.165   0.203 -0.8306  0.4384  0.5298
  144MOL   H16440490   4.807   0.095   0.194 -0.3343 -1.5525 -0.7754
  144MOL   H16540491   4.854   0.020   8.129 -1.3086  3.4220  0.5517
  144MOL   H16640492   5.227   8.116   7.998  0.5889  1.8306 -0.2019
  144MOL   H16740493   4.934   8.116   7.925  0.0532  2.1836  1.6517
  144MOL   H16840494   5.275   0.114   0.042  1.1823 -2.0617  0.5023
  144MOL   H16940495   5.223   0.215   0.256  1.2743  0.5186 -2.6082
  144MOL   C17040496   5.084   8.035   7.788  0.1057  0.5565  0.2095
  144MOL   C17140497   5.000   8.042   7.674  0.1514 -0.0266  0.2630
  144MOL   C17240498   5.047   8.004   7.545 -0.0890 -0.1519  0.4584
  144MOL   C17340499   5.186   7.987   7.525  0.2504 -0.1706  0.4463
  144MOL   C17440500   5.235   7.954   7.388  0.3253  0.6298 -0.7757
  144MOL   C17540501   5.336   7.873   7.358 -0.1589  0.0428 -0.1361
  144MOL   C17640502   5.264   7.961   7.642  0.4758  0.3415  0.2874
  144MOL   C17740503   5.215   7.985   7.766 -0.7005  0.5318 -0.0334
  144MOL   H17840504   4.898   8.075   7.688  0.3568 -0.0212  1.8085
  144MOL   H17940505   4.987   8.002   7.455 -0.7542  1.9574  0.8293
  144MOL   H18040506   5.181   7.996   7.305 -1.6546  1.7062  1.0016
  144MOL   H18140507   5.393   7.832   7.440 -0.7256 -0.5634 -0.0394
  144MOL   H18240508   5.369   7.935   7.636 -0.1822 -1.9034 -2.3296
  144MOL   H18340509   5.268   7.976   7.860  0.0221  2.0509 -0.2746
  144MOL   C18440510   5.384   7.828   7.225  0.2637  0.2002 -0.5512
  144MOL   C18540511   5.306   7.816   7.118 -0.8612 -0.1189  0.1431
  144MOL   C18640512   5.353   7.760   7.002 -0.2622 -0.0945 -0.3255
  144MOL   C18740513   5.494   7.735   6.986 -0.0207  0.5517  0.4355
  144MOL   C18840514   5.543   7.692   6.855  0.2203 -0.2015  0.4197
  144MOL   C18940515   5.660   7.628   6.822  0.2110  0.1978 -0.2647
  144MOL   C19040516   5.582   7.759   7.093  0.2820 -0.2163  0.3919
  144MOL   C19140517   5.520   7.803   7.217 -0.2530  0.3714 -0.3972
  144MOL   H19240518   5.204   7.851   7.120 -1.1806 -0.9750 -0.9794
  144MOL   H19340519   5.289   7.745   6.917 -1.5922 -0.6092  0.7493
  144MOL   H19440520   5.476   7.722   6.777  1.5916 -0.8504 -1.0354
  144MOL   H19540521   5.726   7.602   6.903 -0.2321 -1.4897 -0.4175
  144MOL   H19640522   5.687   7.739   7.081  0.4353  0.8496 -0.1181
  144MOL   H19740523   5.583   7.818   7.303  3.3070  0.1534 -2.8522
  144MOL   C19840524   5.695   7.587   6.685  0.6330  0.3704 -0.3238
  144MOL   C19940525   5.817   7.518   6.667  0.0729 -0.3168  0.2741
  144MOL   C20040526   5.864   7.471   6.545 -0.2092 -0.1216 -0.1131
  144MOL   C20140527   5.787   7.498   6.431  1.0580 -0.0241 -0.3020
  144MOL   C20240528   5.832   7.441   6.302 -0.3428  0.0722  0.1775
  144MOL   C20340529   5.801   7.489   6.181 -0.1397  0.6782 -0.3190
  144MOL   C20440530   5.661   7.574   6.440 -0.3644  0.3011  0.0926
  144MOL   C20540531   5.619   7.618   6.567 -0.6357 -0.6323 -0.2223
  144MOL   H20640532   5.878   7.490   6.752 -1.8135 -0.5744  1.5628
  144MOL   H20740533   5.959   7.420   6.539  2.0490  3.9268 -0.4661
  144MOL   H20840534   5.897   7.355   6.295  0.2223  0.5267 -0.2678
  144MOL   H20940535   5.738   7.577   6.183 -0.5286  0.3697  1.0044
  144MOL   H21040536   5.597   7.596   6.356 -0.1842  2.4044  0.4849
  144MOL   H21140537   5.530   7.678   6.569 -1.1696 -1.4168  0.1971
  144MOL   C21240538   5.839   7.445   6.048  0.1139  0.0059  0.1628
  144MOL   C21340539   5.951   7.358   6.029 -0.8093  0.8765  0.2056
  144MOL   C21440540   5.977   7.308   5.898 -0.1640 -0.1251  0.0879
  144MOL   C21540541   5.911   7.363   5.789  0.1374 -1.0798  1.1454
  144MOL   C21640542   5.945   7.311   5.659 -0.4939 -0.3220  0.1883
  144MOL   C21740543   5.862   7.310   5.547 -0.6598  1.0260  0.0713
  144MOL   C21840544   5.810   7.462   5.807  0.2062  0.1904  0.2512
  144MOL   C21940545   5.776   7.504   5.939  0.8577 -1.0516 -0.5546
  144MOL   H22040546   6.013   7.324   6.111  1.4920 -0.8018 -2.1469
  144MOL   H22140547   6.055   7.238   5.873 -0.6243 -0.8250  0.6027
  144MOL   H22240548   6.046   7.274   5.645 -1.2589 -1.7789 -1.6827
  144MOL   H22340549   5.771   7.363   5.570 -0.4025  1.2742  0.5188
  144MOL   H22440550   5.751   7.501   5.726 -1.1699 -2.5548 -0.1070
  144MOL   H22540551   5.697   7.577   5.947  3.4105  1.8559 -0.9047
  144MOL   C22640552   5.897   7.244   5.416 -0.3984 -0.1387  1.8317
  144MOL   C22740553   5.825   7.274   5.295  0.4917 -0.1281 -0.3592
  144MOL   C22840554   5.854   7.215   5.171  0.6903  0.1246  0.0108
  144MOL   C22940555   5.965   7.128   5.156  0.3590  0.5257  0.4230
  144MOL   C23040556   5.999   7.071   5.027  0.9795 -0.0453  0.1836
  144MOL   C23140557   6.079   6.971   4.990  0.2781 -0.5645  0.2734
  144MOL   C23240558   6.033   7.090   5.274 -0.2184 -0.7111  0.7338
  144MOL   C23340559   6.008   7.153   5.396 -0.9233  0.1110  0.4405
  144MOL   H23440560   5.737   7.336   5.307 -0.0191 -0.5363 -1.9233
  144MOL   H23540561   5.800   7.250   5.084  3.2835  1.9242 -0.9277
  144MOL   H23640562   5.955   7.117   4.939  3.1771 -0.1258 -1.0000
  144MOL   H23740563   6.123   6.909   5.067 -0.9360  1.4789  2.6838
  144MOL   H23840564   6.109   7.012   5.270  0.3113 -0.2718  1.7794
  144MOL   H23940565   6.058   7.121   5.486 -0.7735 -2.6310 -0.5714
  144MOL   C24040566   6.109   6.933   4.846 -0.0135  0.2127 -0.0041
  144MOL   C24140567   6.230   6.872   4.817  0.2976 -0.0883 -0.1715
  144MOL   C24240568   6.268   6.859   4.684  0.0891 -0.0388  0.4904
  144MOL   C24340569   6.191   6.897   4.566  0.3168  0.2832 -0.5104
  144MOL   C24440570   6.246   6.885   4.427 -0.3858  0.0892  0.1714
  144MOL   C24540571   6.186   6.942   4.319 -0.3124  0.3385  0.2807
  144MOL   C24640572   6.065   6.954   4.602 -0.0016 -0.0506  0.4968
  144MOL   C24740573   6.028   6.979   4.736 -0.5213 -0.7195 -0.1616
  144MOL   H24840574   6.290   6.849   4.904  0.0706  1.5051  0.4088
  144MOL   H24940575   6.362   6.809   4.664 -0.8140 -1.5644 -0.0334
  144MOL   H25040576   6.332   6.821   4.417  0.9604  1.9825 -0.5494
  144MOL   H25140577   6.096   7.000   4.330 -0.1093  0.6338  0.3805
  144MOL   H25240578   5.999   6.998   4.529  1.3947  1.4523  0.1065
  144MOL   H25340579   5.928   7.014   4.756 -0.0077 -0.3205  1.8394
  144MOL   C25440580   6.235   6.939   4.181 -0.0902  0.2380 -0.1212
  144MOL   C25540581   6.357   6.876   4.144  0.5688  0.1408  0.8469
  144MOL   C25640582   6.398   6.870   4.012  0.1393 -0.9311  0.5844
  144MOL   C25740583   6.320   6.936   3.916 -0.7485  0.2072  0.0646
  144MOL   C25840584   6.356   6.925   3.770  0.1298  0.1801 -0.3200
  144MOL   C25940585   6.481   6.921   3.718  0.8396 -0.1412  0.0352
  144MOL   C26040586   6.198   6.997   3.945  0.1124  0.6468 -0.7286
  144MOL   C26140587   6.157   7.000   4.080 -0.5386 -0.2868 -0.9034
  144MOL   H26240588   6.423   6.827   4.215  0.0722 -0.9823  0.5502
  144MOL   H26340589   6.491   6.818   3.999  0.6317  0.1032 -0.0671
  144MOL   H26440590   6.275   6.911   3.700  0.2239 -1.5971 -0.1165
  144MOL   H26540591   6.472   6.920   3.610 -3.5410  1.2222  0.2867
  144MOL   H26640592   6.136   7.040   3.868  0.9851 -1.0734 -2.4263
  144MOL   H26740593   6.055   7.032   4.097 -1.1181 -1.5325 -1.8811
  144MOL   C26840594   6.618   6.923   3.768 -0.3676  0.4458  0.4942
  144MOL   C26940595   6.714   6.850   3.691  0.2299  0.8585  0.3551
  144MOL   C27040596   6.849   6.842   3.736 -0.4951  0.3241  0.0587
  144MOL   C27140597   6.894   6.922   3.843  0.0753 -0.6311  0.0562
  144MOL   C27240598   7.034   6.924   3.892  1.2720 -0.2940 -0.4315
  144MOL   C27340599   7.127   6.841   3.850 -0.1509 -0.0594  0.7480
  144MOL   C27440600   6.796   6.994   3.916 -0.4550 -0.6058  0.3149
  144MOL   C27540601   6.659   6.990   3.881  0.2488 -0.0644  0.7934
  144MOL   H27640602   6.681   6.793   3.606  1.3529  0.7793 -0.0329
  144MOL   H27740603   6.922   6.786   3.681  1.3434  0.9903  1.7816
  144MOL   H27840604   7.061   7.001   3.963 -2.1291 -1.0592  1.8268
  144MOL   H27940605   7.109   6.755   3.788  1.3017 -1.0410  1.6734
  144MOL   H28040606   6.825   7.040   4.010 -2.0803  1.3184 -0.0857
  144MOL   H28140607   6.585   7.042   3.941  0.1790 -0.5350  1.1218
  144MOL   H28240608   7.229   6.855   3.883  0.3711  2.5373 -1.7273
  145MOL     C140609   0.241   7.874   7.285 -0.3005  0.6811 -0.1509
  145MOL     C240610   0.231   7.756   7.207  0.0077 -0.0329  0.4352
  145MOL     C340611   0.331   7.654   7.215 -0.3037 -0.5585 -0.7153
  145MOL     C440612   0.441   7.673   7.300  0.3938  0.7013  0.3449
  145MOL     C540613   0.539   7.560   7.316 -0.1839 -0.5202  0.2860
  145MOL     C640614   0.630   7.530   7.409  0.0359  0.4645  0.8910
  145MOL     C740615   0.456   7.793   7.374  0.4046 -0.0839  0.4382
  145MOL     C840616   0.353   7.886   7.371  0.0072  0.2987  0.0591
  145MOL     H940617   0.160   7.749   7.126 -0.3613 -2.3877  0.9136
  145MOL    H1040618   0.327   7.559   7.164  0.2288 -0.9332 -0.0538
  145MOL    H1140619   0.536   7.497   7.228 -1.4375  1.1550 -0.8949
  145MOL    H1240620   0.640   7.592   7.497 -0.8737  0.4683  0.9922
  145MOL    H1340621   0.546   7.802   7.433  0.4660  0.3668  0.2709
  145MOL    H1440622   0.360   7.979   7.426 -1.3569 -0.3878  1.4388
  145MOL    H1540623   0.171   7.955   7.280 -1.1262 -0.0580 -0.6084
  145MOL    C1640624   0.724   7.418   7.401 -0.0629  0.6094 -0.1892
  145MOL    C1740625   0.747   7.332   7.293  0.0488  0.3251  0.8261
  145MOL    C1840626   0.846   7.232   7.303  0.0243 -0.3531  0.8548
  145MOL    C1940627   0.921   7.210   7.423  0.0424  0.4571 -0.0056
  145MOL    C2040628   1.015   7.098   7.438 -0.4845 -0.0407  0.5270
  145MOL    C2140629   1.029   7.000   7.348  0.5688  0.0737  0.2405
  145MOL    C2240630   0.896   7.294   7.534 -0.5287 -0.3815  0.1457
  145MOL    C2340631   0.794   7.394   7.520  0.3473 -1.1318  0.2610
  145MOL    H2440632   0.690   7.339   7.201  0.2740 -0.3258  0.6284
  145MOL    H2540633   0.867   7.172   7.216  1.2961  1.2059  0.0508
  145MOL    H2640634   1.082   7.101   7.523 -2.0098  0.5201  1.7529
  145MOL    H2740635   0.976   6.993   7.254 -3.3922 -0.3839  2.4268
  145MOL    H2840636   0.950   7.292   7.627  1.2076  2.1680 -0.7465
  145MOL    H2940637   0.778   7.464   7.601  0.5209 -0.2443 -0.4787
  145MOL    C3040638   1.116   6.888   7.366  0.3670  0.8156  0.4637
  145MOL    C3140639   1.162   6.814   7.258 -1.1665 -0.0373 -0.1440
  145MOL    C3240640   1.240   6.695   7.271 -0.5670  0.1741  0.2555
  145MOL    C3340641   1.287   6.658   7.396 -0.4059  0.6471 -0.2992
  145MOL    C3440642   1.375   6.541   7.403  0.0455 -0.2075  0.1547
  145MOL    C3540643   1.416   6.481   7.516  0.3038  0.2817  0.1945
  145MOL    C3640644   1.254   6.740   7.508 -0.8574  0.3371 -0.4613
  145MOL    C3740645   1.167   6.853   7.490 -0.2113  0.3917 -0.5149
  145MOL    H3840646   1.130   6.837   7.158  0.0243  1.1157 -0.2749
  145MOL    H3940647   1.269   6.641   7.183  5.2009  0.0767  2.0069
  145MOL    H4040648   1.409   6.509   7.306 -1.2354 -0.0545 -0.3606
  145MOL    H4140649   1.379   6.517   7.611  0.1577  0.8876 -0.0885
  145MOL    H4240650   1.300   6.727   7.604  2.3357  0.2730 -1.9484
  145MOL    H4340651   1.156   6.918   7.575 -1.3060  1.4204 -1.4329
  145MOL    C4440652   1.502   6.360   7.519 -0.1992  0.2501 -0.3617
  145MOL    C4540653   1.556   6.299   7.403 -0.4680  0.1040 -0.5618
  145MOL    C4640654   1.636   6.188   7.412 -0.4818 -0.0397  0.5555
  145MOL    C4740655   1.658   6.128   7.539 -0.2875  0.1331 -0.0125
  145MOL    C4840656   1.733   6.000   7.563 -0.0612 -0.0953  0.2322
  145MOL    C4940657   1.822   5.947   7.473 -0.5993  1.3256 -0.0325
  145MOL    C5040658   1.608   6.190   7.656  0.1130  0.1208  0.2285
  145MOL    C5140659   1.532   6.308   7.644 -0.8637 -0.0937  0.7562
  145MOL    H5240660   1.542   6.338   7.303  2.8533  1.5649 -0.5464
  145MOL    H5340661   1.668   6.151   7.316 -0.7962 -1.3135  0.9337
  145MOL    H5440662   1.712   5.961   7.661 -1.1569  3.4347  1.4670
  145MOL    H5540663   1.828   6.003   7.381  0.7185  3.5081  1.3188
  145MOL    H5640664   1.627   6.142   7.751  0.3839  0.4572  0.3423
  145MOL    H5740665   1.495   6.353   7.734 -0.3222  3.6757 -0.8026
  145MOL    C5840666   1.891   5.822   7.489  0.0800  0.6155  0.3118
  145MOL    C5940667   2.016   5.785   7.414 -0.2067  0.4291  0.1413
  145MOL    C6040668   2.079   5.656   7.435  0.7273 -0.2726  0.3712
  145MOL    C6140669   2.033   5.566   7.538  0.1390 -0.9393 -0.1617
  145MOL    C6240670   2.103   5.446   7.550 -0.5510  0.5768 -0.0558
  145MOL    C6340671   2.045   5.331   7.590  0.8359  0.2089 -0.9942
  145MOL    C6440672   1.911   5.599   7.606 -0.4602  0.3476 -0.2383
  145MOL    C6540673   1.840   5.719   7.577 -0.2358 -0.2185 -0.1342
  145MOL    H6640674   2.057   5.851   7.339 -0.4156  0.3027 -0.0815
  145MOL    H6740675   2.160   5.637   7.367 -0.0739 -0.7401 -0.4694
  145MOL    H6840676   2.206   5.444   7.517 -0.7354 -1.4857 -0.5469
  145MOL    H6940677   1.943   5.330   7.626  1.0438  0.7476 -0.3585
  145MOL    H7040678   1.860   5.536   7.678  0.3285 -0.9582 -0.8019
  145MOL    H7140679   1.748   5.735   7.632  0.3690 -1.4481  1.2799
  145MOL    C7240680   2.112   5.198   7.584  0.4272 -0.1029 -0.9192
  145MOL    C7340681   2.210   5.159   7.479 -0.3670  0.0359  0.0651
  145MOL    C7440682   2.276   5.034   7.491 -0.7001  1.3109 -0.2538
  145MOL    C7540683   2.255   4.941   7.596 -0.3057 -0.4354  0.5374
  145MOL    C7640684   2.339   4.817   7.608  0.2764  0.2090 -0.6721
  145MOL    C7740685   2.333   4.726   7.709  1.1367 -0.3476 -0.4300
  145MOL    C7840686   2.157   4.978   7.690 -0.4067 -0.4290  0.2498
  145MOL    C7940687   2.086   5.104   7.688 -0.1544 -0.0878 -0.4471
  145MOL    H8040688   2.212   5.222   7.391  0.4028 -1.7448 -1.2255
  145MOL    H8140689   2.347   5.022   7.411  0.4404 -3.8537  1.2998
  145MOL    H8240690   2.413   4.813   7.530 -0.1385  2.2081 -1.1927
  145MOL    H8340691   2.264   4.730   7.792 -0.1329  0.1318 -1.4837
  145MOL    H8440692   2.123   4.910   7.766 -2.0342 -1.6682 -1.5176
  145MOL    H8540693   2.023   5.133   7.771  0.0334  0.5550 -0.5268
  145MOL    C8640694   2.412   4.603   7.711 -0.3023  0.0496  0.0612
  145MOL    C8740695   2.450   4.540   7.592 -0.3524  0.7565 -0.5037
  145MOL    C8840696   2.535   4.425   7.599 -0.1246  0.1819  0.4716
  145MOL    C8940697   2.580   4.373   7.721  0.8307 -0.1614  0.5032
  145MOL    C9040698   2.673   4.259   7.718 -0.0124 -0.5569  0.5615
  145MOL    C9140699   2.742   4.208   7.818 -0.0876 -0.4763  0.1174
  145MOL    C9240700   2.530   4.429   7.839  0.2224  0.0170  0.2761
  145MOL    C9340701   2.451   4.546   7.832 -0.2181  0.5784  0.3418
  145MOL    H9440702   2.425   4.574   7.493  0.4347  1.2088 -0.5465
  145MOL    H9540703   2.582   4.387   7.510  1.2425  2.6680  0.0757
  145MOL    H9640704   2.689   4.215   7.621  0.5931 -1.7665  1.1909
  145MOL    H9740705   2.729   4.253   7.916  2.3219 -0.4281  0.4460
  145MOL    H9840706   2.562   4.390   7.934 -0.3862  0.1781  0.5506
  145MOL    H9940707   2.437   4.595   7.928  0.7964  2.0251 -0.2302
  145MOL   C10040708   2.837   4.101   7.802  0.0247  0.5090 -0.9866
  145MOL   C10140709   2.833   4.002   7.708  0.9912 -0.1349  0.8211
  145MOL   C10240710   2.942   3.921   7.676  0.6288  0.2951  0.4732
  145MOL   C10340711   3.058   3.931   7.753 -0.7633 -0.2474 -0.0813
  145MOL   C10440712   3.182   3.872   7.705  0.5541 -0.0416  0.2397
  145MOL   C10540713   3.201   3.820   7.583  0.3579 -0.1771  0.3858
  145MOL   C10640714   3.066   4.021   7.865  0.3567  0.0933 -0.3983
  145MOL   C10740715   2.948   4.103   7.891 -0.2699 -0.1112 -0.4681
  145MOL   H10840716   2.746   4.013   7.644  0.6169  1.4584  1.5733
  145MOL   H10940717   2.932   3.858   7.588  0.0988 -0.6412  1.1992
  145MOL   H11040718   3.271   3.875   7.766  1.8487 -0.9266 -1.5603
  145MOL   H11140719   3.116   3.816   7.516 -0.4205  0.6698  1.2921
  145MOL   H11240720   3.157   4.024   7.923  0.3649 -0.5929 -0.3627
  145MOL   H11340721   2.960   4.171   7.974 -1.5312 -0.2285 -0.1724
  145MOL   C11440722   3.329   3.788   7.525 -0.3285  0.1339 -0.0141
  145MOL   C11540723   3.447   3.848   7.574 -0.0130 -0.6353  0.5495
  145MOL   C11640724   3.573   3.836   7.514 -0.6633  0.5687 -0.2688
  145MOL   C11740725   3.571   3.783   7.380  0.1105 -0.7162  0.2659
  145MOL   C11840726   3.685   3.815   7.287  0.0695 -0.4144  0.3919
  145MOL   C11940727   3.797   3.877   7.319  0.7314 -0.1410 -0.0345
  145MOL   C12040728   3.460   3.715   7.330  0.7175 -0.0031 -0.9154
  145MOL   C12140729   3.341   3.714   7.405 -0.0498  0.5636  0.2611
  145MOL   H12240730   3.448   3.906   7.665 -1.0210 -0.6561  0.5759
  145MOL   H12340731   3.662   3.874   7.564 -0.3004 -0.8944  0.2338
  145MOL   H12440732   3.656   3.792   7.185  0.9957 -1.4223  0.3502
  145MOL   H12540733   3.828   3.869   7.422  1.9729  3.0634 -0.1252
  145MOL   H12640734   3.463   3.674   7.230 -0.7407 -2.5392  0.0309
  145MOL   H12740735   3.253   3.666   7.365  0.9866 -0.3191 -0.9852
  145MOL   C12840736   3.890   3.958   7.240 -0.2129  0.0994  0.1518
  145MOL   C12940737   3.871   3.968   7.104 -0.6894 -0.2356  0.3562
  145MOL   C13040738   3.962   4.045   7.025 -0.1525 -0.2748  0.2888
  145MOL   C13140739   4.073   4.119   7.085  0.2929 -0.1638  0.3069
  145MOL   C13240740   4.151   4.219   7.005  0.7266 -0.0792  0.2435
  145MOL   C13340741   4.094   4.322   6.945 -0.6389  1.1279 -0.0905
  145MOL   C13440742   4.092   4.101   7.226 -0.6469 -0.8983 -0.0291
  145MOL   C13540743   4.000   4.023   7.303  0.4352 -0.1050  0.0294
  145MOL   H13640744   3.789   3.920   7.053 -0.5646  1.2967 -1.3802
  145MOL   H13740745   3.934   4.059   6.922 -1.8960 -2.1453  0.4667
  145MOL   H13840746   4.257   4.199   6.996  0.7481 -0.1370  0.6211
  145MOL   H13940747   3.990   4.327   6.971 -0.2869 -1.3253  1.9575
  145MOL   H14040748   4.169   4.149   7.284  0.9035 -2.5762 -0.6185
  145MOL   H14140749   4.009   4.016   7.411  0.5830  0.1010  0.0319
  145MOL   C14240750   4.144   4.425   6.861 -0.1668  0.0511 -0.6561
  145MOL   C14340751   4.277   4.452   6.839 -0.1148  0.2612 -0.0183
  145MOL   C14440752   4.326   4.557   6.753  0.0557  0.0143 -0.3101
  145MOL   C14540753   4.230   4.629   6.679  0.4993  0.3372 -0.0583
  145MOL   C14640754   4.271   4.741   6.585  0.3478 -0.1400  0.7534
  145MOL   C14740755   4.181   4.830   6.537 -0.5226  0.0584 -0.1556
  145MOL   C14840756   4.092   4.588   6.694  0.1171 -0.5902  0.1293
  145MOL   C14940757   4.045   4.495   6.789 -0.4857  0.0670 -0.0527
  145MOL   H15040758   4.354   4.392   6.886 -0.1740 -0.7446 -1.2182
  145MOL   H15140759   4.433   4.571   6.755 -0.0653  0.9784 -0.2646
  145MOL   H15240760   4.377   4.740   6.566  0.4742 -0.6999  1.4589
  145MOL   H15340761   4.078   4.831   6.569 -0.1934 -1.0892  1.0176
  145MOL   H15440762   4.015   4.629   6.630  1.1177  0.9293 -0.1443
  145MOL   H15540763   3.945   4.455   6.796 -0.5204  0.1834  0.1062
  145MOL   C15640764   4.203   4.940   6.443 -0.5058  0.2594  0.9159
  145MOL   C15740765   4.102   4.973   6.344 -0.7380  0.0121 -0.2528
  145MOL   C15840766   4.116   5.079   6.257  0.3896  0.5789  0.0038
  145MOL   C15940767   4.236   5.152   6.250 -0.5783 -0.2345 -0.4807
  145MOL   C16040768   4.226   5.274   6.167  0.1578 -0.1800  0.1717
  145MOL   C16140769   4.116   5.324   6.104 -0.4615 -0.0278  0.0240
  145MOL   C16240770   4.344   5.120   6.335 -0.2198 -0.0599 -0.8130
  145MOL   C16340771   4.329   5.008   6.425  0.2699 -0.2705  0.2336
  145MOL   H16440772   4.005   4.927   6.340 -0.6344 -0.1854 -0.5207
  145MOL   H16540773   4.023   5.091   6.203  0.7959  0.0757 -0.8142
  145MOL   H16640774   4.316   5.334   6.161 -0.2139  0.2105 -1.7858
  145MOL   H16740775   4.018   5.279   6.111 -0.5317 -0.3491 -2.5567
  145MOL   H16840776   4.433   5.181   6.331 -1.2159  1.3896 -1.4026
  145MOL   H16940777   4.409   4.984   6.493  0.9429  0.0674 -0.4391
  145MOL   C17040778   4.128   5.442   6.022 -0.2216  0.0559  0.6192
  145MOL   C17140779   4.248   5.492   5.967  0.0940 -0.5021 -0.5859
  145MOL   C17240780   4.246   5.614   5.899  0.1855  0.2291  0.4819
  145MOL   C17340781   4.134   5.694   5.892  0.5037 -0.1821 -0.0170
  145MOL   C17440782   4.134   5.835   5.844  0.5457  0.3927 -0.2508
  145MOL   C17540783   4.038   5.933   5.859  0.5005  0.4239 -0.4308
  145MOL   C17640784   4.017   5.648   5.955  0.4824 -0.7228 -0.2203
  145MOL   C17740785   4.011   5.519   6.018  0.3394  0.6257 -0.3162
  145MOL   H17840786   4.346   5.447   5.969  0.7757  0.9150 -1.3276
  145MOL   H17940787   4.342   5.654   5.870 -0.0400  0.9303  0.7057
  145MOL   H18040788   4.219   5.867   5.785 -0.3308  0.2403 -1.6237
  145MOL   H18140789   3.954   5.911   5.923  1.7169 -0.9288  0.7258
  145MOL   H18240790   3.923   5.700   5.958  0.5116 -0.7551  1.5091
  145MOL   H18340791   3.918   5.482   6.058  0.1006  1.4775 -0.0866
  145MOL   C18440792   4.029   6.061   5.794  0.6548  0.8000  1.1747
  145MOL   C18540793   3.915   6.143   5.820 -0.2355  0.0544  0.1589
  145MOL   C18640794   3.903   6.270   5.765 -0.2147  0.3770  0.1926
  145MOL   C18740795   4.014   6.318   5.680  0.2825  0.3914 -0.6927
  145MOL   C18840796   4.014   6.447   5.604 -0.6338 -0.7548 -0.2170
  145MOL   C18940797   3.935   6.553   5.636  1.0241  0.3752 -0.2499
  145MOL   C19040798   4.123   6.231   5.653 -0.3476 -0.1291  0.5138
  145MOL   C19140799   4.129   6.106   5.711  0.8459  0.2274 -0.6592
  145MOL   H19240800   3.836   6.104   5.883 -0.8711 -1.6830 -1.6153
  145MOL   H19340801   3.814   6.329   5.781 -0.2533 -0.2045  2.2245
  145MOL   H19440802   4.088   6.457   5.526  1.3775  1.1213  1.8661
  145MOL   H19540803   3.871   6.545   5.723  0.2544  0.7009 -0.7810
  145MOL   H19640804   4.191   6.251   5.571 -2.5062 -0.0114 -1.2708
  145MOL   H19740805   4.220   6.051   5.691  0.6166 -0.3416 -0.1462
  145MOL   C19840806   3.931   6.679   5.563  0.7875  0.2099 -0.0446
  145MOL   C19940807   3.995   6.704   5.437 -0.0088 -0.3438  1.0853
  145MOL   C20040808   3.993   6.829   5.372  0.3524  1.1216  0.2974
  145MOL   C20140809   3.922   6.936   5.436  0.3476 -0.4014  0.7536
  145MOL   C20240810   3.905   7.060   5.363  0.0561 -0.4335 -0.3194
  145MOL   C20340811   3.906   7.085   5.232  0.1203  0.8166  0.2286
  145MOL   C20440812   3.874   6.922   5.570  0.4084  0.5429 -0.6179
  145MOL   C20540813   3.872   6.793   5.630  0.0056  0.4959  0.3403
  145MOL   H20640814   4.055   6.625   5.394 -1.7991 -1.8153  1.2083
  145MOL   H20740815   4.044   6.844   5.278  1.6455  0.2941  0.8587
  145MOL   H20840816   3.891   7.144   5.429  1.1924 -0.4062 -0.1131
  145MOL   H20940817   3.900   7.008   5.157 -0.1065  2.8607 -1.8964
  145MOL   H21040818   3.817   6.996   5.624  0.0110 -0.2954  0.1265
  145MOL   H21140819   3.826   6.779   5.726  1.2263 -3.2615  0.4646
  145MOL   C21240820   3.902   7.214   5.165 -0.0049  0.2902 -0.8300
  145MOL   C21340821   3.964   7.325   5.232  0.1095 -0.5486  0.8045
  145MOL   C21440822   3.959   7.459   5.182 -0.4011 -0.3633  0.0510
  145MOL   C21540823   3.908   7.483   5.050  0.3937 -0.1646  0.5007
  145MOL   C21640824   3.888   7.619   4.994 -0.4720  0.3492 -0.2728
  145MOL   C21740825   3.900   7.728   5.067  0.4920 -0.4186 -0.5738
  145MOL   C21840826   3.854   7.369   4.979  0.1330 -0.1860 -0.1865
  145MOL   C21940827   3.848   7.240   5.037 -0.2347 -0.3634 -0.3689
  145MOL   H22040828   4.009   7.324   5.330 -0.3040 -1.1626  0.9869
  145MOL   H22140829   4.009   7.534   5.241 -0.5806 -0.4111  0.2661
  145MOL   H22240830   3.858   7.635   4.891 -0.0104  1.0259 -0.3078
  145MOL   H22340831   3.913   7.714   5.174 -3.5754 -2.2485 -0.2378
  145MOL   H22440832   3.791   7.388   4.893  0.2259  2.1628  0.2102
  145MOL   H22540833   3.798   7.160   4.984  1.0403 -2.5460  1.6012
  145MOL   C22640834   3.896   7.877   5.040 -0.5673 -0.1976  0.3276
  145MOL   C22740835   3.912   7.932   4.909 -0.4926 -0.0932  0.4722
  145MOL   C22840836   3.909   8.073   4.882  0.4688 -0.8185  0.0826
  145MOL   C22940837   3.897   0.022   4.988  0.5244  0.3008 -0.4552
  145MOL   C23040838   3.907   0.162   4.967  0.3086 -0.3700  0.1025
  145MOL   C23140839   3.968   0.250   5.045  0.1530 -0.5714 -0.1632
  145MOL   C23240840   3.886   8.109   5.120  0.0176  0.1998 -0.1266
  145MOL   C23340841   3.884   7.970   5.146 -0.3308  0.0780 -0.2139
  145MOL   H23440842   3.916   7.869   4.821 -3.0448 -1.3052  1.1842
  145MOL   H23540843   3.912   8.114   4.783 -4.3390  0.2957  0.3104
  145MOL   H23640844   3.852   0.200   4.883 -1.3503 -0.6091  1.0659
  145MOL   H23740845   4.016   0.199   5.127  0.0789  1.9725  1.4836
  145MOL   H23840846   3.867   0.032   5.202  0.6096  1.5377 -1.0741
  145MOL   H23940847   3.873   7.929   5.246 -1.7571 -0.1463 -0.4497
  145MOL   C24040848   3.972   0.397   5.046  0.1784 -0.0966 -0.1426
  145MOL   C24140849   3.925   0.482   4.946 -0.0199 -0.4911  0.3125
  145MOL   C24240850   3.980   0.610   4.938 -0.3763 -0.2266 -0.2556
  145MOL   C24340851   4.051   0.666   5.048 -0.6213 -0.1456  0.1398
  145MOL   C24440852   4.094   0.803   5.037 -0.0624  0.2320  0.1820
  145MOL   C24540853   4.211   0.859   5.081 -0.1642 -0.6743 -0.2347
  145MOL   C24640854   4.081   0.583   5.162 -0.2753 -0.3511  0.2920
  145MOL   C24740855   4.044   0.451   5.156  0.0877 -0.9354  0.3318
  145MOL   H24840856   3.877   0.443   4.858  0.7176  2.2765 -1.3895
  145MOL   H24940857   3.978   0.669   4.848  0.3138 -0.0623 -0.1687
  145MOL   H25040858   4.023   0.872   4.994 -1.2095 -1.3737 -0.5339
  145MOL   H25140859   4.281   0.798   5.136 -0.7929  0.1087  1.4590
  145MOL   H25240860   4.139   0.620   5.245 -2.2621  2.1526  0.6035
  145MOL   H25340861   4.055   0.391   5.245  4.1079 -2.4865 -1.0749
  145MOL   C25440862   4.230   1.007   5.079  0.9571  0.2424 -0.1518
  145MOL   C25540863   4.125   1.104   5.068  0.4160  0.0401 -0.4260
  145MOL   C25640864   4.148   1.242   5.046  0.2866  0.1301 -0.1787
  145MOL   C25740865   4.282   1.291   5.039  0.0023 -0.4588  0.0118
  145MOL   C25840866   4.317   1.435   5.021  0.2067  0.3429 -0.1910
  145MOL   C25940867   4.237   1.536   4.978 -0.1218  0.3024  0.1451
  145MOL   C26040868   4.391   1.200   5.055  0.1738  0.6384 -0.0069
  145MOL   C26140869   4.364   1.062   5.073  0.2003 -0.2308  0.4761
  145MOL   H26240870   4.025   1.069   5.089  0.5470 -1.1901 -1.7478
  145MOL   H26340871   4.064   1.309   5.041 -0.8148 -1.0888  1.5931
  145MOL   H26440872   4.417   1.463   5.051 -0.0411  0.0588  0.9189
  145MOL   H26540873   4.271   1.638   4.988  1.9440 -0.3667  0.0477
  145MOL   H26640874   4.491   1.237   5.041  1.1596 -1.8731  0.2043
  145MOL   H26740875   4.445   0.990   5.074  0.2596 -0.1755 -0.3095
  145MOL   C26840876   4.108   1.521   4.912  0.6624  0.3720  0.6542
  145MOL   C26940877   3.989   1.588   4.961  0.6493  0.2258 -0.2521
  145MOL   C27040878   3.863   1.555   4.910  0.4386  0.1320 -0.1320
  145MOL   C27140879   3.843   1.456   4.816  0.5256 -0.2276  0.4736
  145MOL   C27240880   3.712   1.422   4.767  0.3531  0.0045  0.2489
  145MOL   C27340881   3.674   1.367   4.652 -0.2207  0.7676  0.6668
  145MOL   C27440882   3.957   1.395   4.768  0.2590  0.3968  0.4662
  145MOL   C27540883   4.088   1.431   4.806 -0.3223 -0.2859  0.2677
  145MOL   H27640884   4.004   1.648   5.049 -0.4799 -0.6853  0.5871
  145MOL   H27740885   3.776   1.599   4.957  0.1172 -2.4611  1.8122
  145MOL   H27840886   3.631   1.464   4.824  1.4634  1.4845  0.7714
  145MOL   H27940887   3.743   1.323   4.582 -1.2242  0.6819 -0.2728
  145MOL   H28040888   3.938   1.325   4.687 -0.7535 -0.3132  1.3032
  145MOL   H28140889   4.177   1.377   4.779 -1.5300 -1.9899 -0.4257
  145MOL   H28240890   3.567   1.375   4.635  0.0518  3.2445 -0.1539
  146MOL     C140891   4.793   2.037   1.663  0.0241  0.2294  0.6571
  146MOL     C240892   4.774   2.134   1.766 -0.4726 -0.3902  0.4921
  146MOL     C340893   4.879   2.167   1.849 -0.5290  0.7687 -0.6151
  146MOL     C440894   4.994   2.086   1.857 -0.4000  0.0138 -0.4207
  146MOL     C540895   5.083   2.108   1.971 -0.1721  0.0899 -0.4586
  146MOL     C640896   5.177   2.023   2.014 -0.8905 -0.1292 -0.2262
  146MOL     C740897   4.998   1.972   1.773 -0.0880 -0.0166 -0.4316
  146MOL     C840898   4.902   1.952   1.673 -0.4966 -1.0877  0.1705
  146MOL     H940899   4.692   2.204   1.765  2.0292  2.6579 -1.1811
  146MOL    H1040900   4.869   2.252   1.916 -1.0579  0.2368 -0.0092
  146MOL    H1140901   5.076   2.203   2.022 -1.1575  0.2762 -0.9238
  146MOL    H1240902   5.195   1.925   1.971  0.3469 -1.1377  2.4473
  146MOL    H1340903   5.071   1.894   1.788  0.6647  1.0294  1.4696
  146MOL    H1440904   4.919   1.869   1.605 -1.3943 -1.0660 -0.0846
  146MOL    H1540905   4.723   2.020   1.582 -0.5478 -0.1033  1.2140
  146MOL    C1640906   5.272   2.052   2.124  1.3194  0.0300 -0.4984
  146MOL    C1740907   5.307   1.957   2.218 -0.5377 -0.4631  0.0301
  146MOL    C1840908   5.407   1.990   2.311  0.0002 -0.1042  0.1022
  146MOL    C1940909   5.475   2.114   2.300 -0.6140 -0.4383 -0.1734
  146MOL    C2040910   5.594   2.150   2.383 -0.3355 -0.2003  0.1059
  146MOL    C2140911   5.663   2.066   2.458 -0.5641  0.6325 -0.1947
  146MOL    C2240912   5.427   2.214   2.215 -0.0199 -0.0105 -0.3819
  146MOL    C2340913   5.322   2.185   2.131 -0.2105 -0.0782 -0.7684
  146MOL    H2440914   5.257   1.861   2.221 -1.0747 -0.1673  0.3934
  146MOL    H2540915   5.442   1.915   2.380 -0.3996 -0.5460 -0.1759
  146MOL    H2640916   5.635   2.250   2.382  2.5575 -1.3210 -0.1067
  146MOL    H2740917   5.631   1.963   2.463 -0.1816  0.4403 -1.5837
  146MOL    H2840918   5.471   2.313   2.212  1.6993 -0.7381 -0.2520
  146MOL    H2940919   5.280   2.267   2.074  1.8931  1.1238 -0.6368
  146MOL    C3040920   5.787   2.092   2.538 -0.5652  0.4424  0.2097
  146MOL    C3140921   5.841   1.983   2.608 -0.4842 -0.0184  0.4636
  146MOL    C3240922   5.959   1.999   2.690 -0.0964  0.0018  0.2355
  146MOL    C3340923   6.019   2.130   2.691 -0.0712  1.0108  0.5322
  146MOL    C3440924   6.147   2.147   2.760  0.0844  0.6942 -0.0494
  146MOL    C3540925   6.233   2.059   2.818 -0.2882 -0.0543 -0.5621
  146MOL    C3640926   5.968   2.237   2.615  0.6160 -0.2121  0.4297
  146MOL    C3740927   5.839   2.224   2.553 -0.0618 -0.3323  0.1258
  146MOL    H3840928   5.791   1.887   2.601 -0.0203 -0.2999  0.9179
  146MOL    H3940929   6.003   1.920   2.751 -1.4332  0.1041  1.3654
  146MOL    H4040930   6.181   2.249   2.767 -3.1559  1.6935  2.3565
  146MOL    H4140931   6.216   1.952   2.815 -1.0321  0.0443  0.2186
  146MOL    H4240932   6.008   2.337   2.617  2.0557 -0.7828  0.8601
  146MOL    H4340933   5.787   2.301   2.498 -0.4421  0.2273  1.2484
  146MOL    C4440934   6.342   2.097   2.901 -0.4170 -0.2954  1.0003
  146MOL    C4540935   6.451   2.012   2.899 -0.6916 -0.3287 -0.2208
  146MOL    C4640936   6.575   2.048   2.955  0.4301  0.2650 -0.2306
  146MOL    C4740937   6.579   2.157   3.045  0.9908  0.1033 -0.4956
  146MOL    C4840938   6.697   2.184   3.135  0.3742  0.8969 -0.3306
  146MOL    C4940939   6.792   2.093   3.156 -1.2532 -0.1774  0.3644
  146MOL    C5040940   6.462   2.240   3.057  0.0693  0.0117  0.8860
  146MOL    C5140941   6.349   2.217   2.977  0.4483 -0.5842  0.2269
  146MOL    H5240942   6.449   1.924   2.836  1.0533  0.3499 -1.2474
  146MOL    H5340943   6.655   1.976   2.940  3.2446  2.8225  1.8737
  146MOL    H5440944   6.715   2.286   3.167  1.1404  0.7549 -0.2883
  146MOL    H5540945   6.775   1.994   3.116 -1.4533 -0.0294  0.0866
  146MOL    H5640946   6.479   2.323   3.124 -0.3311  0.1889  0.7685
  146MOL    H5740947   6.276   2.295   2.993  0.6233 -0.6705  1.4878
  146MOL    C5840948   6.912   2.111   3.243  0.5869 -0.5336  0.3299
  146MOL    C5940949   7.003   2.003   3.262 -1.1701  0.6830 -0.1806
  146MOL    C6040950   7.114   2.016   3.345  0.6352  0.0054  0.3469
  146MOL    C6140951   7.145   2.142   3.401  0.0064  0.3549  0.4582
  146MOL    C6240952   7.258   2.153   3.491 -0.2890  0.0302 -0.0673
  146MOL    C6340953   7.370   2.084   3.504 -0.0720  0.1186  0.2170
  146MOL    C6440954   7.070   2.254   3.365  0.6109  1.2953 -0.8072
  146MOL    C6540955   6.952   2.236   3.295  0.5895 -0.0354  0.3270
  146MOL    H6640956   6.989   1.911   3.207  1.8519 -0.0511  0.1755
  146MOL    H6740957   7.160   1.924   3.379  1.0568  0.0935  0.0183
  146MOL    H6840958   7.238   2.230   3.564 -0.0336 -0.4378  0.5003
  146MOL    H6940959   7.381   2.002   3.435  0.0394 -0.4183  0.8645
  146MOL    H7040960   7.089   2.355   3.398  0.4009  0.9468  0.4166
  146MOL    H7140961   6.893   2.317   3.254  0.0721 -0.9287 -0.7257
  146MOL    C7240962   7.478   2.112   3.601  0.1052 -0.3449  0.0849
  146MOL    C7340963   7.468   2.216   3.699 -0.4239  0.3417  0.5405
  146MOL    C7440964   7.581   2.243   3.775 -0.8603 -0.4612  0.6024
  146MOL    C7540965   7.704   2.181   3.762 -0.5946 -0.3848 -0.9353
  146MOL    C7640966   7.818   2.196   3.859 -0.0303  0.2266 -0.0815
  146MOL    C7740967   7.807   2.245   3.987  0.2539  0.8457  0.1199
  146MOL    C7840968   7.715   2.087   3.664 -0.1780  0.2603  0.0490
  146MOL    C7940969   7.602   2.051   3.584 -0.6184 -0.2502  0.3071
  146MOL    H8040970   7.385   2.283   3.714 -1.4687 -0.3981 -1.7451
  146MOL    H8140971   7.579   2.319   3.851 -0.6047 -0.4560  0.6038
  146MOL    H8240972   7.916   2.171   3.822 -0.1682  0.1856 -0.4210
  146MOL    H8340973   7.710   2.269   4.029 -0.3365 -1.4278  0.1099
  146MOL    H8440974   7.813   2.044   3.652 -0.5555 -0.4749 -0.4090
  146MOL    H8540975   7.610   1.991   3.495  1.4795 -0.4741  0.6131
  146MOL    C8640976   7.927   2.280   4.062  0.2538 -0.0461 -0.2585
  146MOL    C8740977   8.058   2.252   4.024 -0.1702 -0.3380 -0.2113
  146MOL    C8840978   0.014   2.285   4.106 -0.1706  0.0261 -1.2314
  146MOL    C8940979   8.136   2.354   4.228  0.1905 -0.2439  0.2535
  146MOL    C9040980   0.099   2.397   4.316  0.5163  0.1136 -0.1695
  146MOL    C9140981   0.228   2.390   4.282 -0.1564  0.3037 -0.1531
  146MOL    C9240982   8.002   2.381   4.266 -0.1112 -0.4543  0.0548
  146MOL    C9340983   7.893   2.337   4.187 -0.2223 -0.2577 -0.1859
  146MOL    H9440984   8.074   2.194   3.934  0.2321 -1.1400  0.3768
  146MOL    H9540985   0.110   2.250   4.072  0.3663 -0.6531  0.8825
  146MOL    H9640986   0.075   2.447   4.408 -0.9134 -1.1726  0.1668
  146MOL    H9740987   0.261   2.339   4.192 -0.0434  1.2233 -0.6394
  146MOL    H9840988   7.971   2.430   4.357  0.7317 -1.7478  1.0647
  146MOL    H9940989   7.792   2.356   4.219 -0.6455 -3.7647  0.7517
  146MOL   C10040990   0.334   2.454   4.361 -0.7439  0.1251 -0.3841
  146MOL   C10140991   0.312   2.515   4.489  0.7718  0.2260  0.4366
  146MOL   C10240992   0.423   2.559   4.561  0.6867  0.5651 -0.8292
  146MOL   C10340993   0.553   2.563   4.507  0.2210 -0.0236 -0.2389
  146MOL   C10440994   0.664   2.624   4.579  0.2023 -0.0619 -0.2263
  146MOL   C10540995   0.791   2.589   4.557 -0.9107 -1.0683 -0.1236
  146MOL   C10640996   0.565   2.521   4.372  0.1499  0.5586 -0.1696
  146MOL   C10740997   0.461   2.461   4.306  0.2264  0.3347  0.0514
  146MOL   H10840998   0.220   2.511   4.546  1.2655 -0.7954  1.1751
  146MOL   H10940999   0.410   2.585   4.665 -1.3125 -2.3061 -0.3015
  146MOL   H11041000   0.646   2.700   4.654 -1.0976  0.7014 -1.2941
  146MOL   H11141001   0.815   2.507   4.492  0.5253  0.0769 -1.0714
  146MOL   H11241002   0.664   2.526   4.330  0.4974 -3.4837 -0.0185
  146MOL   H11341003   0.481   2.412   4.212 -1.1765 -0.5919  0.2162
  146MOL   C11441004   0.898   2.679   4.612 -0.1175  0.2817  0.0693
  146MOL   C11541005   0.881   2.771   4.711 -0.3099  0.2951  0.0524
  146MOL   C11641006   0.987   2.854   4.755  0.6026 -0.4103  0.2614
  146MOL   C11741007   1.116   2.838   4.712 -0.6734 -0.0787  1.2365
  146MOL   C11841008   1.222   2.935   4.745 -0.2631  0.5993  0.3502
  146MOL   C11941009   1.351   2.935   4.695  0.0141  0.0732 -0.7073
  146MOL   C12041010   1.135   2.747   4.604 -0.3729  0.5007  0.1096
  146MOL   C12141011   1.032   2.672   4.554 -0.2489 -0.2178  0.3285
  146MOL   H12241012   0.783   2.788   4.752 -1.6444  0.4122 -3.0322
  146MOL   H12341013   0.966   2.934   4.824  0.8790 -0.1448  0.0405
  146MOL   H12441014   1.189   3.006   4.819 -2.3659  0.3568 -0.3235
  146MOL   H12541015   1.382   2.852   4.633  0.3430 -0.8787  0.7280
  146MOL   H12641016   1.232   2.728   4.559  1.4038  2.6076  2.9388
  146MOL   H12741017   1.054   2.595   4.481 -1.1848  0.4972 -0.7284
  146MOL   C12841018   1.455   3.041   4.715  0.0685 -0.2309 -0.2560
  146MOL   C12941019   1.420   3.170   4.760 -0.4021 -0.2337  0.5974
  146MOL   C13041020   1.521   3.269   4.770  0.6446  0.5175 -0.5495
  146MOL   C13141021   1.658   3.236   4.749  0.0514  0.0817  0.4697
  146MOL   C13241022   1.770   3.330   4.748  0.0936 -0.6965  0.1381
  146MOL   C13341023   1.766   3.467   4.741  0.3004  0.0586 -0.2197
  146MOL   C13441024   1.689   3.104   4.709 -0.1024 -0.0442  0.5246
  146MOL   C13541025   1.588   3.012   4.687 -0.5477 -0.4793  0.1542
  146MOL   H13641026   1.322   3.200   4.794  0.0837  0.7745  1.1299
  146MOL   H13741027   1.494   3.370   4.794 -0.6979 -0.6953  3.5172
  146MOL   H13841028   1.871   3.292   4.756 -0.1293 -1.1402  0.8443
  146MOL   H13941029   1.670   3.516   4.733  0.1758 -0.3479 -1.3567
  146MOL   H14041030   1.792   3.081   4.685 -0.3226 -0.0221 -0.4912
  146MOL   H14141031   1.611   2.913   4.652 -0.2894 -0.8049  1.2129
  146MOL   C14241032   1.885   3.546   4.745 -0.0251  0.2938 -0.0591
  146MOL   C14341033   2.015   3.496   4.736 -0.1241 -0.6306 -0.0578
  146MOL   C14441034   2.117   3.592   4.744  0.6379 -0.2936 -0.2016
  146MOL   C14541035   2.093   3.732   4.755 -0.4713  0.2233 -0.9771
  146MOL   C14641036   2.213   3.822   4.763  0.0973 -0.1426 -0.8495
  146MOL   C14741037   2.209   3.959   4.746 -0.4760 -0.1990  0.5883
  146MOL   C14841038   1.962   3.784   4.760  0.6710  0.4506  0.6339
  146MOL   C14941039   1.856   3.687   4.755  1.0210  0.1386  0.1691
  146MOL   H15041040   2.031   3.393   4.710  0.9700 -0.3575 -0.5508
  146MOL   H15141041   2.218   3.556   4.735  0.8474  0.7906 -2.6368
  146MOL   H15241042   2.296   3.763   4.798  1.4243  0.4689 -2.8824
  146MOL   H15341043   2.117   3.993   4.700 -0.0322  2.5381  1.6211
  146MOL   H15441044   1.940   3.888   4.778 -1.6287  0.5691 -2.3971
  146MOL   H15541045   1.755   3.725   4.758  0.5144 -0.8965 -2.1704
  146MOL   C15641046   2.311   4.055   4.785 -0.0457  0.3134  0.5969
  146MOL   C15741047   2.272   4.188   4.809  0.2911 -0.0126  0.2715
  146MOL   C15841048   2.352   4.270   4.889 -0.7346 -0.4285 -0.4265
  146MOL   C15941049   2.479   4.223   4.936  0.3242 -0.1424  0.4501
  146MOL   C16041050   2.564   4.291   5.035 -0.2746  0.3423 -0.6879
  146MOL   C16141051   2.514   4.373   5.128  0.0545 -0.4793 -0.0380
  146MOL   C16241052   2.519   4.093   4.902 -0.4238 -0.4083 -0.3834
  146MOL   C16341053   2.437   4.012   4.827  0.4770  0.5371 -0.6516
  146MOL   H16441054   2.168   4.213   4.797  0.0792 -0.8077  0.4328
  146MOL   H16541055   2.321   4.368   4.920  2.3781  1.1088 -1.8625
  146MOL   H16641056   2.670   4.271   5.029 -0.5543 -1.5116  0.1183
  146MOL   H16741057   2.407   4.389   5.130 -0.2850 -2.5963 -0.5602
  146MOL   H16841058   2.612   4.052   4.939 -0.6948 -0.7975 -0.1397
  146MOL   H16941059   2.467   3.911   4.805 -0.6756 -0.0479  0.4293
  146MOL   C17041060   2.573   4.432   5.245 -0.3152 -0.1391 -0.2315
  146MOL   C17141061   2.685   4.372   5.307 -0.4113  0.1798 -0.3452
  146MOL   C17241062   2.724   4.409   5.437 -0.0695  0.4923  0.0926
  146MOL   C17341063   2.650   4.502   5.511  0.0357  0.8437  0.0491
  146MOL   C17441064   2.673   4.520   5.657 -0.0637  1.0713  0.4318
  146MOL   C17541065   2.724   4.421   5.735  0.5809 -0.2280 -0.1612
  146MOL   C17641066   2.539   4.562   5.453 -0.5893 -0.0250 -0.4570
  146MOL   C17741067   2.499   4.532   5.322 -0.5830 -0.2700 -0.3144
  146MOL   H17841068   2.736   4.290   5.258 -2.4279 -0.3862 -1.5592
  146MOL   H17941069   2.813   4.364   5.478 -0.5065  0.2201  0.7396
  146MOL   H18041070   2.655   4.617   5.701 -1.6232  0.6026  0.8537
  146MOL   H18141071   2.738   4.321   5.697  0.3050 -1.1793  2.1147
  146MOL   H18241072   2.487   4.638   5.508  2.4411  1.2941  0.6728
  146MOL   H18341073   2.408   4.570   5.278 -0.1814  0.0931 -0.8527
  146MOL   C18441074   2.741   4.427   5.883  0.0010 -0.7594 -0.2741
  146MOL   C18541075   2.773   4.318   5.957  0.5905 -1.1333 -0.1690
  146MOL   C18641076   2.751   4.315   6.096  0.2479  0.6288  0.5591
  146MOL   C18741077   2.704   4.430   6.166  0.1017 -0.3542 -0.3842
  146MOL   C18841078   2.650   4.420   6.307 -0.1843 -0.7739  0.2953
  146MOL   C18941079   2.594   4.310   6.360 -0.4213 -0.1396 -0.1093
  146MOL   C19041080   2.688   4.549   6.091  0.2858 -0.5054 -0.1065
  146MOL   C19141081   2.706   4.548   5.951 -0.1146 -0.6188  0.1651
  146MOL   H19241082   2.800   4.228   5.904  1.3469 -0.6755 -0.5783
  146MOL   H19341083   2.781   4.230   6.156 -1.1724 -2.0917 -2.4223
  146MOL   H19441084   2.662   4.509   6.366 -1.9299  0.3147 -0.9659
  146MOL   H19541085   2.598   4.221   6.299  0.5942  0.5298 -1.0387
  146MOL   H19641086   2.648   4.640   6.134  0.2905 -0.8726  0.6858
  146MOL   H19741087   2.677   4.636   5.896  2.7851  0.3638  0.1550
  146MOL   C19841088   2.534   4.300   6.491 -0.2200  0.9087 -0.4724
  146MOL   C19941089   2.462   4.178   6.505 -0.6659 -0.0220 -1.0189
  146MOL   C20041090   2.385   4.150   6.622 -0.0340 -1.0110 -0.1105
  146MOL   C20141091   2.367   4.252   6.720  0.1426  0.4664  0.0793
  146MOL   C20241092   2.304   4.222   6.853  0.2461 -0.4581  0.1642
  146MOL   C20341093   2.266   4.103   6.904  0.5983 -0.8543 -0.0595
  146MOL   C20441094   2.440   4.378   6.698  0.6535  0.0817  0.2075
  146MOL   C20541095   2.531   4.393   6.590  0.4234 -0.1284  0.0487
  146MOL   H20641096   2.469   4.101   6.430 -0.8414 -1.5368  0.4983
  146MOL   H20741097   2.342   4.051   6.621 -0.7069 -0.7264  0.1894
  146MOL   H20841098   2.283   4.308   6.915 -2.5358 -0.5193 -0.6243
  146MOL   H20941099   2.283   4.014   6.846  3.4973  0.4762 -1.3138
  146MOL   H21041100   2.435   4.452   6.777 -0.6067 -0.1371  0.3404
  146MOL   H21141101   2.577   4.490   6.578 -0.6315  0.2955 -0.6158
  146MOL   C21241102   2.198   4.094   7.033  0.3938  0.8948  0.3894
  146MOL   C21341103   2.131   4.204   7.088  0.3513  0.3592  0.7160
  146MOL   C21441104   2.081   4.197   7.220  0.7090  0.8500  0.3366
  146MOL   C21541105   2.097   4.078   7.295 -0.1986 -0.8155 -0.2084
  146MOL   C21641106   2.043   4.080   7.437 -0.9077  0.2026  0.3533
  146MOL   C21741107   2.067   3.987   7.529 -0.0995  0.3045  0.2672
  146MOL   C21841108   2.167   3.967   7.240 -0.3786  0.2228 -0.0923
  146MOL   C21941109   2.213   3.972   7.106  0.0334  0.0827  0.0554
  146MOL   H22041110   2.114   4.298   7.037 -3.8360 -0.4928  0.3134
  146MOL   H22141111   2.040   4.284   7.270 -0.1531 -0.7354  2.4379
  146MOL   H22241112   1.978   4.161   7.466 -1.6354  0.4908 -1.9118
  146MOL   H22341113   2.128   3.901   7.503 -1.7552 -0.0242 -2.7031
  146MOL   H22441114   2.180   3.876   7.296  0.1257 -0.6154 -1.5501
  146MOL   H22541115   2.273   3.889   7.071 -1.6523 -1.1830  0.1115
  146MOL   C22641116   2.025   3.992   7.668 -0.0428 -0.6202  0.3637
  146MOL   C22741117   2.058   3.888   7.754  0.2069 -0.9594 -0.8482
  146MOL   C22841118   2.028   3.893   7.896 -0.0698  0.7723 -0.5217
  146MOL   C22941119   1.966   4.001   7.952 -0.4677  0.1524 -0.1227
  146MOL   C23041120   1.949   4.025   8.093  0.2771  0.0231  0.0447
  146MOL   C23141121   1.959   3.931   0.047 -0.3930  0.0039  0.3896
  146MOL   C23241122   1.925   4.107   7.862  0.1665 -0.4314  0.2492
  146MOL   C23341123   1.954   4.101   7.727  0.8265 -0.7851  0.1247
  146MOL   H23441124   2.114   3.807   7.708  3.2171  0.0422  0.8876
  146MOL   H23541125   2.058   3.819   7.968 -1.9058  0.3563 -0.1636
  146MOL   H23641126   1.940   4.128   8.124  1.4271 -0.1335  0.9426
  146MOL   H23741127   1.969   3.826   0.025  0.8256  0.6555 -2.4052
  146MOL   H23841128   1.885   4.193   7.913  0.7703 -0.7183  1.2134
  146MOL   H23941129   1.930   4.185   7.664 -0.4577 -1.8935 -0.8887
  146MOL   C24041130   1.972   3.961   0.191  0.3811 -0.5570 -0.0096
  146MOL   C24141131   2.003   3.854   0.280  0.6682  0.0258 -0.5409
  146MOL   C24241132   2.010   3.875   0.418 -0.2662  0.7592  0.4199
  146MOL   C24341133   1.971   3.996   0.474  0.2806 -0.4958 -0.6999
  146MOL   C24441134   1.953   4.009   0.626 -0.6798  0.0968 -0.4198
  146MOL   C24541135   1.873   4.100   0.681  0.1027 -0.3657 -0.3753
  146MOL   C24641136   1.946   4.108   0.387  0.4504 -0.0013 -0.2118
  146MOL   C24741137   1.948   4.090   0.247  0.2845 -0.1668 -0.3946
  146MOL   H24841138   2.019   3.760   0.229 -1.4570 -1.6478  1.7869
  146MOL   H24941139   2.024   3.787   0.479 -0.1332 -0.1099 -0.8335
  146MOL   H25041140   2.015   3.944   0.686 -0.5688  0.6858  0.1114
  146MOL   H25141141   1.815   4.165   0.617  2.0692 -1.6866 -3.6315
  146MOL   H25241142   1.929   4.209   0.424 -2.0541 -0.2321 -0.6163
  146MOL   H25341143   1.926   4.179   0.191  2.0706  0.0377 -0.7888
  146MOL   C25441144   1.845   4.125   0.822  0.1466 -0.3157  0.4767
  146MOL   C25541145   1.893   4.041   0.920  0.1267  0.6264  0.0554
  146MOL   C25641146   1.845   4.058   1.053 -0.3135 -0.2676  0.0718
  146MOL   C25741147   1.775   4.174   1.093 -0.4034 -0.8137  0.4261
  146MOL   C25841148   1.751   4.200   1.234 -0.6313  1.1687  0.3975
  146MOL   C25941149   1.676   4.293   1.298 -0.5032  0.0910  0.3824
  146MOL   C26041150   1.735   4.264   0.991 -0.4460 -0.4113 -0.9120
  146MOL   C26141151   1.768   4.234   0.853  0.8598  0.6732  0.4425
  146MOL   H26241152   1.955   3.957   0.892 -2.1214 -1.6149  1.5437
  146MOL   H26341153   1.888   3.989   1.125  2.4919  0.0234 -1.2655
  146MOL   H26441154   1.799   4.135   1.305 -0.1977 -0.7952 -1.6378
  146MOL   H26541155   1.673   4.283   1.405 -0.2789 -1.7710  0.2367
  146MOL   H26641156   1.684   4.356   1.014 -0.8298 -0.7618 -0.3745
  146MOL   H26741157   1.735   4.300   0.774  1.9685  1.4074  0.5866
  146MOL   C26841158   1.579   4.389   1.238 -0.1241  0.3618  0.5900
  146MOL   C26941159   1.467   4.349   1.161 -0.3196  0.1272  0.3297
  146MOL   C27041160   1.383   4.443   1.104  0.0067 -0.1112  0.3671
  146MOL   C27141161   1.389   4.578   1.141 -0.3956 -0.2406 -0.1440
  146MOL   C27241162   1.291   4.678   1.104  0.8904 -0.8648 -0.0691
  146MOL   C27341163   1.206   4.666   1.003  0.4949  0.3435 -0.3695
  146MOL   C27441164   1.501   4.628   1.218 -0.2690 -0.2583 -0.0011
  146MOL   C27541165   1.598   4.531   1.266 -0.1398 -0.6019 -0.4755
  146MOL   H27641166   1.457   4.244   1.137 -0.3868  0.0804  0.5613
  146MOL   H27741167   1.300   4.410   1.043 -0.0599  1.1202 -0.2243
  146MOL   H27841168   1.281   4.770   1.160  1.6042 -0.0983 -1.2057
  146MOL   H27941169   1.226   4.573   0.952  0.4868  0.3772 -0.4332
  146MOL   H28041170   1.501   4.733   1.246  1.8235 -0.0220 -0.8054
  146MOL   H28141171   1.685   4.557   1.323 -0.4041 -0.2527 -0.2345
  146MOL   H28241172   1.129   4.738   0.979 -1.1545 -1.9849 -2.2348
  147MOL     C141173   6.527   4.197   6.720  0.0955 -0.0500 -0.2458
  147MOL     C241174   6.408   4.159   6.652 -0.0771 -0.0289  0.2692
  147MOL     C341175   6.340   4.236   6.553  0.4723  0.7467  0.6811
  147MOL     C441176   6.388   4.361   6.528  0.0357 -0.1360 -0.2207
  147MOL     C541177   6.324   4.456   6.439  0.1288  0.2637 -0.3750
  147MOL     C641178   6.313   4.588   6.445  0.8553  1.0463  0.0991
  147MOL     C741179   6.490   4.415   6.611  0.1309 -0.2871 -0.0970
  147MOL     C841180   6.561   4.336   6.701  0.5219  0.4532  0.3394
  147MOL     H941181   6.377   4.057   6.663 -0.4645  0.0535 -0.0454
  147MOL    H1041182   6.249   4.197   6.510  1.5633  0.6017 -1.5600
  147MOL    H1141183   6.272   4.410   6.356  0.4215  1.5196 -1.2706
  147MOL    H1241184   6.354   4.644   6.528  2.3876 -1.7278  1.2636
  147MOL    H1341185   6.532   4.513   6.595 -0.9307  0.3960  1.1845
  147MOL    H1441186   6.638   4.381   6.762  0.4023 -0.5627  1.2795
  147MOL    H1541187   6.565   4.135   6.800 -4.0390 -1.5872  0.6614
  147MOL    C1641188   6.257   4.670   6.335 -0.0902  0.0820 -0.5113
  147MOL    C1741189   6.169   4.773   6.366 -0.0613  0.0714  0.5098
  147MOL    C1841190   6.131   4.868   6.271  0.9892  0.1169  0.6080
  147MOL    C1941191   6.167   4.853   6.142  0.3458  0.6261 -0.3624
  147MOL    C2041192   6.119   4.950   6.047  0.0619  0.6487 -0.5459
  147MOL    C2141193   6.112   4.947   5.912  0.3983  0.3110  0.6024
  147MOL    C2241194   6.255   4.750   6.106  0.7877  0.3290 -0.0826
  147MOL    C2341195   6.299   4.657   6.204 -0.7453 -0.1321 -0.0197
  147MOL    H2441196   6.128   4.795   6.464  0.6683 -0.2712  0.8939
  147MOL    H2541197   6.065   4.950   6.295 -0.3156 -0.8096  0.2717
  147MOL    H2641198   6.083   5.037   6.100  1.5653  0.4712  0.8011
  147MOL    H2741199   6.154   4.860   5.865 -1.5698  0.9372 -2.5116
  147MOL    H2841200   6.285   4.751   6.003  2.5728  0.7465  0.4128
  147MOL    H2941201   6.358   4.573   6.167 -0.6592 -1.6566  3.4121
  147MOL    C3041202   6.070   5.065   5.830 -0.5880  0.3532  0.6627
  147MOL    C3141203   6.085   5.057   5.694  0.3386  0.4405 -0.3196
  147MOL    C3241204   6.053   5.167   5.618  1.2500 -0.1972 -0.7637
  147MOL    C3341205   5.988   5.279   5.671  0.3558 -0.3058 -0.1806
  147MOL    C3441206   5.936   5.385   5.582  0.1467  0.6361  0.5220
  147MOL    C3541207   5.977   5.406   5.453 -1.0639 -0.0079  0.5979
  147MOL    C3641208   5.950   5.278   5.805 -0.1195  0.0462 -0.3316
  147MOL    C3741209   6.002   5.174   5.885  0.3094 -0.4668 -0.4649
  147MOL    H3841210   6.145   4.981   5.646  1.5811  1.7982 -0.9711
  147MOL    H3941211   6.070   5.167   5.511 -0.9118  0.0054 -1.1324
  147MOL    H4041212   5.867   5.454   5.628 -1.2810 -1.4053  1.5318
  147MOL    H4141213   6.047   5.340   5.403 -0.4654  1.7400 -0.9419
  147MOL    H4241214   5.889   5.360   5.839  1.8783  0.7088  1.7350
  147MOL    H4341215   5.978   5.179   5.990  0.3221  1.3319 -0.5273
  147MOL    C4441216   5.918   5.516   5.367 -0.1174 -0.2794 -0.4392
  147MOL    C4541217   5.985   5.555   5.257  0.1778 -1.0530  0.4693
  147MOL    C4641218   5.928   5.652   5.167 -0.3867 -0.0496  0.2964
  147MOL    C4741219   5.791   5.699   5.191 -0.5577  1.0804 -0.1108
  147MOL    C4841220   5.713   5.772   5.094 -0.4715  0.1741 -0.6403
  147MOL    C4941221   5.754   5.820   4.978 -0.1661 -0.4080 -1.1187
  147MOL    C5041222   5.735   5.658   5.318  0.1512 -0.3906  0.5489
  147MOL    C5141223   5.797   5.567   5.407  0.4962  0.1419  0.2879
  147MOL    H5241224   6.081   5.517   5.226 -1.4634 -4.4196 -0.6626
  147MOL    H5341225   5.984   5.675   5.077 -1.4002  1.5466  0.0666
  147MOL    H5441226   5.613   5.791   5.131 -0.4026  3.1056 -1.8051
  147MOL    H5541227   5.855   5.806   4.942  0.6457 -2.4052  1.7832
  147MOL    H5641228   5.647   5.708   5.357 -1.1780 -1.3571 -1.1393
  147MOL    H5741229   5.744   5.540   5.497  0.5465  0.6617  0.4785
  147MOL    C5841230   5.665   5.895   4.880  0.2519 -0.2510 -0.5593
  147MOL    C5941231   5.686   5.868   4.747 -0.5929 -0.3340 -0.0057
  147MOL    C6041232   5.605   5.941   4.657  0.1971  0.7381  0.1296
  147MOL    C6141233   5.496   6.016   4.694  0.5003  0.3193  0.4068
  147MOL    C6241234   5.398   6.079   4.602  0.4707 -0.2659 -0.1194
  147MOL    C6341235   5.414   6.100   4.468 -0.0434 -0.2448 -0.5159
  147MOL    C6441236   5.463   6.028   4.832 -0.6590  0.2625  0.0003
  147MOL    C6541237   5.549   5.966   4.925  0.3577 -0.0842 -0.5363
  147MOL    H6641238   5.763   5.801   4.712 -2.1595 -2.9291  1.3040
  147MOL    H6741239   5.625   5.923   4.553 -1.6095 -1.2064  0.0829
  147MOL    H6841240   5.310   6.106   4.658  2.6472  1.2208  2.7278
  147MOL    H6941241   5.509   6.073   4.425  0.1929 -0.7440  0.3174
  147MOL    H7041242   5.374   6.084   4.858 -0.5611  0.2466  0.3625
  147MOL    H7141243   5.536   5.989   5.030  2.2884 -0.5206 -0.1766
  147MOL    C7241244   5.308   6.173   4.386  0.4085 -0.0906  0.6142
  147MOL    C7341245   5.168   6.158   4.407 -0.3529 -0.2803  0.9632
  147MOL    C7441246   5.078   6.233   4.330  0.2043  0.1851 -0.3803
  147MOL    C7541247   5.123   6.325   4.225  0.8829  0.0948  0.1762
  147MOL    C7641248   5.023   6.408   4.160 -0.6151  0.2415 -0.2716
  147MOL    C7741249   5.047   6.506   4.076  0.4539  0.2864  0.2895
  147MOL    C7841250   5.266   6.330   4.201  0.0211  0.8430 -0.1539
  147MOL    C7941251   5.352   6.260   4.290 -0.1787 -0.3832 -0.5679
  147MOL    H8041252   5.129   6.099   4.489 -0.8945  2.2326  2.5689
  147MOL    H8141253   4.974   6.219   4.356  0.6124  1.0796  1.8928
  147MOL    H8241254   4.922   6.392   4.194 -0.1417  0.8476  1.4414
  147MOL    H8341255   5.146   6.527   4.038  0.7451  0.1166  0.9342
  147MOL    H8441256   5.300   6.385   4.114  1.1308 -1.0140 -0.9302
  147MOL    H8541257   5.459   6.259   4.273  0.3672  0.4030  2.4924
  147MOL    C8641258   4.941   6.593   4.018 -0.8714  0.6781  0.2778
  147MOL    C8741259   4.810   6.593   4.067  0.1458  0.3985  0.0297
  147MOL    C8841260   4.713   6.690   4.034 -0.3795 -0.7720 -0.5962
  147MOL    C8941261   4.749   6.788   3.933 -0.4938  0.7085 -0.7417
  147MOL    C9041262   4.656   6.891   3.886 -0.3911  0.1011 -0.6533
  147MOL    C9141263   4.523   6.879   3.897  0.5178 -0.3567  0.3222
  147MOL    C9241264   4.875   6.780   3.869  0.4670 -0.8781 -0.2524
  147MOL    C9341265   4.968   6.682   3.911  0.4872 -0.1309 -0.2044
  147MOL    H9441266   4.775   6.520   4.139 -1.6706 -1.7393 -2.9012
  147MOL    H9541267   4.612   6.690   4.072 -0.4636  0.4209 -0.7760
  147MOL    H9641268   4.698   6.979   3.840  0.4402 -1.5322 -3.1262
  147MOL    H9741269   4.470   6.788   3.926  0.1279 -1.3682 -3.3473
  147MOL    H9841270   4.905   6.848   3.791 -1.6483 -1.8904 -1.9911
  147MOL    H9941271   5.063   6.670   3.861  0.5016  2.1515 -0.7511
  147MOL   C10041272   4.424   6.989   3.870  0.1481  0.4183  0.1287
  147MOL   C10141273   4.453   7.125   3.837 -0.2744  0.0725  0.3391
  147MOL   C10241274   4.354   7.205   3.794  0.5828  0.2606 -0.4741
  147MOL   C10341275   4.219   7.164   3.783  0.3647 -0.5129 -0.0390
  147MOL   C10441276   4.119   7.262   3.738 -0.5424  0.1003  0.8343
  147MOL   C10541277   3.987   7.234   3.739  0.4549  0.2811 -0.0892
  147MOL   C10641278   4.188   7.031   3.817 -0.0086 -0.3436  0.4262
  147MOL   C10741279   4.294   6.946   3.857  0.0552 -0.6387 -0.4366
  147MOL   H10841280   4.548   7.173   3.856 -1.2894  1.2848  2.4611
  147MOL   H10941281   4.366   7.311   3.776  1.3292  0.1428 -0.7056
  147MOL   H11041282   4.156   7.357   3.706 -1.5996  0.4972  0.7648
  147MOL   H11141283   3.972   7.139   3.788  3.2341  0.4675  1.2781
  147MOL   H11241284   4.091   6.986   3.814 -1.2564  2.3469 -0.8983
  147MOL   H11341285   4.258   6.845   3.872 -1.9989  0.2139  0.5366
  147MOL   C11441286   3.876   7.316   3.697 -0.0197 -0.0838  0.9343
  147MOL   C11541287   3.894   7.447   3.654 -0.0492  0.9627  0.0230
  147MOL   C11641288   3.784   7.527   3.611  0.3976 -0.0455 -0.4918
  147MOL   C11741289   3.654   7.477   3.614  0.1838 -0.1143  0.7622
  147MOL   C11841290   3.544   7.575   3.582 -0.0616 -0.0311 -0.1255
  147MOL   C11941291   3.411   7.554   3.612 -0.3904  0.4236  0.5598
  147MOL   C12041292   3.635   7.342   3.657 -0.6328  0.2717 -0.4614
  147MOL   C12141293   3.742   7.260   3.693 -0.0343 -0.3254 -0.4920
  147MOL   H12241294   3.993   7.490   3.651 -0.2134  1.2783 -1.5579
  147MOL   H12341295   3.784   7.630   3.580 -0.9287 -0.2272 -1.1291
  147MOL   H12441296   3.570   7.663   3.525 -2.0772  1.2590  0.8684
  147MOL   H12541297   3.379   7.470   3.672  0.5994  1.2065  2.2400
  147MOL   H12641298   3.541   7.289   3.649 -1.3598  1.5616 -0.5500
  147MOL   H12741299   3.724   7.156   3.715  0.1410 -0.2214  0.1611
  147MOL   C12841300   3.297   7.648   3.584 -0.7125 -0.8109 -0.6135
  147MOL   C12941301   3.317   7.778   3.530 -0.2015 -0.2680  0.0766
  147MOL   C13041302   3.214   7.864   3.501  0.1651  0.0343  0.6348
  147MOL   C13141303   3.078   7.822   3.519 -0.4321  0.2352 -0.1165
  147MOL   C13241304   2.972   7.920   3.488  0.4271  0.2567  0.4512
  147MOL   C13341305   2.847   7.900   3.537 -0.5155 -0.2518  0.4078
  147MOL   C13441306   3.058   7.686   3.566 -0.1373  0.5647  0.0356
  147MOL   C13541307   3.169   7.598   3.596  0.0055  0.3025 -0.1946
  147MOL   H13641308   3.419   7.806   3.509 -0.0362 -1.7770 -1.2023
  147MOL   H13741309   3.238   7.963   3.466  1.2649 -0.6100 -0.4561
  147MOL   H13841310   2.990   8.007   3.427  2.7885 -1.2900 -1.1372
  147MOL   H13941311   2.835   7.807   3.592 -1.3227 -0.5322 -0.2263
  147MOL   H14041312   2.958   7.646   3.566  0.0122  0.1909 -0.6235
  147MOL   H14141313   3.156   7.497   3.630 -1.1358 -0.1983 -2.0468
  147MOL   C14241314   2.724   7.979   3.525 -0.3995  0.1768 -0.4582
  147MOL   C14341315   2.610   7.941   3.602  1.0169  0.1340 -0.0384
  147MOL   C14441316   2.486   8.010   3.581  0.3051  0.7040 -1.1032
  147MOL   C14541317   2.476   8.117   3.493 -0.4102 -0.2541  1.1754
  147MOL   C14641318   2.349   0.026   3.458  0.2905 -0.3096  0.4536
  147MOL   C14741319   2.326   0.128   3.369  0.3379  0.5367  0.1491
  147MOL   C14841320   2.600   0.013   3.423  0.2036  0.3295 -0.4333
  147MOL   C14941321   2.718   8.083   3.437  0.0045 -1.1476 -0.5389
  147MOL   H15041322   2.612   7.852   3.663  0.0979 -0.0896 -0.3157
  147MOL   H15141323   2.393   7.985   3.629 -0.5694  1.3818 -2.4002
  147MOL   H15241324   2.262   8.134   3.511 -0.8179  0.3414 -0.8921
  147MOL   H15341325   2.407   0.162   3.305 -0.8108 -1.8817 -2.7018
  147MOL   H15441326   2.610   0.088   3.345 -0.9053  0.6337 -0.2968
  147MOL   H15541327   2.802   8.113   3.375  0.1132 -0.9451 -0.2924
  147MOL   C15641328   2.206   0.194   3.345  0.0897 -0.0727 -0.5647
  147MOL   C15741329   2.201   0.325   3.287 -0.1465 -0.4846  0.3783
  147MOL   C15841330   2.081   0.389   3.259  0.2963  0.4826  1.0983
  147MOL   C15941331   1.958   0.331   3.309  0.5535 -0.2603  0.1701
  147MOL   C16041332   1.830   0.404   3.281 -0.7398  0.9470  0.2305
  147MOL   C16141333   1.709   0.347   3.271 -0.0181  0.0825  0.2602
  147MOL   C16241334   1.959   0.196   3.358 -0.7919 -0.9827 -0.0839
  147MOL   C16341335   2.085   0.130   3.376  0.1709 -0.0483  0.0239
  147MOL   H16441336   2.294   0.375   3.264  0.0830 -0.9914  0.2133
  147MOL   H16541337   2.081   0.480   3.200 -0.3711 -1.4864 -2.0538
  147MOL   H16641338   1.834   0.511   3.268 -1.4639  0.9816  0.2729
  147MOL   H16741339   1.710   0.239   3.268  0.2325  0.1044 -1.3121
  147MOL   H16841340   1.868   0.143   3.380 -1.9703 -0.2747 -3.0573
  147MOL   H16941341   2.083   0.034   3.425 -1.4657 -0.5823 -1.0151
  147MOL   C17041342   1.582   0.416   3.256  0.9829 -0.3319 -0.0824
  147MOL   C17141343   1.470   0.335   3.259  0.3944 -0.2944  0.6355
  147MOL   C17241344   1.345   0.395   3.246 -0.1344  0.5623 -0.4890
  147MOL   C17341345   1.321   0.536   3.237  0.1771 -0.3040  0.0333
  147MOL   C17441346   1.187   0.591   3.252 -0.0504 -0.0402 -0.6312
  147MOL   C17541347   1.087   0.525   3.316  0.2559 -0.4338 -0.1893
  147MOL   C17641348   1.436   0.620   3.230  0.1994 -0.3238 -0.3239
  147MOL   C17741349   1.565   0.557   3.251  0.0520 -0.5566 -0.5231
  147MOL   H17841350   1.488   0.228   3.260 -0.4510 -0.4429  0.3344
  147MOL   H17941351   1.265   0.323   3.254 -1.1599  1.6308 -1.0613
  147MOL   H18041352   1.178   0.687   3.203 -0.6245  0.8472  1.1836
  147MOL   H18141353   1.105   0.427   3.358  1.9221  0.4281  1.1582
  147MOL   H18241354   1.418   0.726   3.222 -1.5777 -0.4905  1.1271
  147MOL   H18341355   1.654   0.618   3.251  0.3713 -1.0278 -0.9426
  147MOL   C18441356   0.944   0.574   3.327  0.4641  0.2470  0.0540
  147MOL   C18541357   0.898   0.692   3.265 -0.0897  0.6478  0.5613
  147MOL   C18641358   0.762   0.734   3.275  0.3507  0.7956 -0.2429
  147MOL   C18741359   0.665   0.660   3.346 -0.4212  0.7625 -0.6719
  147MOL   C18841360   0.524   0.706   3.341 -0.3840  0.5866  0.1162
  147MOL   C18941361   0.411   0.659   3.393 -0.3172  0.8362 -0.0364
  147MOL   C19041362   0.709   0.545   3.414  0.0221 -0.4617  0.0175
  147MOL   C19141363   0.847   0.509   3.413 -0.1569  0.8974  0.8333
  147MOL   H19241364   0.960   0.743   3.192  2.3131 -1.8678  0.7867
  147MOL   H19341365   0.747   0.829   3.226  2.4893  0.9206 -0.7321
  147MOL   H19441366   0.507   0.790   3.275  0.8528  1.1468  0.5003
  147MOL   H19541367   0.413   0.580   3.467 -0.9201  0.8553  0.0097
  147MOL   H19641368   0.637   0.492   3.476 -1.3948  0.8013 -0.5034
  147MOL   H19741369   0.876   0.414   3.456  1.3052 -0.0969 -2.2096
  147MOL   C19841370   0.273   0.701   3.357 -0.5575  0.2608 -0.0184
  147MOL   C19941371   0.252   0.809   3.265  1.1772  0.2899  0.4913
  147MOL   C20041372   0.123   0.856   3.229  0.4678  1.2671 -0.2339
  147MOL   C20141373   0.016   0.769   3.261  0.0327 -0.4724 -0.2627
  147MOL   C20241374   8.034   0.801   3.198 -0.2076  0.1351  0.1620
  147MOL   C20341375   7.912   0.755   3.236 -0.2525 -0.2581 -0.3147
  147MOL   C20441376   0.030   0.673   3.362  0.6774  0.3350  0.5029
  147MOL   C20541377   0.158   0.644   3.410 -0.3899 -0.3864  0.3987
  147MOL   H20641378   0.334   0.855   3.213  1.9569 -2.8636 -1.1953
  147MOL   H20741379   0.118   0.936   3.157 -0.8932  0.8670 -0.6037
  147MOL   H20841380   8.031   0.865   3.111 -1.3138 -1.6630 -1.1677
  147MOL   H20941381   7.902   0.695   3.325 -0.5497 -0.3158 -0.3830
  147MOL   H21041382   8.092   0.609   3.389  2.7621 -2.0403  1.3566
  147MOL   H21141383   0.163   0.562   3.480  1.4076  1.2421  2.2431
  147MOL   C21241384   7.788   0.771   3.163 -0.5484 -0.3916  0.8181
  147MOL   C21341385   7.723   0.658   3.114  0.0816  0.1237 -0.1798
  147MOL   C21441386   7.595   0.671   3.049 -0.1616  0.6843  0.0597
  147MOL   C21541387   7.553   0.795   3.003  0.4296  0.6996  0.0483
  147MOL   C21641388   7.430   0.801   2.917  0.1909  0.3292 -0.2203
  147MOL   C21741389   7.339   0.899   2.942 -0.5812  0.1676  0.3599
  147MOL   C21841390   7.627   0.905   3.034  0.4738  0.2142  0.2596
  147MOL   C21941391   7.735   0.899   3.120  0.7777 -0.8449 -0.3766
  147MOL   H22041392   7.768   0.565   3.146  1.4477  0.4460 -1.1110
  147MOL   H22141393   7.542   0.581   3.019  3.5200 -0.7441 -2.4965
  147MOL   H22241394   7.413   0.721   2.847  1.5049 -1.3510  1.3311
  147MOL   H22341395   7.357   0.973   3.019  0.2974  1.6391 -1.2327
  147MOL   H22441396   7.598   1.000   2.991 -0.1072  0.4155  1.0944
  147MOL   H22541397   7.780   0.989   3.161 -2.8506  0.7417  0.3447
  147MOL   C22641398   7.218   0.921   2.871 -0.2960  0.7531 -0.5873
  147MOL   C22741399   7.204   0.879   2.732  0.4785  0.0489  0.0017
  147MOL   C22841400   7.083   0.902   2.662  0.5923  0.6488  1.0306
  147MOL   C22941401   6.973   0.959   2.731  0.0689  0.8500  0.2006
  147MOL   C23041402   6.839   0.973   2.666  0.2778 -0.2160  0.3808
  147MOL   C23141403   6.809   0.927   2.545 -0.4499 -0.9588 -0.3126
  147MOL   C23241404   6.986   0.990   2.868 -0.2013  0.4661  0.0096
  147MOL   C23341405   7.108   0.969   2.942 -0.1504  0.0305 -0.2124
  147MOL   H23441406   7.281   0.825   2.680  0.5962  1.6145 -1.4775
  147MOL   H23541407   7.073   0.874   2.559  0.2697 -0.8615  1.4546
  147MOL   H23641408   6.765   1.026   2.725 -1.0696  0.7098 -2.0933
  147MOL   H23741409   6.888   0.879   2.490  0.4748 -1.0232  1.0632
  147MOL   H23841410   6.903   1.026   2.928 -2.1107 -1.5287 -1.3340
  147MOL   H23941411   7.121   0.996   3.045  3.0309  0.8026 -0.7753
  147MOL   C24041412   6.684   0.941   2.472 -0.1645 -0.8216 -0.6978
  147MOL   C24141413   6.670   0.880   2.347 -0.1682  0.0265  0.0566
  147MOL   C24241414   6.548   0.875   2.277  0.4937 -0.5267 -0.0915
  147MOL   C24341415   6.434   0.943   2.338  0.1838  0.1601 -0.6735
  147MOL   C24441416   6.307   0.964   2.263  0.4363  0.0330  0.5831
  147MOL   C24541417   6.293   0.943   2.134 -0.5240  0.7351 -0.2301
  147MOL   C24641418   6.455   1.002   2.464 -0.1795  0.7688  0.4280
  147MOL   C24741419   6.575   1.004   2.534  0.3400 -0.5149  0.0109
  147MOL   H24841420   6.752   0.831   2.296 -1.9190 -0.5048 -2.3130
  147MOL   H24941421   6.540   0.821   2.184 -0.0812 -0.6534  0.0295
  147MOL   H25041422   6.223   0.996   2.323  1.6973  2.1241  1.3110
  147MOL   H25141423   6.383   0.924   2.077  0.4014  1.3099  1.0003
  147MOL   H25241424   6.369   1.035   2.519 -2.4727 -0.4130 -2.3183
  147MOL   H25341425   6.585   1.049   2.632 -1.5331  0.9564 -0.4455
  147MOL   C25441426   6.167   0.963   2.061  0.7463 -0.1526 -0.1150
  147MOL   C25541427   6.043   0.990   2.126  0.4787  0.2619  0.1657
  147MOL   C25641428   5.933   1.027   2.046  0.1441  0.1741 -0.6098
  147MOL   C25741429   5.933   1.018   1.908  0.3514  0.0838 -0.1172
  147MOL   C25841430   5.797   1.052   1.842 -0.1730  0.0651  0.1280
  147MOL   C25941431   5.749   1.004   1.729  0.6360  0.0642 -0.5215
  147MOL   C26041432   6.055   0.992   1.844  0.2874  0.3054  0.0473
  147MOL   C26141433   6.163   0.964   1.921  0.4360  0.0970  0.4081
  147MOL   H26241434   6.033   0.984   2.234 -1.1035 -1.3649 -0.0433
  147MOL   H26341435   5.850   1.063   2.104  1.2476  1.9686 -0.1334
  147MOL   H26441436   5.739   1.134   1.883  2.0584  1.1817  1.1637
  147MOL   H26541437   5.660   1.057   1.700  0.7008 -0.2379 -1.2805
  147MOL   H26641438   6.065   0.999   1.737  1.8125  0.5677  0.1948
  147MOL   H26741439   6.253   0.943   1.865 -0.6602 -0.1969 -1.2665
  147MOL   C26841440   5.788   0.897   1.637 -0.0560  0.2655  0.0456
  147MOL   C26941441   5.881   0.795   1.664  0.2246  0.3702  0.0618
  147MOL   C27041442   5.913   0.692   1.570  0.2727  0.0245  0.0029
  147MOL   C27141443   5.853   0.689   1.444  0.0849  0.1819  0.2216
  147MOL   C27241444   5.897   0.606   1.337 -0.0929  0.1586  0.6247
  147MOL   C27341445   5.885   0.640   1.207  0.1901  0.0037  0.0746
  147MOL   C27441446   5.753   0.791   1.422 -0.4533  0.1748  0.2351
  147MOL   C27541447   5.722   0.892   1.515  0.6757 -0.4286  0.5681
  147MOL   H27641448   5.934   0.789   1.758 -1.2608 -1.9062  0.7950
  147MOL   H27741449   5.982   0.614   1.599  0.7543 -0.5205 -2.5175
  147MOL   H27841450   5.943   0.510   1.354 -1.0861 -0.4441 -0.0121
  147MOL   H27941451   5.840   0.730   1.169  1.3483  1.3869  1.9538
  147MOL   H28041452   5.707   0.785   1.324 -0.9969 -0.3810  0.5296
  147MOL   H28141453   5.647   0.966   1.490  2.1223  0.8669 -0.0391
  147MOL   H28241454   5.925   0.568   1.137  1.7445  0.2627  0.6616
  148MOL     C141455   7.477   3.555   3.541 -0.1188 -0.3374 -1.0108
  148MOL     C241456   7.433   3.498   3.421  0.4303 -0.3909 -0.4389
  148MOL     C341457   7.294   3.484   3.405 -0.0754  0.4604 -0.8018
  148MOL     C441458   7.197   3.530   3.496  0.1555  0.4473  0.3757
  148MOL     C541459   7.052   3.513   3.457  0.1938 -0.3782 -0.3783
  148MOL     C641460   6.952   3.523   3.544  0.1623 -0.0338 -0.1460
  148MOL     C741461   7.247   3.589   3.614 -0.7206 -0.3576 -0.6599
  148MOL     C841462   7.385   3.596   3.637 -0.1933 -0.4909 -0.8670
  148MOL     H941463   7.505   3.461   3.350  0.3162  1.8806 -1.7905
  148MOL    H1041464   7.257   3.441   3.314  0.6814  1.6961 -1.7008
  148MOL    H1141465   7.025   3.482   3.357  0.8034 -2.3412  0.0474
  148MOL    H1241466   6.978   3.541   3.647 -0.5565 -1.1121  0.2297
  148MOL    H1341467   7.177   3.626   3.688 -0.8901 -0.7577 -0.6207
  148MOL    H1441468   7.425   3.656   3.717 -0.6135  0.3830 -1.3080
  148MOL    H1541469   7.584   3.562   3.552 -0.2865  0.7469 -0.0094
  148MOL    C1641470   6.805   3.508   3.521 -0.2277 -0.1189  0.3715
  148MOL    C1741471   6.752   3.447   3.403  0.9017  0.4263 -0.2490
  148MOL    C1841472   6.617   3.427   3.394 -0.3793  0.1457  0.2566
  148MOL    C1941473   6.527   3.456   3.495 -0.3717 -0.1935 -0.8559
  148MOL    C2041474   6.385   3.430   3.494  0.0384  0.4247  0.2962
  148MOL    C2141475   6.326   3.359   3.395  0.2615  0.6865 -0.0282
  148MOL    C2241476   6.577   3.518   3.613  0.2524  0.5846 -0.0205
  148MOL    C2341477   6.713   3.550   3.623  0.1793  0.0508 -0.2774
  148MOL    H2441478   6.818   3.411   3.325 -1.8017 -1.1899 -1.8836
  148MOL    H2541479   6.584   3.375   3.306 -2.4499  1.2122  0.3713
  148MOL    H2641480   6.327   3.473   3.574 -1.9659 -2.5758  0.5346
  148MOL    H2741481   6.386   3.317   3.315  0.1928 -0.0075  0.2817
  148MOL    H2841482   6.504   3.557   3.682 -1.8547 -0.7035 -1.4663
  148MOL    H2941483   6.750   3.619   3.698  1.0781 -0.5069 -0.2027
  148MOL    C3041484   6.183   3.323   3.386  0.0760  0.0257  1.2227
  148MOL    C3141485   6.105   3.303   3.501  0.6532  0.1854  0.7927
  148MOL    C3241486   5.967   3.288   3.486  0.4931 -0.4161 -0.4252
  148MOL    C3341487   5.916   3.266   3.359 -0.3548  0.2797 -0.4956
  148MOL    C3441488   5.776   3.216   3.359  0.3499 -0.2592 -0.3043
  148MOL    C3541489   5.699   3.210   3.249 -0.3001  0.1576  0.2437
  148MOL    C3641490   5.989   3.283   3.240 -0.3187 -0.3128 -0.8069
  148MOL    C3741491   6.126   3.307   3.258  0.3367  0.0253 -0.2435
  148MOL    H3841492   6.143   3.314   3.601  0.5018  1.4696  0.7111
  148MOL    H3941493   5.906   3.295   3.575 -0.1153 -2.0644 -0.7025
  148MOL    H4041494   5.737   3.192   3.457 -0.3297 -0.2634 -0.5704
  148MOL    H4141495   5.741   3.216   3.150 -0.5432 -1.3333  0.0352
  148MOL    H4241496   5.937   3.267   3.147 -3.4451  2.1817  0.4551
  148MOL    H4341497   6.186   3.331   3.171  0.8091 -0.6904 -0.1168
  148MOL    C4441498   5.555   3.173   3.241  0.1886  0.2310 -0.6366
  148MOL    C4541499   5.503   3.138   3.120  0.0025 -0.0885  0.1028
  148MOL    C4641500   5.372   3.091   3.110 -0.4908 -0.0477  0.7451
  148MOL    C4741501   5.295   3.080   3.228 -0.6300  0.5402 -0.6392
  148MOL    C4841502   5.170   3.013   3.214 -0.3592 -1.0830  0.5573
  148MOL    C4941503   5.055   3.039   3.283  0.0316 -0.5847  0.2516
  148MOL    C5041504   5.352   3.114   3.353 -0.3774 -0.4836 -0.0618
  148MOL    C5141505   5.484   3.153   3.359  0.3704 -0.2695 -0.3157
  148MOL    H5241506   5.562   3.137   3.029  1.9381 -0.6708  1.3276
  148MOL    H5341507   5.331   3.065   3.014  0.0061 -0.3658  0.6193
  148MOL    H5441508   5.171   2.929   3.147  1.6630 -0.9332  0.3640
  148MOL    H5541509   5.058   3.116   3.358 -1.1400 -0.4920  0.2166
  148MOL    H5641510   5.295   3.102   3.444 -0.1662  0.4495  0.1915
  148MOL    H5741511   5.524   3.171   3.457 -2.5082 -1.5579  1.1807
  148MOL    C5841512   4.927   2.973   3.262 -0.0702  0.0671  0.2570
  148MOL    C5941513   4.828   2.984   3.365  0.2259 -0.1375  0.2939
  148MOL    C6041514   4.699   2.927   3.345  0.7075 -0.3142  0.2171
  148MOL    C6141515   4.671   2.867   3.224  0.5493 -0.0922 -0.5789
  148MOL    C6241516   4.537   2.810   3.213  0.6730 -0.1524  0.2265
  148MOL    C6341517   4.491   2.742   3.109  0.2086 -0.2213  0.4198
  148MOL    C6441518   4.767   2.853   3.127 -0.2737  0.3808  0.0484
  148MOL    C6541519   4.896   2.904   3.147 -0.6725  0.0091  0.1551
  148MOL    H6641520   4.848   3.031   3.460  0.2972 -0.3835  0.4013
  148MOL    H6741521   4.626   2.936   3.423 -0.5821 -0.8117 -0.9132
  148MOL    H6841522   4.477   2.832   3.300  1.7666  2.2027  0.4252
  148MOL    H6941523   4.557   2.721   3.026 -0.4323 -1.6896  0.2535
  148MOL    H7041524   4.745   2.800   3.035 -1.0228  0.8846 -0.0665
  148MOL    H7141525   4.965   2.883   3.066  0.5503  0.8813  0.9654
  148MOL    C7241526   4.349   2.689   3.093 -0.4589 -0.5526 -0.5747
  148MOL    C7341527   4.307   2.655   2.968 -0.2848  0.5242 -0.3647
  148MOL    C7441528   4.172   2.634   2.934  0.3227  0.0364  0.1084
  148MOL    C7541529   4.073   2.633   3.043 -0.5509 -0.1642  0.2003
  148MOL    C7641530   3.924   2.607   3.018 -0.4474  0.3004  0.1508
  148MOL    C7741531   3.865   2.629   2.901  0.3468  0.0991 -0.0901
  148MOL    C7841532   4.120   2.657   3.178  0.3666  0.1449 -0.7948
  148MOL    C7941533   4.258   2.682   3.203 -0.0698 -0.6367  0.0010
  148MOL    H8041534   4.373   2.676   2.885  2.1129  0.6295  1.5037
  148MOL    H8141535   4.140   2.618   2.833  0.5213 -2.5935  0.4180
  148MOL    H8241536   3.866   2.566   3.099  0.8305 -0.8193  0.5333
  148MOL    H8341537   3.925   2.666   2.819  0.7452 -2.2781 -0.9190
  148MOL    H8441538   4.051   2.641   3.259  2.1096 -1.5233  0.4151
  148MOL    H8541539   4.293   2.719   3.298 -0.6246 -1.1498  0.4097
  148MOL    C8641540   3.724   2.598   2.873  0.5948  0.3605  0.4731
  148MOL    C8741541   3.638   2.529   2.962 -0.5705  0.0067 -0.3117
  148MOL    C8841542   3.509   2.494   2.919  0.0483  0.9165  0.0046
  148MOL    C8941543   3.460   2.523   2.790 -0.3836 -0.0872 -0.1383
  148MOL    C9041544   3.320   2.489   2.752 -1.3000 -0.6654 -0.1934
  148MOL    C9141545   3.218   2.453   2.834  0.2939  0.5563  0.2813
  148MOL    C9241546   3.534   2.607   2.707 -0.3858  0.0751  0.1591
  148MOL    C9341547   3.666   2.637   2.751 -0.1959  0.1536  0.3515
  148MOL    H9441548   3.669   2.502   3.062 -2.3425  1.1620  0.5785
  148MOL    H9541549   3.449   2.433   2.985  1.4682  0.1614  0.6258
  148MOL    H9641550   3.304   2.497   2.645 -0.8435 -0.1024 -0.2199
  148MOL    H9741551   3.247   2.438   2.937  2.3070  1.4658 -0.1359
  148MOL    H9841552   3.503   2.634   2.607  1.0868  0.4941 -0.1996
  148MOL    H9941553   3.725   2.689   2.677 -1.7068  1.1680 -0.1817
  148MOL   C10041554   3.076   2.430   2.801  0.3606  0.7071 -0.3535
  148MOL   C10141555   2.979   2.403   2.905 -0.9047 -0.8880  0.3178
  148MOL   C10241556   2.840   2.382   2.878  0.0551  0.3355  0.0167
  148MOL   C10341557   2.795   2.387   2.745 -0.0633  0.2705 -0.6363
  148MOL   C10441558   2.660   2.348   2.718  0.5394  0.2017  0.2640
  148MOL   C10541559   2.613   2.312   2.593 -0.4008 -0.0156  0.5501
  148MOL   C10641560   2.887   2.425   2.639  0.2428  0.6779 -0.6688
  148MOL   C10741561   3.023   2.454   2.672 -0.2046  0.5950 -0.4006
  148MOL   H10841562   3.012   2.386   3.006 -1.0262 -2.9050  0.0272
  148MOL   H10941563   2.768   2.353   2.954 -1.7988 -0.5985 -2.0523
  148MOL   H11041564   2.594   2.342   2.803  1.7070  0.8027  1.2183
  148MOL   H11141565   2.690   2.303   2.517 -1.8699  0.3705 -1.0141
  148MOL   H11241566   2.856   2.450   2.539 -2.9529  0.5198  0.2421
  148MOL   H11341567   3.082   2.477   2.584 -0.0311 -2.5882 -1.1841
  148MOL   C11441568   2.480   2.257   2.563 -0.6791 -0.2254 -0.1582
  148MOL   C11541569   2.377   2.248   2.655  0.6284 -0.3432 -0.3491
  148MOL   C11641570   2.246   2.209   2.614 -0.0983  0.7442  0.1765
  148MOL   C11741571   2.220   2.181   2.480  0.0565 -0.2930  0.2393
  148MOL   C11841572   2.078   2.159   2.440 -0.7161 -0.0471 -0.5819
  148MOL   C11941573   2.046   2.128   2.315 -0.1731  0.6816  0.2866
  148MOL   C12041574   2.324   2.176   2.385 -0.4895  0.3043 -0.1544
  148MOL   C12141575   2.455   2.208   2.429  0.1989  0.4078  0.4507
  148MOL   H12241576   2.401   2.273   2.757 -0.7823  0.5506 -0.2235
  148MOL   H12341577   2.171   2.205   2.691 -0.0663 -2.4334  0.1204
  148MOL   H12441578   2.007   2.165   2.521 -0.7922 -0.3800 -0.6255
  148MOL   H12541579   2.118   2.122   2.235  0.2112  1.0246  0.6056
  148MOL   H12641580   2.313   2.162   2.278 -1.6016 -1.2332  0.1425
  148MOL   H12741581   2.534   2.213   2.355  0.2148 -1.3669  0.3265
  148MOL   C12841582   1.916   2.093   2.273  0.5211  0.6517  0.1417
  148MOL   C12941583   1.804   2.087   2.360  0.1616 -0.2243 -0.2397
  148MOL   C13041584   1.676   2.052   2.297  0.3905  0.4079 -0.0544
  148MOL   C13141585   1.659   2.037   2.158 -0.2067 -0.2640  0.6929
  148MOL   C13241586   1.528   2.007   2.091 -0.4707  0.4909  0.4232
  148MOL   C13341587   1.407   1.990   2.145  0.1332  0.4021 -0.1710
  148MOL   C13441588   1.772   2.043   2.075  0.5652 -0.1258  0.2831
  148MOL   C13541589   1.897   2.076   2.134  0.4447 -0.1000 -0.0487
  148MOL   H13641590   1.812   2.092   2.468 -0.2710 -0.3145 -0.2031
  148MOL   H13741591   1.586   2.054   2.356 -1.1535  3.0115 -2.3444
  148MOL   H13841592   1.549   1.997   1.985  1.9676 -0.8669  0.9978
  148MOL   H13941593   1.397   2.009   2.250  1.3624  2.1452 -0.3399
  148MOL   H14041594   1.772   2.039   1.967 -0.2873  0.2807  0.2652
  148MOL   H14141595   1.975   2.098   2.063  0.5722 -1.3523 -0.2953
  148MOL   C14241596   1.276   1.951   2.089 -0.0743  0.1691  1.0838
  148MOL   C14341597   1.258   1.975   1.954  0.2145 -0.0655 -0.5519
  148MOL   C14441598   1.132   1.958   1.888 -0.2613  0.2761  0.0664
  148MOL   C14541599   1.013   1.915   1.967 -0.5537 -0.1035 -0.1975
  148MOL   C14641600   0.875   1.902   1.913 -0.2380  0.0912 -0.1308
  148MOL   C14741601   0.848   1.907   1.784 -0.4406 -0.4926  0.2439
  148MOL   C14841602   1.042   1.883   2.101  0.8205 -0.3003 -0.0783
  148MOL   C14941603   1.168   1.905   2.160  0.0073 -0.0713 -0.6771
  148MOL   H15041604   1.339   2.006   1.889 -0.0720  2.4802  0.2566
  148MOL   H15141605   1.124   1.977   1.782 -1.3671  0.8162  0.2352
  148MOL   H15241606   0.794   1.892   1.984 -1.0845  0.4730 -1.0254
  148MOL   H15341607   0.928   1.919   1.713 -0.2848  1.3575  0.6881
  148MOL   H15441608   0.969   1.833   2.163  0.6886 -1.0114 -0.8020
  148MOL   H15541609   1.180   1.878   2.264 -1.2465  0.5053 -0.3728
  148MOL   C15641610   0.712   1.888   1.727 -0.6214 -0.2480  0.1207
  148MOL   C15741611   0.596   1.887   1.809 -0.1081 -0.8629  0.2912
  148MOL   C15841612   0.471   1.875   1.749 -0.0109 -0.0245  0.3513
  148MOL   C15941613   0.466   1.868   1.606  0.0779 -0.2983 -0.4405
  148MOL   C16041614   0.329   1.879   1.555 -0.6806 -0.1632  0.3380
  148MOL   C16141615   0.307   1.879   1.423  0.0494 -0.0094 -0.3427
  148MOL   C16241616   0.588   1.881   1.524  0.6028 -0.0085 -0.5495
  148MOL   C16341617   0.713   1.871   1.584  0.5684  0.2907  0.1175
  148MOL   H16441618   0.600   1.882   1.917 -2.3642  0.4378  0.4651
  148MOL   H16541619   0.380   1.864   1.806  0.6310  2.4383  1.9175
  148MOL   H16641620   0.247   1.881   1.626 -1.0478  0.6802 -0.1103
  148MOL   H16741621   0.394   1.870   1.360 -0.2684 -1.7046 -0.5566
  148MOL   H16841622   0.585   1.882   1.416 -1.8208 -2.2490 -0.5429
  148MOL   H16941623   0.799   1.876   1.518 -0.2966  1.6397 -0.9439
  148MOL   C17041624   0.178   1.892   1.361 -0.1091  0.8249 -0.2441
  148MOL   C17141625   0.169   1.929   1.228 -0.4449 -0.2140  0.3863
  148MOL   C17241626   0.042   1.905   1.162  0.7217  0.2302 -0.8741
  148MOL   C17341627   8.072   1.861   1.230  1.3014  0.4954  0.2122
  148MOL   C17441628   7.941   1.854   1.170 -0.3783  0.2150 -0.2104
  148MOL   C17541629   7.898   1.914   1.062  0.5206  0.4976  0.2243
  148MOL   C17641630   8.078   1.844   1.372 -0.1658 -0.1659  1.0110
  148MOL   C17741631   0.059   1.843   1.429  0.0330 -0.0587  0.2330
  148MOL   H17841632   0.252   1.972   1.173 -0.5876 -0.0819  0.2702
  148MOL   H17941633   0.029   1.926   1.057 -1.2697  3.4880 -0.0662
  148MOL   H18041634   7.879   1.787   1.229  1.0562 -0.9283  0.0260
  148MOL   H18141635   7.968   1.972   1.004  1.9798  0.3349  1.7879
  148MOL   H18241636   7.998   1.794   1.425 -1.9647  2.2826  0.6556
  148MOL   H18341637   0.058   1.815   1.533  0.9527 -0.2255  0.1985
  148MOL   C18441638   7.758   1.898   1.017 -0.3053 -0.7207  0.4078
  148MOL   C18541639   7.726   1.956   0.891  0.7491 -0.5039  0.2293
  148MOL   C18641640   7.593   1.938   0.832  0.3301  0.5437 -0.2270
  148MOL   C18741641   7.496   1.861   0.906  0.3090  0.3025  0.1431
  148MOL   C18841642   7.362   1.829   0.868  0.1425 -0.1126  0.1280
  148MOL   C18941643   7.304   1.848   0.744 -0.0841 -0.6379 -0.6151
  148MOL   C19041644   7.535   1.808   1.031  0.5437  0.3873 -0.2476
  148MOL   C19141645   7.660   1.827   1.088  0.5084  0.3517  0.4459
  148MOL   H19241646   7.792   2.021   0.836 -1.0484  0.0041 -1.3529
  148MOL   H19341647   7.566   1.975   0.734 -1.3688  1.7159  0.6506
  148MOL   H19441648   7.302   1.780   0.944 -1.2667 -0.8445 -1.4205
  148MOL   H19541649   7.364   1.903   0.673  2.1826  1.6304  2.9247
  148MOL   H19641650   7.459   1.762   1.092 -0.1527  0.2905 -1.1684
  148MOL   H19741651   7.671   1.786   1.187 -0.3868 -0.3247  0.2681
  148MOL   C19841652   7.172   1.804   0.690  0.3377  0.2795 -0.1312
  148MOL   C19941653   7.069   1.757   0.780 -0.2574  0.0558  0.0651
  148MOL   C20041654   6.944   1.722   0.728 -0.1594 -0.3523  0.6984
  148MOL   C20141655   6.922   1.714   0.589 -0.0000 -0.5400  0.3480
  148MOL   C20241656   6.797   1.666   0.526 -0.9190 -0.0112 -0.3499
  148MOL   C20341657   6.704   1.591   0.592  0.1095  0.0991  0.4737
  148MOL   C20441658   7.023   1.766   0.504 -0.0555 -0.0339 -1.0912
  148MOL   C20541659   7.149   1.806   0.553 -0.2288  0.6581  0.0105
  148MOL   H20641660   7.089   1.760   0.886 -0.1676  2.6299  0.0073
  148MOL   H20741661   6.862   1.704   0.797 -0.3523  1.0403  0.8570
  148MOL   H20841662   6.790   1.688   0.421  0.6700 -1.1128 -0.7203
  148MOL   H20941663   6.717   1.575   0.698 -3.0626  0.8987  1.0167
  148MOL   H21041664   6.991   1.780   0.402 -3.5771  2.2482  0.2053
  148MOL   H21141665   7.228   1.846   0.490  1.9842 -2.9141  0.3630
  148MOL   C21241666   6.579   1.549   0.534 -0.8857  1.2097  0.1258
  148MOL   C21341667   6.545   1.585   0.400  0.0837  0.1984  0.2514
  148MOL   C21441668   6.415   1.573   0.346 -0.4054  0.1704  0.3277
  148MOL   C21541669   6.324   1.497   0.418 -0.9285 -0.8169 -0.4787
  148MOL   C21641670   6.187   1.476   0.359  0.2478 -0.1422 -0.8696
  148MOL   C21741671   6.131   1.557   0.267  0.2386  0.1197 -0.9665
  148MOL   C21841672   6.366   1.447   0.544 -0.1462 -0.0388  0.1583
  148MOL   C21941673   6.491   1.469   0.601  0.5703  0.2264  0.0909
  148MOL   H22041674   6.614   1.634   0.334  1.4864 -0.1939  1.3922
  148MOL   H22141675   6.388   1.609   0.248 -1.6294  1.8159  1.2372
  148MOL   H22241676   6.122   1.397   0.396  0.9738 -0.3521 -0.0163
  148MOL   H22341677   6.187   1.631   0.212 -0.3168  1.0147 -0.3413
  148MOL   H22441678   6.299   1.383   0.600  0.6208 -1.8119 -0.8852
  148MOL   H22541679   6.505   1.422   0.697  2.8392 -2.7254 -1.6025
  148MOL   C22641680   5.989   1.545   0.227 -0.0234  0.0848 -0.1411
  148MOL   C22741681   5.964   1.597   0.103  0.6714 -0.5594  0.5544
  148MOL   C22841682   5.833   1.588   0.048  0.4573  0.3067  0.0222
  148MOL   C22941683   5.727   1.521   0.110 -0.2675  0.6362 -0.3702
  148MOL   C23041684   5.599   1.487   0.049  0.1228 -0.3935 -0.5108
  148MOL   C23141685   5.570   1.501   8.063 -0.1787  0.3917  0.4761
  148MOL   C23241686   5.758   1.465   0.237 -0.0183 -0.5969  0.3469
  148MOL   C23341687   5.885   1.475   0.293 -0.1139 -0.3022 -0.4306
  148MOL   H23441688   6.042   1.622   0.033 -0.2319  0.8386  0.0306
  148MOL   H23541689   5.827   1.615   8.088 -1.7125  0.0641  0.0642
  148MOL   H23641690   5.522   1.448   0.113  0.1923 -0.0442 -0.2096
  148MOL   H23741691   5.649   1.531   7.995  1.8684 -2.1081  1.6992
  148MOL   H23841692   5.679   1.417   0.293 -0.3643 -0.7972 -0.3088
  148MOL   H23941693   5.889   1.433   0.393 -3.4537  0.2006 -0.0276
  148MOL   C24041694   5.437   1.476   7.999 -0.6732  0.7044  0.5045
  148MOL   C24141695   5.340   1.408   8.074  0.1528  0.2937 -0.8228
  148MOL   C24241696   5.211   1.403   8.023 -0.0006 -0.1348  0.3359
  148MOL   C24341697   5.179   1.439   7.895 -0.2982 -0.2859 -0.1549
  148MOL   C24441698   5.044   1.415   7.836 -0.2756  0.4268  0.7721
  148MOL   C24541699   5.001   1.453   7.710 -0.0208  1.2950 -0.6710
  148MOL   C24641700   5.278   1.511   7.818 -0.0364 -0.0728 -0.0402
  148MOL   C24741701   5.403   1.529   7.879 -0.2423 -0.0829  1.1929
  148MOL   H24841702   5.350   1.374   0.032 -1.2006  0.9815 -0.4549
  148MOL   H24941703   5.132   1.361   8.084 -1.3228  0.5701 -0.8736
  148MOL   H25041704   4.976   1.358   7.898 -0.5438  0.2737  0.3350
  148MOL   H25141705   5.071   1.503   7.643  0.4545  2.9744  1.0233
  148MOL   H25241706   5.250   1.561   7.727  1.7705  1.9260  0.4487
  148MOL   H25341707   5.473   1.598   7.836 -0.1993  1.4403  3.5910
  148MOL   C25441708   4.861   1.424   7.658 -0.0117 -0.2491 -0.3523
  148MOL   C25541709   4.756   1.385   7.743 -0.1823  0.5853 -0.1427
  148MOL   C25641710   4.643   1.324   7.700 -1.0671  0.2294  0.0357
  148MOL   C25741711   4.620   1.316   7.563  0.0761  0.1895  0.5089
  148MOL   C25841712   4.496   1.259   7.512 -0.3060  0.8834 -0.4445
  148MOL   C25941713   4.420   1.153   7.555  0.9053 -0.3019 -0.7714
  148MOL   C26041714   4.715   1.369   7.475 -0.3504 -0.5529  0.3951
  148MOL   C26141715   4.835   1.426   7.519 -0.1233  0.3286 -0.0951
  148MOL   H26241716   4.780   1.381   7.849  0.5006  2.0915 -0.2173
  148MOL   H26341717   4.560   1.286   7.759 -0.7087  0.4510  0.6900
  148MOL   H26441718   4.467   1.311   7.422 -0.0832  0.5026 -0.7384
  148MOL   H26541719   4.331   1.131   7.500  1.4021  1.4899 -2.3401
  148MOL   H26641720   4.696   1.360   7.369  0.2752 -0.4931  0.2739
  148MOL   H26741721   4.916   1.465   7.459  0.8052  1.8441  2.0720
  148MOL   C26841722   4.459   1.061   7.657  0.3231 -0.2884  0.0101
  148MOL   C26941723   4.590   1.012   7.665 -0.0495 -0.3176  0.3486
  148MOL   C27041724   4.634   0.927   7.771  1.1107  0.0221 -0.2586
  148MOL   C27141725   4.539   0.874   7.862 -0.3298 -0.0897  0.0522
  148MOL   C27241726   4.585   0.773   7.960  0.2356  0.7051 -0.0221
  148MOL   C27341727   4.508   0.685   8.023 -0.7561  0.2760 -0.0740
  148MOL   C27441728   4.405   0.921   7.855  0.0114  0.2396  0.6569
  148MOL   C27541729   4.365   1.014   7.754  0.2882 -0.3751  0.0024
  148MOL   H27641730   4.664   1.048   7.595  1.7146 -4.4307  0.0110
  148MOL   H27741731   4.737   0.895   7.780  0.6147 -1.1594  1.4894
  148MOL   H27841732   4.688   0.773   7.990 -0.5612 -2.8577  3.1519
  148MOL   H27941733   4.402   0.672   8.003 -0.8533 -0.3489  0.7917
  148MOL   H28041734   4.328   0.887   7.922 -0.3178 -1.0170 -0.3360
  148MOL   H28141735   4.262   1.045   7.756  0.3940 -0.0352  0.1449
  148MOL   H28241736   4.557   0.622   8.096 -1.4667 -1.9549 -1.4480
  149MOL     C141737   1.692   5.516   6.522  0.0778 -0.1843 -0.0903
  149MOL     C241738   1.695   5.441   6.406  0.5288  0.5798 -0.0997
  149MOL     C341739   1.637   5.310   6.413  0.0568 -0.1598  0.2804
  149MOL     C441740   1.561   5.260   6.523 -0.2274  0.4299  0.1176
  149MOL     C541741   1.490   5.130   6.525  0.0271 -0.3494  0.7852
  149MOL     C641742   1.479   5.041   6.426  0.2555 -0.3965 -0.9160
  149MOL     C741743   1.564   5.342   6.641  0.3531 -0.1776  0.2627
  149MOL     C841744   1.630   5.464   6.636  0.3157 -0.3978 -0.1216
  149MOL     H941745   1.736   5.472   6.311 -1.6717  1.8267 -0.6772
  149MOL    H1041746   1.653   5.242   6.330 -2.0420  0.8407 -1.0036
  149MOL    H1141747   1.440   5.109   6.618  0.2323  1.8891  1.4238
  149MOL    H1241748   1.530   5.060   6.333  1.5534 -0.3801 -0.2109
  149MOL    H1341749   1.508   5.320   6.730 -2.3034 -2.8841 -1.9877
  149MOL    H1441750   1.643   5.521   6.727 -1.6074 -0.7971  0.4329
  149MOL    H1541751   1.746   5.609   6.510  0.8672 -0.6142  0.1850
  149MOL    C1641752   1.408   4.911   6.435 -0.3729  0.1139 -0.3965
  149MOL    C1741753   1.357   4.853   6.556  0.3496 -1.2716 -0.0380
  149MOL    C1841754   1.271   4.739   6.539  0.3177  0.2002  0.2277
  149MOL    C1941755   1.250   4.679   6.415  0.2546  0.0063  0.6283
  149MOL    C2041756   1.159   4.564   6.396 -0.0479  0.1242 -0.6908
  149MOL    C2141757   1.153   4.455   6.468 -0.7152  0.1695 -0.0145
  149MOL    C2241758   1.308   4.731   6.297  0.2353 -0.2282  0.2505
  149MOL    C2341759   1.380   4.851   6.313 -0.6254 -0.2875  0.6476
  149MOL    H2441760   1.378   4.896   6.653  0.0506  0.6867 -0.8245
  149MOL    H2541761   1.218   4.700   6.625 -0.5683  0.2458 -0.2831
  149MOL    H2641762   1.082   4.573   6.321 -0.3018  2.0964 -0.2167
  149MOL    H2741763   1.228   4.448   6.545  1.3955 -0.6528 -2.0651
  149MOL    H2841764   1.283   4.693   6.199  2.0167 -0.8479  0.0107
  149MOL    H2941765   1.415   4.898   6.222 -2.8043  1.8224  0.8649
  149MOL    C3041766   1.062   4.340   6.459 -0.4370 -0.6106 -0.3055
  149MOL    C3141767   1.088   4.217   6.528 -0.7950 -0.0435 -0.2797
  149MOL    C3241768   0.984   4.120   6.536 -0.2099  0.4022 -0.0160
  149MOL    C3341769   0.857   4.145   6.471  0.0728 -0.0228  0.3270
  149MOL    C3441770   0.745   4.051   6.471  0.3061  0.0077 -0.1227
  149MOL    C3541771   0.740   3.924   6.512 -0.1613 -0.3532 -0.1014
  149MOL    C3641772   0.839   4.257   6.390  0.3907  0.3300  0.4766
  149MOL    C3741773   0.944   4.348   6.375  0.3963 -0.0632 -0.4873
  149MOL    H3841774   1.178   4.194   6.583 -0.8045  2.5153  0.8277
  149MOL    H3941775   1.005   4.030   6.592  1.2189 -1.0237 -2.7395
  149MOL    H4041776   0.654   4.098   6.438 -1.8361 -1.1535  3.7942
  149MOL    H4141777   0.831   3.870   6.532  1.2115  1.4478 -1.3883
  149MOL    H4241778   0.744   4.274   6.342  0.3952  0.1510  0.4052
  149MOL    H4341779   0.924   4.433   6.312  1.8516  0.8139  0.2007
  149MOL    C4441780   0.613   3.851   6.533 -0.0156  0.3764 -0.8290
  149MOL    C4541781   0.615   3.709   6.525  0.0012 -0.3266  0.1830
  149MOL    C4641782   0.497   3.635   6.541  0.3776  0.2613 -0.6756
  149MOL    C4741783   0.371   3.705   6.561  0.8367 -0.1218 -0.0988
  149MOL    C4841784   0.248   3.619   6.585 -0.1769  0.0905 -0.2129
  149MOL    C4941785   0.229   3.494   6.622 -0.1116  0.2966 -0.1331
  149MOL    C5041786   0.370   3.842   6.558 -0.6846 -0.4357  0.0883
  149MOL    C5141787   0.491   3.915   6.547 -0.8242 -0.5114  0.1657
  149MOL    H5241788   0.708   3.656   6.512  0.2432  0.2187 -0.3006
  149MOL    H5341789   0.511   3.530   6.521  0.7888  0.1133  0.3569
  149MOL    H5441790   0.163   3.680   6.560 -1.0252 -0.0988  2.0541
  149MOL    H5541791   0.311   3.427   6.644 -2.0231 -1.7213  1.0417
  149MOL    H5641792   0.271   3.885   6.563 -1.6264 -2.4270 -0.9406
  149MOL    H5741793   0.475   4.021   6.557 -2.0536 -0.4604 -2.0874
  149MOL    C5841794   0.098   3.431   6.647 -0.1080  0.2926  0.7053
  149MOL    C5941795   8.130   3.512   6.667 -0.3577  0.3253 -0.5465
  149MOL    C6041796   8.002   3.450   6.693  1.0625 -0.0391 -0.0667
  149MOL    C6141797   7.987   3.311   6.702 -0.1818 -0.1271 -0.5004
  149MOL    C6241798   7.855   3.247   6.713 -0.3871  0.1737 -0.2285
  149MOL    C6341799   7.741   3.315   6.736  0.4022 -0.2299 -1.1366
  149MOL    C6441800   8.110   3.231   6.694  0.1110  0.2324  0.4176
  149MOL    C6541801   0.083   3.291   6.662 -0.4669 -0.6870  0.4317
  149MOL    H6641802   8.132   3.620   6.672 -0.3550  0.2669  0.7761
  149MOL    H6741803   7.911   3.509   6.701  0.4653 -1.0160  0.4894
  149MOL    H6841804   7.848   3.141   6.695  2.3536 -0.2893  1.2030
  149MOL    H6941805   7.751   3.420   6.759  2.7545 -0.3007 -1.7478
  149MOL    H7041806   8.108   3.123   6.706 -3.9755  0.2904  1.2433
  149MOL    H7141807   0.173   3.232   6.652  0.5603  0.9440 -0.2684
  149MOL    C7241808   7.598   3.265   6.723 -0.5064 -0.3712  0.3957
  149MOL    C7341809   7.487   3.353   6.723 -0.8418 -0.2506 -0.3242
  149MOL    C7441810   7.357   3.308   6.696 -0.0503 -0.2053 -0.8281
  149MOL    C7541811   7.328   3.170   6.673 -0.9440 -0.3522  0.9184
  149MOL    C7641812   7.194   3.116   6.638  0.0426 -0.2804  0.1309
  149MOL    C7741813   7.081   3.192   6.636 -0.3265 -0.3362  0.2300
  149MOL    C7841814   7.440   3.083   6.681  0.6678 -0.1801 -0.8999
  149MOL    C7941815   7.572   3.126   6.706  0.4314 -0.6004 -0.4132
  149MOL    H8041816   7.512   3.458   6.724 -2.4809  0.1612 -1.0316
  149MOL    H8141817   7.276   3.379   6.687  0.2862  0.0373 -1.9378
  149MOL    H8241818   7.181   3.010   6.617 -2.8971  0.2986 -1.2598
  149MOL    H8341819   7.085   3.295   6.669  0.4354 -0.6437  1.1395
  149MOL    H8441820   7.426   2.979   6.655 -0.3362 -0.0530 -0.8645
  149MOL    H8541821   7.654   3.055   6.703  0.3042 -0.7359 -0.7414
  149MOL    C8641822   6.951   3.140   6.588 -0.4179  0.2187  0.5659
  149MOL    C8741823   6.833   3.205   6.637 -0.8783  0.1517 -0.3378
  149MOL    C8841824   6.704   3.157   6.611 -0.4283 -0.3590  0.5706
  149MOL    C8941825   6.686   3.045   6.528 -0.5151 -0.0647 -0.0868
  149MOL    C9041826   6.551   2.991   6.496  0.0755 -0.1271  0.5811
  149MOL    C9141827   6.516   2.890   6.420 -0.4367 -0.0922  0.6294
  149MOL    C9241828   6.801   2.988   6.469 -1.4650 -0.1204  0.6672
  149MOL    C9341829   6.933   3.033   6.499 -0.8311  0.6059 -0.8211
  149MOL    H9441830   6.845   3.301   6.685 -0.4863 -0.1360  0.1388
  149MOL    H9541831   6.619   3.212   6.648 -0.2800  0.0625  0.2877
  149MOL    H9641832   6.474   3.049   6.545 -1.3494  0.7639 -2.5796
  149MOL    H9741833   6.595   2.833   6.375  1.3468  1.5886  1.5758
  149MOL    H9841834   6.796   2.904   6.401  0.9741  0.9190 -0.8451
  149MOL    H9941835   7.023   2.984   6.463 -0.1575  0.8704  0.4444
  149MOL   C10041836   6.382   2.843   6.399  0.8169 -0.2321  0.1042
  149MOL   C10141837   6.280   2.879   6.489 -0.2552  0.2714  0.0509
  149MOL   C10241838   6.153   2.824   6.473 -0.7720 -0.5869  0.8145
  149MOL   C10341839   6.120   2.748   6.360 -0.5926 -0.2965 -0.0097
  149MOL   C10441840   5.984   2.698   6.333 -0.3488 -0.1028 -0.3943
  149MOL   C10541841   5.949   2.576   6.278 -0.3338  0.3809 -0.0268
  149MOL   C10641842   6.221   2.711   6.274 -0.3308 -0.2682 -0.3127
  149MOL   C10741843   6.356   2.758   6.291  0.5059  0.1456  0.3128
  149MOL   H10841844   6.294   2.945   6.572  1.1469  2.2564 -1.7174
  149MOL   H10941845   6.070   2.857   6.533 -0.2947  0.5714  0.8524
  149MOL   H11041846   5.906   2.770   6.351  0.2965  1.2304 -2.7473
  149MOL   H11141847   6.022   2.503   6.248  0.6828  0.6074  1.8681
  149MOL   H11241848   6.205   2.659   6.181 -0.4359 -0.4771 -0.1781
  149MOL   H11341849   6.430   2.733   6.217 -0.1199  1.4587 -0.7724
  149MOL   C11441850   5.805   2.528   6.270 -0.1260  0.1063 -0.5713
  149MOL   C11541851   5.707   2.584   6.356 -0.5731  0.3063 -0.1510
  149MOL   C11641852   5.574   2.536   6.352  0.3304 -0.5104 -0.2686
  149MOL   C11741853   5.535   2.442   6.256  0.5670 -0.5421 -0.5141
  149MOL   C11841854   5.396   2.388   6.264  0.0147  0.2699 -0.4161
  149MOL   C11941855   5.354   2.278   6.206  0.7128  0.4446  0.0776
  149MOL   C12041856   5.625   2.392   6.165 -0.3482 -0.0549  0.0975
  149MOL   C12141857   5.759   2.435   6.176 -0.1074 -0.1897 -0.4030
  149MOL   H12241858   5.721   2.668   6.423 -1.7987 -1.2545  2.1525
  149MOL   H12341859   5.498   2.565   6.423  0.8398 -0.5394  0.2954
  149MOL   H12441860   5.323   2.442   6.322  2.0191  0.8409  1.6662
  149MOL   H12541861   5.428   2.222   6.152 -0.7048 -0.0877 -1.3579
  149MOL   H12641862   5.593   2.312   6.099  1.2737 -1.6032  1.1432
  149MOL   H12741863   5.829   2.397   6.103 -0.5908  0.5977 -1.2931
  149MOL   C12841864   5.216   2.226   6.206  0.1684  0.0162  0.2572
  149MOL   C12941865   5.119   2.270   6.303  0.2885 -0.7291  0.0456
  149MOL   C13041866   4.988   2.224   6.302  0.0989 -0.0777  0.1071
  149MOL   C13141867   4.948   2.129   6.211 -0.1717 -0.1876  1.5560
  149MOL   C13241868   4.808   2.088   6.203 -0.1219 -0.1837 -0.4223
  149MOL   C13341869   4.748   2.032   6.095 -0.2542  0.4170 -0.1985
  149MOL   C13441870   5.046   2.083   6.113 -0.4173  0.4530 -0.3061
  149MOL   C13541871   5.177   2.138   6.105 -0.3196  0.4803 -1.0527
  149MOL   H13641872   5.140   2.348   6.375 -1.1569 -1.5967  1.4570
  149MOL   H13741873   4.914   2.263   6.370  0.8070  1.3540  0.0595
  149MOL   H13841874   4.749   2.107   6.291 -1.2140 -1.2055 -0.9084
  149MOL   H13941875   4.806   2.009   6.007  1.7088  0.9911  0.8957
  149MOL   H14041876   5.017   2.003   6.047  1.6134  0.5784 -1.3889
  149MOL   H14141877   5.240   2.087   6.034 -2.8805 -0.1620 -2.9436
  149MOL   C14241878   4.609   1.999   6.094 -0.0422  0.5616  0.5468
  149MOL   C14341879   4.519   2.063   6.185 -0.4495  0.6983 -0.3626
  149MOL   C14441880   4.384   2.022   6.194 -0.2673 -0.5485 -0.1205
  149MOL   C14541881   4.330   1.924   6.104  0.0158 -0.3707  0.6294
  149MOL   C14641882   4.189   1.893   6.121  0.0198 -0.2157 -0.1836
  149MOL   C14741883   4.127   1.786   6.068 -0.7870  0.5284 -0.0880
  149MOL   C14841884   4.421   1.869   6.002 -0.5815  0.4081 -0.2465
  149MOL   C14941885   4.556   1.905   6.001 -0.0479  0.4183 -0.3063
  149MOL   H15041886   4.542   2.150   6.246  1.5316 -1.3126  1.8649
  149MOL   H15141887   4.317   2.060   6.269 -0.4092 -0.8984 -0.0662
  149MOL   H15241888   4.134   1.972   6.171  1.0894  0.5036 -0.1389
  149MOL   H15341889   4.189   1.716   6.015  0.8406  1.0398  1.0808
  149MOL   H15441890   4.387   1.801   5.925  1.6885  1.6732 -2.4806
  149MOL   H15541891   4.620   1.857   5.928 -1.4615  2.3690 -2.9226
  149MOL   C15641892   3.985   1.763   6.081  0.4312 -0.0766  0.2263
  149MOL   C15741893   3.936   1.637   6.112 -0.4117  0.1221  0.1664
  149MOL   C15841894   3.811   1.623   6.178  0.7030 -0.4645  0.4345
  149MOL   C15941895   3.724   1.734   6.177 -0.8177  0.6635  0.7175
  149MOL   C16041896   3.595   1.712   6.238  0.5787  0.3990 -0.4266
  149MOL   C16141897   3.519   1.809   6.296 -0.4264 -0.1532 -0.7807
  149MOL   C16241898   3.775   1.858   6.140  0.3943  0.2744  0.6845
  149MOL   C16341899   3.906   1.873   6.094 -0.5280 -0.7525 -0.4496
  149MOL   H16441900   4.006   1.555   6.102 -0.7544  0.1048 -2.3732
  149MOL   H16541901   3.775   1.529   6.217 -0.4190 -0.1184  0.2687
  149MOL   H16641902   3.555   1.612   6.231 -0.3737  0.7130  0.4125
  149MOL   H16741903   3.555   1.910   6.312  3.8925 -1.4023 -1.8079
  149MOL   H16841904   3.713   1.947   6.143 -0.6454 -0.4039 -0.2657
  149MOL   H16941905   3.943   1.974   6.084 -0.4637  0.0164  5.6184
  149MOL   C17041906   3.387   1.793   6.362  0.1747  0.4519 -0.0444
  149MOL   C17141907   3.328   1.901   6.436 -0.4400  1.3426 -0.6470
  149MOL   C17241908   3.214   1.879   6.517 -0.4425  0.6114 -0.3913
  149MOL   C17341909   3.155   1.755   6.516 -0.1219  0.8045 -0.2914
  149MOL   C17441910   3.034   1.730   6.598  0.4864  0.3470 -0.0358
  149MOL   C17541911   2.963   1.815   6.667  0.0453 -0.8162 -0.1031
  149MOL   C17641912   3.195   1.655   6.429 -0.0949  0.0305  0.7326
  149MOL   C17741913   3.310   1.672   6.352 -0.1198 -0.1371 -0.7518
  149MOL   H17841914   3.381   1.995   6.429  1.9278  0.2125  1.5598
  149MOL   H17941915   3.182   1.965   6.576 -1.1775  0.0771 -0.0017
  149MOL   H18041916   3.002   1.627   6.597  1.4282  0.0310  1.6071
  149MOL   H18141917   2.997   1.917   6.656  1.6690 -1.0904  1.9731
  149MOL   H18241918   3.159   1.553   6.431  1.1812 -0.4246  2.9133
  149MOL   H18341919   3.344   1.585   6.299  1.5090  1.4828 -2.4497
  149MOL   C18441920   2.852   1.775   6.750  0.3760  0.0513 -0.0313
  149MOL   C18541921   2.804   1.643   6.752 -0.1991 -0.2433  0.3819
  149MOL   C18641922   2.692   1.607   6.830  0.2927  0.5725  0.3681
  149MOL   C18741923   2.632   1.699   6.913  0.6247 -0.4587  0.0954
  149MOL   C18841924   2.527   1.656   7.004  0.1413 -0.2220  0.2305
  149MOL   C18941925   2.474   1.720   7.106  0.9017  0.2788 -0.7094
  149MOL   C19041926   2.680   1.836   6.916 -0.3900 -0.0678  0.1403
  149MOL   C19141927   2.790   1.869   6.827  0.4249 -0.6903  0.5792
  149MOL   H19241928   2.854   1.568   6.693  0.3639 -0.9396  1.7219
  149MOL   H19341929   2.647   1.509   6.823  1.7273  0.0424 -1.8360
  149MOL   H19441930   2.494   1.555   6.983  0.5078  0.0933 -1.9685
  149MOL   H19541931   2.509   1.816   7.139 -2.6086  1.4351 -0.2701
  149MOL   H19641932   2.631   1.906   6.982 -0.2860 -1.7864  2.0855
  149MOL   H19741933   2.828   1.969   6.827  3.9396 -1.9559  0.7769
  149MOL   C19841934   2.371   1.658   7.190 -0.3744 -0.0576  0.9880
  149MOL   C19941935   2.274   1.567   7.137 -0.4466  0.5837 -0.5273
  149MOL   C20041936   2.171   1.520   7.221 -0.2948  0.1607 -0.7627
  149MOL   C20141937   2.167   1.541   7.359  0.0045 -0.8456 -0.3966
  149MOL   C20241938   2.053   1.506   7.441 -0.2567  0.2039  0.3502
  149MOL   C20341939   1.969   1.401   7.423  1.0551  0.7664 -0.1510
  149MOL   C20441940   2.264   1.628   7.408 -0.1357  0.5502 -0.5231
  149MOL   C20541941   2.362   1.689   7.327  0.0272 -0.1682 -0.1572
  149MOL   H20641942   2.274   1.534   7.034 -0.5828  1.7827 -0.9160
  149MOL   H20741943   2.091   1.457   7.187 -0.9335 -1.2045  3.0366
  149MOL   H20841944   2.043   1.571   7.527 -1.0211 -1.8449  1.8510
  149MOL   H20941945   1.988   1.333   7.341 -0.3957  1.0115 -0.6941
  149MOL   H21041946   2.251   1.660   7.510 -0.4409  0.8866 -0.6662
  149MOL   H21141947   2.431   1.753   7.380 -2.0821  0.5848  1.7600
  149MOL   C21241948   1.866   1.349   7.519 -0.5861  0.7455 -0.0947
  149MOL   C21341949   1.827   1.407   7.643  0.7874  0.2832 -0.7381
  149MOL   C21441950   1.716   1.353   7.716  0.2804 -0.1948 -0.4456
  149MOL   C21541951   1.644   1.239   7.665  0.6889  0.0496  0.2627
  149MOL   C21641952   1.521   1.183   7.725  0.2257  0.0085 -0.1777
  149MOL   C21741953   1.465   1.215   7.843 -0.5776 -0.1380 -0.7205
  149MOL   C21841954   1.681   1.184   7.539  0.1610 -0.6090  0.3420
  149MOL   C21941955   1.798   1.232   7.481  1.4498  0.2107 -0.2530
  149MOL   H22041956   1.871   1.496   7.687  0.9270 -1.0508  1.9433
  149MOL   H22141957   1.683   1.393   7.810 -0.1856 -0.6139 -0.4262
  149MOL   H22241958   1.476   1.110   7.660 -0.9130  1.6945 -1.3147
  149MOL   H22341959   1.519   1.281   7.909  0.2925  0.7676 -2.3288
  149MOL   H22441960   1.629   1.101   7.494  0.6565  0.1675 -1.7475
  149MOL   H22541961   1.828   1.184   7.390  0.0688 -1.5309  0.1830
  149MOL   C22641962   1.353   1.157   7.908  0.4867  0.0853 -0.2149
  149MOL   C22741963   1.300   1.230   8.016 -0.3993 -0.3707 -0.4298
  149MOL   C22841964   1.187   1.182   8.086 -0.1428 -0.0008  0.1439
  149MOL   C22941965   1.129   1.058   8.047  0.0693 -0.2172  0.0319
  149MOL   C23041966   1.001   1.021   8.108  0.4054 -0.0523 -0.3869
  149MOL   C23141967   0.920   0.923   8.066 -0.3544 -0.3747  0.5333
  149MOL   C23241968   1.188   0.981   7.943 -0.7087  0.4392  0.0340
  149MOL   C23341969   1.305   1.025   7.877  0.9457  0.1921 -0.1332
  149MOL   H23441970   1.351   1.320   8.047 -1.2675 -0.1024  0.2463
  149MOL   H23541971   1.142   1.242   0.019  2.5785  0.7351  1.1798
  149MOL   H23641972   0.974   1.082   0.048  1.9083 -1.0413  0.8422
  149MOL   H23741973   0.941   0.856   7.984  0.2328  0.1898  0.2226
  149MOL   H23841974   1.153   0.883   7.917  1.1564 -0.2437  0.0131
  149MOL   H23941975   1.344   0.967   7.795  0.9688 -2.0004  1.3725
  149MOL   C24041976   0.787   0.894   8.114  0.0388  0.6591  0.3444
  149MOL   C24141977   0.741   0.760   8.121 -0.0364 -0.0098 -0.6752
  149MOL   C24241978   0.618   0.730   0.034  0.0480  0.2725  0.3376
  149MOL   C24341979   0.542   0.834   0.097  0.1332  0.6178 -0.0315
  149MOL   C24441980   0.411   0.810   0.153 -0.1362  0.2213  0.6232
  149MOL   C24541981   0.333   0.701   0.134 -0.1920 -0.1482 -0.4168
  149MOL   C24641982   0.599   0.965   0.103  0.1580 -0.4014  0.8656
  149MOL   C24741983   0.717   1.000   0.037  0.2231  0.1207  0.8154
  149MOL   H24841984   0.790   0.676   8.074 -1.1732 -0.6587 -0.7044
  149MOL   H24941985   0.584   0.627   0.026 -0.1113  0.2278  1.5104
  149MOL   H25041986   0.370   0.895   0.205 -0.0473  1.2885 -1.0128
  149MOL   H25141987   0.380   0.616   0.088 -0.1213 -1.3256  1.7509
  149MOL   H25241988   0.546   1.037   0.163  0.0415 -0.0378  0.3303
  149MOL   H25341989   0.749   1.103   0.038 -0.8459  0.4424  2.2698
  149MOL   C25441990   0.195   0.683   0.181  0.2811 -0.1629 -0.9961
  149MOL   C25541991   0.131   0.555   0.174  0.4198  0.0500  0.0513
  149MOL   C25641992   8.135   0.545   0.207  0.3153 -0.0169  0.8074
  149MOL   C25741993   8.065   0.659   0.252 -0.6726 -0.0765  0.2825
  149MOL   C25841994   7.919   0.652   0.278  0.0563  0.2149  0.1228
  149MOL   C25941995   7.856   0.575   0.370  0.3300  0.8860  0.1258
  149MOL   C26041996   8.135   0.773   0.271  0.3418 -0.1801 -0.0889
  149MOL   C26141997   0.126   0.788   0.235  0.5400  0.1389  0.1071
  149MOL   H26241998   0.180   0.466   0.140  2.1285  0.1486  2.1027
  149MOL   H26341999   8.077   0.454   0.199 -3.2301  2.1304  1.3946
  149MOL   H26442000   7.857   0.716   0.217  0.2111  0.5953  0.3627
  149MOL   H26542001   7.748   0.579   0.381  0.5112  1.5156  1.9222
  149MOL   H26642002   8.089   0.855   0.324 -0.2572  0.8214 -2.0961
  149MOL   H26742003   0.164   0.887   0.256 -0.0194  0.0085  1.8088
  149MOL   C26842004   7.913   0.490   0.469 -0.3241 -0.1021 -0.3440
  149MOL   C26942005   7.831   0.391   0.514  0.3419  0.3840  0.5290
  149MOL   C27042006   7.880   0.290   0.601  0.0327  0.1792 -0.0773
  149MOL   C27142007   8.017   0.288   0.646 -0.1025  0.0178  0.4380
  149MOL   C27242008   8.058   0.196   0.748 -0.5322  0.0269 -0.1579
  149MOL   C27342009   0.036   0.185   0.796 -0.3124  0.5243 -0.0994
  149MOL   C27442010   8.102   0.386   0.587 -0.1484  0.2714  0.0292
  149MOL   C27542011   8.047   0.497   0.517  0.4364 -0.2067  0.1625
  149MOL   H27642012   7.731   0.379   0.475  0.8620 -3.2775  0.1309
  149MOL   H27742013   7.817   0.207   0.628 -0.5155  0.8275  0.6984
  149MOL   H27842014   7.983   0.135   0.795  0.5470 -1.4244 -0.2768
  149MOL   H27942015   0.119   0.243   0.760  0.4954  0.1314  1.0998
  149MOL   H28042016   0.058   0.402   0.622 -0.0439  0.1906 -0.2337
  149MOL   H28142017   8.096   0.593   0.515 -1.0971  0.5860 -0.9616
  149MOL   H28242018   0.049   0.115   0.877 -3.7582  1.6089  1.5107
  150MOL     C142019   5.286   0.667   1.590  0.6730  0.3640  0.5042
  150MOL     C242020   5.304   0.531   1.623  0.1952 -0.1278  0.7726
  150MOL     C342021   5.403   0.493   1.720 -0.1242  0.5294 -0.1371
  150MOL     C442022   5.504   0.585   1.763  0.6038  1.1673  0.0959
  150MOL     C542023   5.619   0.536   1.847 -0.1359  0.0844 -0.0338
  150MOL     C642024   5.715   0.615   1.901 -0.2545 -0.4619 -0.4008
  150MOL     C742025   5.480   0.723   1.728  0.0034  0.1023  0.6487
  150MOL     C842026   5.374   0.760   1.644  0.4858  0.9705  0.3787
  150MOL     H942027   5.234   0.461   1.581 -0.1752  1.2942 -1.0377
  150MOL    H1042028   5.410   0.388   1.745  1.2787  0.7191  0.2928
  150MOL    H1142029   5.617   0.432   1.875 -1.2548  0.6390  2.0579
  150MOL    H1242030   5.707   0.719   1.871 -0.3816 -1.0424 -2.4860
  150MOL    H1342031   5.550   0.795   1.768  2.1264 -1.1316 -0.7578
  150MOL    H1442032   5.365   0.864   1.617 -1.4391  0.7175  0.0094
  150MOL    H1542033   5.216   0.705   1.517  0.2413  1.1970  1.3258
  150MOL    C1642034   5.828   0.562   1.981 -0.4630  0.3307  0.1442
  150MOL    C1742035   5.850   0.425   2.017 -0.2017 -0.1594 -0.2259
  150MOL    C1842036   5.962   0.388   2.101  0.7660 -0.3702  0.0446
  150MOL    C1942037   6.047   0.491   2.151 -0.7997  0.2062  0.0548
  150MOL    C2042038   6.163   0.455   2.235  0.5258 -0.1051 -0.4782
  150MOL    C2142039   6.255   0.540   2.279 -0.5819 -0.6528  0.5019
  150MOL    C2242040   6.015   0.626   2.127 -0.2119 -0.2445 -0.0843
  150MOL    C2342041   5.911   0.660   2.040 -0.5899 -0.7351  0.2158
  150MOL    H2442042   5.791   0.347   1.972  0.5651 -0.7421 -0.2428
  150MOL    H2542043   5.980   0.284   2.123  0.4331 -0.8112 -1.7025
  150MOL    H2642044   6.168   0.348   2.246 -2.6789 -0.0902  1.8981
  150MOL    H2742045   6.247   0.647   2.268  2.8497 -0.3100  0.6053
  150MOL    H2842046   6.074   0.706   2.169  1.3657 -1.5829  0.2856
  150MOL    H2942047   5.901   0.766   2.021  0.9217 -0.3727  1.3246
  150MOL    C3042048   6.388   0.494   2.331 -0.3054  0.2718 -0.2113
  150MOL    C3142049   6.461   0.583   2.413  1.0297  0.1412 -0.4557
  150MOL    C3242050   6.589   0.547   2.464  0.0394 -0.2557  0.5230
  150MOL    C3342051   6.654   0.435   2.418 -0.2648  0.4440 -0.0509
  150MOL    C3442052   6.786   0.393   2.465  0.0125  0.8295  0.3226
  150MOL    C3542053   6.846   0.454   2.568  0.0694  0.3458  0.4771
  150MOL    C3642054   6.585   0.351   2.337 -0.0909  0.1790  0.0674
  150MOL    C3742055   6.455   0.375   2.298  0.2373  0.0744  0.1314
  150MOL    H3842056   6.412   0.674   2.442  0.8392 -0.0412 -0.1999
  150MOL    H3942057   6.624   0.625   2.530 -1.9023  2.5145 -1.5373
  150MOL    H4042058   6.839   0.314   2.414  0.1352  2.4666 -2.1447
  150MOL    H4142059   6.800   0.531   2.628  1.1805  0.0053  1.7923
  150MOL    H4242060   6.624   0.257   2.301  1.6352  1.1679 -0.6763
  150MOL    H4342061   6.415   0.300   2.232  0.3892 -0.0021  0.1261
  150MOL    C4442062   6.982   0.419   2.621 -0.2913  0.7071 -0.1050
  150MOL    C4542063   7.060   0.304   2.590  0.1737 -0.1583 -0.0313
  150MOL    C4642064   7.193   0.283   2.639 -0.2044  0.3875 -0.4701
  150MOL    C4742065   7.252   0.379   2.727  0.2203  0.0340 -0.3895
  150MOL    C4842066   7.379   0.361   2.802  0.8633  0.0515 -0.2725
  150MOL    C4942067   7.478   0.270   2.782  0.7743 -0.0320 -0.0183
  150MOL    C5042068   7.182   0.505   2.744  0.1823  0.7885  0.1969
  150MOL    C5142069   7.049   0.514   2.696 -0.4814 -0.5702 -0.2356
  150MOL    H5242070   7.017   0.227   2.527  1.2351 -3.3785  3.0150
  150MOL    H5342071   7.237   0.186   2.621 -0.0042  0.4920 -0.5470
  150MOL    H5442072   7.395   0.438   2.876 -2.3957 -0.4181  0.9762
  150MOL    H5542073   7.466   0.204   2.697  2.2688  0.6987 -0.8170
  150MOL    H5642074   7.222   0.572   2.818  0.7738 -0.3719  0.9401
  150MOL    H5742075   7.007   0.613   2.709 -0.1209 -0.5304  0.7449
  150MOL    C5842076   7.602   0.260   2.856 -0.5853 -0.2237  0.7052
  150MOL    C5942077   7.626   0.309   2.987 -0.4349 -0.5658 -0.5749
  150MOL    C6042078   7.758   0.303   3.045  0.4220 -0.3195  0.2903
  150MOL    C6142079   7.855   0.225   2.978  0.0664  0.5217  0.6543
  150MOL    C6242080   7.987   0.191   3.037  0.5377 -0.0465  0.3407
  150MOL    C6342081   8.044   0.269   3.125  0.0746  0.5672  0.0412
  150MOL    C6442082   7.837   0.181   2.853 -0.3483  0.1324 -1.3638
  150MOL    C6542083   7.714   0.196   2.792  0.0870 -0.2134 -0.1810
  150MOL    H6642084   7.551   0.373   3.031  0.8061  2.2725 -2.4018
  150MOL    H6742085   7.779   0.330   3.147 -3.1745 -3.1863  1.8886
  150MOL    H6842086   8.036   0.101   3.005 -0.6700  0.0823 -1.9606
  150MOL    H6942087   7.997   0.360   3.160 -2.0791 -0.8407  0.8590
  150MOL    H7042088   7.910   0.118   2.805 -0.0912  0.8181 -1.8714
  150MOL    H7142089   7.711   0.155   2.692 -0.1441  1.0175 -0.6885
  150MOL    C7242090   0.030   0.236   3.191 -0.1605 -0.2764  0.5171
  150MOL    C7342091   0.120   0.339   3.210 -0.0700  0.1416 -0.0904
  150MOL    C7442092   0.243   0.326   3.277 -0.2597 -0.2010 -0.4391
  150MOL    C7542093   0.282   0.201   3.317 -0.5901 -0.3435 -0.0636
  150MOL    C7642094   0.416   0.190   3.377 -0.4848  0.0961  0.1423
  150MOL    C7742095   0.474   0.079   3.430  0.5024  0.5669 -0.2016
  150MOL    C7842096   0.197   0.087   3.301  0.6302 -0.1250 -0.1418
  150MOL    C7942097   0.072   0.104   3.231  0.1624  0.0703 -0.2310
  150MOL    H8042098   0.098   0.440   3.178  0.1403 -0.4130 -1.9927
  150MOL    H8142099   0.296   0.418   3.297  1.9200 -1.6100  0.5023
  150MOL    H8242100   0.475   0.281   3.371 -0.4192  0.0104 -0.6396
  150MOL    H8342101   0.408   8.140   3.450  1.3933  0.4120  2.2583
  150MOL    H8442102   0.234   8.135   3.335 -1.4486 -0.1107  2.2336
  150MOL    H8542103   0.011   0.018   3.206  0.5728 -0.3163  0.0790
  150MOL    C8642104   0.616   0.055   3.464 -0.7097  0.1401  0.1852
  150MOL    C8742105   0.725   0.141   3.433 -0.5662 -0.1978 -0.0409
  150MOL    C8842106   0.859   0.114   3.480  0.0711  0.3523  0.5077
  150MOL    C8942107   0.883   8.140   3.549  0.5559 -0.7708  0.2218
  150MOL    C9042108   1.019   8.108   3.591  0.2513 -0.4919 -0.5714
  150MOL    C9142109   1.067   7.984   3.602  0.7410 -0.3029 -0.1896
  150MOL    C9242110   0.772   8.059   3.578 -0.0339 -0.0281 -0.3150
  150MOL    C9342111   0.641   8.088   3.543  0.6472 -0.1310 -0.4066
  150MOL    H9442112   0.713   0.225   3.367 -1.7857  0.5020  1.0298
  150MOL    H9542113   0.946   0.168   3.447 -1.2487  2.6088  0.6227
  150MOL    H9642114   1.087   0.046   3.609  0.3712 -0.4879 -1.0406
  150MOL    H9742115   0.995   7.909   3.573  0.8408 -1.1687  1.7521
  150MOL    H9842116   0.787   7.968   3.633 -3.4971 -0.9345 -0.7565
  150MOL    H9942117   0.565   8.016   3.568  0.3107  0.1886 -0.5080
  150MOL   C10042118   1.200   7.949   3.650  0.0161  0.3811 -0.6984
  150MOL   C10142119   1.266   7.852   3.572  0.5887  0.1922  0.5244
  150MOL   C10242120   1.399   7.814   3.601  0.1049  0.1930  0.2925
  150MOL   C10342121   1.468   7.878   3.706 -0.0044  0.2379 -0.1556
  150MOL   C10442122   1.604   7.832   3.747  0.5654 -0.4623 -0.1421
  150MOL   C10542123   1.653   7.839   3.872  0.1389  0.5816 -0.1346
  150MOL   C10642124   1.406   7.986   3.776 -0.3392  0.0845 -0.4649
  150MOL   C10742125   1.269   8.018   3.751  0.2225  0.0404  0.1177
  150MOL   H10842126   1.224   7.807   3.484  0.7837  0.1302  0.4635
  150MOL   H10942127   1.447   7.730   3.555  0.3541  1.1172 -1.1598
  150MOL   H11042128   1.667   7.781   3.675 -0.1491  0.9202 -1.7667
  150MOL   H11142129   1.597   7.898   3.944 -0.0980 -0.6901  0.7258
  150MOL   H11242130   1.454   8.046   3.852  0.8176 -1.8466  0.3431
  150MOL   H11342131   1.214   8.091   3.809  1.5429 -0.7033  2.3816
  150MOL   C11442132   1.780   7.787   3.923  0.7633 -0.6019 -0.4715
  150MOL   C11542133   1.852   7.699   3.846 -0.5956 -0.8104  0.7124
  150MOL   C11642134   1.981   7.647   3.887 -0.5523 -0.3919  0.2065
  150MOL   C11742135   2.032   7.679   4.017  0.9998 -0.0973  0.2542
  150MOL   C11842136   2.165   7.633   4.067 -0.0536  0.5081 -0.3386
  150MOL   C11942137   2.259   7.554   4.005  0.2677  0.4322 -0.0093
  150MOL   C12042138   1.953   7.771   4.097 -0.0088 -0.6857  0.1175
  150MOL   C12142139   1.835   7.823   4.046  0.5914 -0.1592  0.2420
  150MOL   H12242140   1.813   7.660   3.753  0.9184  2.1880 -1.2531
  150MOL   H12342141   2.041   7.581   3.826  1.2648  1.0263  0.4091
  150MOL   H12442142   2.185   7.667   4.167 -2.3292  2.9986 -0.6645
  150MOL   H12542143   2.236   7.523   3.904 -1.1978  0.1939  0.3772
  150MOL   H12642144   1.979   7.793   4.199  0.1813 -1.1749  0.1750
  150MOL   H12742145   1.778   7.885   4.114  0.7669 -0.8021  0.9752
  150MOL   C12842146   2.387   7.504   4.059 -0.5808  0.1654 -0.0049
  150MOL   C12942147   2.440   7.553   4.182  1.0022 -0.1496  0.3401
  150MOL   C13042148   2.559   7.502   4.227  0.0429  0.1016 -0.2682
  150MOL   C13142149   2.621   7.385   4.162 -0.3923 -0.1984 -0.9470
  150MOL   C13242150   2.743   7.323   4.215 -0.3700 -0.0513 -0.1752
  150MOL   C13342151   2.814   7.216   4.167  0.3575  0.0747  0.1808
  150MOL   C13442152   2.554   7.330   4.050  0.3479 -0.2473  0.5797
  150MOL   C13542153   2.446   7.397   3.993  0.0890  0.3810  0.3723
  150MOL   H13642154   2.395   7.636   4.236 -0.0009 -0.0481 -0.6491
  150MOL   H13742155   2.601   7.541   4.319 -0.1968  2.0136 -0.9473
  150MOL   H13842156   2.792   7.377   4.295  1.4173  1.0094 -1.9483
  150MOL   H13942157   2.765   7.160   4.089  0.3953 -2.5509  1.9503
  150MOL   H14042158   2.590   7.243   3.997 -1.2619 -0.7757  0.3227
  150MOL   H14142159   2.398   7.361   3.903 -3.1234  1.6039  1.5373
  150MOL   C14242160   2.943   7.156   4.201 -0.1962 -0.3618 -0.8311
  150MOL   C14342161   2.987   7.034   4.146  0.3517  0.3837  0.2693
  150MOL   C14442162   3.108   6.977   4.182 -0.4070 -0.0826  0.6122
  150MOL   C14542163   3.195   7.036   4.277 -0.2161 -0.5687  0.7292
  150MOL   C14642164   3.326   6.980   4.316  0.2476  0.8179  0.4128
  150MOL   C14742165   3.388   6.874   4.266  0.3943 -0.0780  0.1173
  150MOL   C14842166   3.152   7.164   4.330  0.5777  0.2093 -0.3345
  150MOL   C14942167   3.020   7.220   4.305  0.0666 -0.0138 -0.3351
  150MOL   H15042168   2.931   6.973   4.077  1.0906 -1.7010  1.4768
  150MOL   H15142169   3.135   6.883   4.138 -0.7011  0.1062  0.0227
  150MOL   H15242170   3.376   7.028   4.400  0.6841  1.2628 -0.0986
  150MOL   H15342171   3.351   6.814   4.184  0.9551 -0.1063 -0.1183
  150MOL   H15442172   3.216   7.223   4.395  0.4864 -0.4285  0.3443
  150MOL   H15542173   2.976   7.300   4.362 -2.3549 -1.7426  0.2791
  150MOL   C15642174   3.518   6.824   4.306 -0.3912  0.2338  0.2974
  150MOL   C15742175   3.617   6.903   4.370  0.1738 -0.2584  0.0736
  150MOL   C15842176   3.734   6.845   4.407 -0.6976  0.3117 -0.3248
  150MOL   C15942177   3.749   6.703   4.407 -0.0801 -0.9761 -0.1692
  150MOL   C16042178   3.871   6.647   4.472  0.3945  0.0739  0.4035
  150MOL   C16142179   3.933   6.535   4.436 -0.6018  0.4835  0.0713
  150MOL   C16242180   3.652   6.618   4.351 -0.0637 -0.2221  0.7415
  150MOL   C16342181   3.542   6.681   4.291 -0.4415 -0.1431  0.2338
  150MOL   H16442182   3.605   7.010   4.375 -2.3281 -0.2834 -3.5824
  150MOL   H16542183   3.814   6.902   4.451 -0.6367 -0.8233  1.0736
  150MOL   H16642184   3.910   6.698   4.558 -1.2870  0.1287  1.1551
  150MOL   H16742185   3.888   6.480   4.355 -0.7670  1.7889 -0.7405
  150MOL   H16842186   3.645   6.510   4.351 -1.0731 -0.1603  0.7745
  150MOL   H16942187   3.463   6.620   4.250 -1.4777 -0.6483  2.8735
  150MOL   C17042188   4.053   6.478   4.496  0.4519 -0.2405 -0.5570
  150MOL   C17142189   4.127   6.545   4.592  0.3878 -0.0980  0.2657
  150MOL   C17242190   4.235   6.479   4.654  0.1320 -0.5292  0.0214
  150MOL   C17342191   4.272   6.346   4.627 -0.4784 -0.3456 -0.0586
  150MOL   C17442192   4.374   6.282   4.706 -0.1140 -0.8802  0.1101
  150MOL   C17542193   4.381   6.153   4.725 -0.2628  0.4264 -0.3007
  150MOL   C17642194   4.197   6.277   4.535 -0.3104 -0.1038  0.5011
  150MOL   C17742195   4.090   6.344   4.469  0.2954 -0.6764  0.4505
  150MOL   H17842196   4.115   6.651   4.609 -1.9840 -0.1957 -0.5436
  150MOL   H17942197   4.288   6.533   4.731 -2.5690 -0.1300  1.6625
  150MOL   H18042198   4.454   6.344   4.745 -1.0968  1.3003 -1.2687
  150MOL   H18142199   4.305   6.091   4.678 -0.1116  0.3643 -0.4662
  150MOL   H18242200   4.231   6.181   4.501 -0.4434 -0.5124  1.5150
  150MOL   H18342201   4.046   6.281   4.393 -1.4813 -2.0201  2.5386
  150MOL   C18442202   4.473   6.075   4.806  0.4406 -0.7440 -0.2737
  150MOL   C18542203   4.429   5.939   4.826 -0.2162  0.0933  0.4010
  150MOL   C18642204   4.506   5.858   4.911 -0.0538  0.3102 -0.5024
  150MOL   C18742205   4.622   5.903   4.964 -0.6570 -0.8074  0.3753
  150MOL   C18842206   4.694   5.818   5.067 -0.3023  0.2069 -0.1776
  150MOL   C18942207   4.704   5.690   5.057  0.0613 -0.8510 -0.5840
  150MOL   C19042208   4.668   6.034   4.946 -0.7888 -0.0014 -0.4214
  150MOL   C19142209   4.593   6.118   4.862 -0.6749  0.6249  0.5999
  150MOL   H19242210   4.341   5.892   4.786  1.0256 -1.1923 -0.8676
  150MOL   H19342211   4.468   5.758   4.922 -0.7373  0.5179 -0.9321
  150MOL   H19442212   4.728   5.868   5.157 -0.2387 -2.0662  1.1058
  150MOL   H19542213   4.665   5.652   4.964  2.6803  0.4678 -2.2700
  150MOL   H19642214   4.763   6.065   4.987 -0.0179  0.0171 -2.1655
  150MOL   H19742215   4.635   6.214   4.835  1.7952 -0.8197 -0.9074
  150MOL   C19842216   4.757   5.593   5.155  0.2205  0.1681  0.5045
  150MOL   C19942217   4.811   5.632   5.284  0.5124 -0.3576  0.3188
  150MOL   C20042218   4.842   5.539   5.382 -0.2948  0.1650 -0.4442
  150MOL   C20142219   4.809   5.403   5.365 -0.4155 -0.1641  0.1295
  150MOL   C20242220   4.800   5.309   5.478 -0.4346  0.1910 -0.3168
  150MOL   C20342221   4.737   5.191   5.475 -0.3190 -0.4964  0.2823
  150MOL   C20442222   4.758   5.365   5.238 -0.6318 -0.0340 -0.4436
  150MOL   C20542223   4.735   5.460   5.134 -0.0768  0.3405  0.2456
  150MOL   H20642224   4.830   5.736   5.304  3.0988 -0.4648 -1.4285
  150MOL   H20742225   4.883   5.569   5.478 -0.7540 -1.3158  0.2259
  150MOL   H20842226   4.844   5.345   5.570 -1.6613 -1.0779  0.8004
  150MOL   H20942227   4.697   5.154   5.382  1.3959 -1.2218 -0.1863
  150MOL   H21042228   4.735   5.263   5.210  0.5172  0.0420 -1.6712
  150MOL   H21142229   4.700   5.433   5.035 -2.5314  0.4530  1.0613
  150MOL   C21242230   4.726   5.098   5.582  0.9060 -0.3859  0.7191
  150MOL   C21342231   4.596   5.045   5.595 -0.9498 -0.1194 -0.4364
  150MOL   C21442232   4.574   4.946   5.688  0.0752  0.0628  0.0591
  150MOL   C21542233   4.677   4.909   5.783  0.5711  0.0076 -0.6080
  150MOL   C21642234   4.645   4.805   5.883  0.4177  0.1946  0.4546
  150MOL   C21742235   4.728   4.745   5.973  0.7891 -0.1800  0.4337
  150MOL   C21842236   4.805   4.969   5.772 -0.9652 -0.1959  0.4881
  150MOL   C21942237   4.828   5.066   5.673 -0.1982 -0.7398  0.6314
  150MOL   H22042238   4.515   5.067   5.528 -1.0448  2.5257  0.4852
  150MOL   H22142239   4.469   4.919   5.695  0.0693  0.3264  1.1528
  150MOL   H22242240   4.542   4.774   5.874  0.3539 -0.6348  3.4673
  150MOL   H22342241   4.831   4.777   5.971  0.9240 -0.6063  0.4424
  150MOL   H22442242   4.885   4.946   5.841  0.7283 -1.1366 -1.7411
  150MOL   H22542243   4.929   5.105   5.671  0.0431 -1.3461  0.7323
  150MOL   C22642244   4.690   4.636   6.066  0.0542  0.0236 -0.3467
  150MOL   C22742245   4.553   4.608   6.104  0.6748 -0.3159 -0.3936
  150MOL   C22842246   4.523   4.497   6.185 -0.0002 -0.0691  0.9484
  150MOL   C22942247   4.625   4.410   6.238  0.9047 -0.9551 -0.1448
  150MOL   C23042248   4.606   4.302   6.337  0.1918  0.2497 -0.3859
  150MOL   C23142249   4.493   4.285   6.413  0.1973  0.4603 -0.2295
  150MOL   C23242250   4.761   4.443   6.213  0.4019 -0.3746 -0.3523
  150MOL   C23342251   4.789   4.552   6.124  0.0083  0.3176 -0.5842
  150MOL   H23442252   4.471   4.654   6.052  2.1373  0.6404 -1.9171
  150MOL   H23542253   4.421   4.473   6.213  0.2110 -1.0589  0.8930
  150MOL   H23642254   4.678   4.222   6.328  0.8186  0.9783 -1.9404
  150MOL   H23742255   4.420   4.365   6.414 -0.1079  0.1790  0.3816
  150MOL   H23842256   4.832   4.376   6.259 -0.1704  0.0013  1.0960
  150MOL   H23942257   4.887   4.586   6.096 -0.4242  1.5187 -0.6493
  150MOL   C24042258   4.459   4.176   6.506  0.2544 -0.2510 -0.6531
  150MOL   C24142259   4.348   4.200   6.593 -0.2802  0.1520  0.2274
  150MOL   C24242260   4.303   4.089   6.674  0.7969  0.3577 -0.1316
  150MOL   C24342261   4.353   3.959   6.654  0.4895  0.0486  0.5143
  150MOL   C24442262   4.281   3.841   6.714  0.7572 -0.5036 -0.1255
  150MOL   C24542263   4.192   3.847   6.816  0.0193 -0.5601 -0.4887
  150MOL   C24642264   4.467   3.940   6.572  0.3140  0.0487  0.2412
  150MOL   C24742265   4.519   4.052   6.501 -1.0287 -0.1283  0.1260
  150MOL   H24842266   4.294   4.293   6.602 -0.3635  0.1281 -0.0277
  150MOL   H24942267   4.213   4.091   6.733  1.0662  1.7837  0.2612
  150MOL   H25042268   4.309   3.749   6.664 -0.4256 -0.1589 -1.4830
  150MOL   H25142269   4.174   3.941   6.867 -3.0465 -0.7412 -1.1549
  150MOL   H25242270   4.515   3.843   6.577 -0.2555 -0.2247  0.3806
  150MOL   H25342271   4.599   4.032   6.431 -0.1965  1.7467  0.5152
  150MOL   C25442272   4.129   3.725   6.861  0.1502  0.4696  0.2088
  150MOL   C25542273   4.132   3.610   6.784  0.1232  0.3912 -0.4455
  150MOL   C25642274   4.054   3.500   6.816 -0.6614  0.0530 -0.3553
  150MOL   C25742275   3.988   3.487   6.938 -0.4279 -0.6359  0.0698
  150MOL   C25842276   3.910   3.362   6.955 -0.1365  0.1192 -0.7537
  150MOL   C25942277   3.845   3.316   7.067  0.6529  0.0935  0.3492
  150MOL   C26042278   4.000   3.594   7.029  0.6155 -0.2108  0.4325
  150MOL   C26142279   4.068   3.708   6.986 -0.2863 -0.1987  0.0252
  150MOL   H26242280   4.162   3.608   6.680 -1.9611 -1.3768 -1.0538
  150MOL   H26342281   4.036   3.436   6.731  2.5562 -0.5256 -0.6609
  150MOL   H26442282   3.919   3.307   6.862  1.6722 -0.6633 -0.1378
  150MOL   H26542283   3.803   3.216   7.063  0.5281  0.1923 -0.7337
  150MOL   H26642284   3.939   3.578   7.117  0.7698 -1.0651  0.3892
  150MOL   H26742285   4.069   3.787   7.060  2.6247 -2.9707  3.1231
  150MOL   C26842286   3.847   3.369   7.204 -0.6130 -0.2267  0.1604
  150MOL   C26942287   3.969   3.352   7.274 -0.4572 -0.0286  0.6138
  150MOL   C27042288   3.973   3.354   7.413  0.1894 -0.2419  0.2952
  150MOL   C27142289   3.862   3.411   7.483 -0.0101 -0.4501  0.0679
  150MOL   C27242290   3.876   3.445   7.628 -0.5779 -0.2215  0.9044
  150MOL   C27342291   3.798   3.523   7.704 -0.0617  0.0090 -0.0867
  150MOL   C27442292   3.746   3.431   7.411 -0.0142  0.2201 -0.1088
  150MOL   C27542293   3.733   3.401   7.277  0.1685  0.1241 -0.0921
  150MOL   H27642294   4.057   3.332   7.214 -0.1375  2.9611  0.0307
  150MOL   H27742295   4.065   3.344   7.469 -0.3980  0.7142  1.4740
  150MOL   H27842296   3.957   3.397   7.681 -0.6687  1.6319  2.7975
  150MOL   H27942297   3.713   3.570   7.657  0.3282  1.3803  0.5576
  150MOL   H28042298   3.655   3.459   7.461 -0.0095 -1.0136  0.5946
  150MOL   H28142299   3.635   3.406   7.232  0.5174  0.7251 -0.8100
  150MOL   H28242300   3.816   3.550   7.807  0.8591  3.0244 -0.9875
  151MOL     C142301   6.731   0.959   1.431  0.7853  0.2722 -0.5091
  151MOL     C242302   6.808   1.012   1.535  0.3476 -0.8828 -0.2766
  151MOL     C342303   6.947   1.014   1.532 -0.0768 -0.2283  0.1935
  151MOL     C442304   7.018   0.971   1.416  1.5718  0.2590  0.9787
  151MOL     C542305   7.169   0.966   1.405  0.3043  0.7391 -0.7477
  151MOL     C642306   7.244   0.963   1.291  0.0278  0.0360 -0.8258
  151MOL     C742307   6.939   0.918   1.312 -1.1428 -0.1388  0.0803
  151MOL     C842308   6.797   0.909   1.317 -0.2733 -0.7514 -0.5083
  151MOL     H942309   6.755   1.042   1.625  2.9669  0.1650  0.9606
  151MOL    H1042310   7.002   1.043   1.620 -0.0696 -2.3385  0.9003
  151MOL    H1142311   7.208   0.953   1.505 -4.1271 -2.0385  0.7705
  151MOL    H1242312   7.186   0.974   1.200 -0.0874 -2.0965 -1.0192
  151MOL    H1342313   6.980   0.865   1.227  1.1768 -0.3473  1.2672
  151MOL    H1442314   6.734   0.859   1.245 -1.6883 -2.5986  1.9465
  151MOL    H1542315   6.623   0.954   1.440  0.7495 -0.8032 -1.5217
  151MOL    C1642316   7.384   0.943   1.273 -0.2658  0.3983 -0.8946
  151MOL    C1742317   7.429   0.903   1.144  0.5029  0.3948 -0.3001
  151MOL    C1842318   7.570   0.875   1.122 -0.4966 -0.9458 -0.1313
  151MOL    C1942319   7.662   0.897   1.233  0.2761 -0.2002  0.0582
  151MOL    C2042320   7.807   0.873   1.208 -0.4706  0.2998  0.2426
  151MOL    C2142321   7.903   0.850   1.306  0.6632  0.2301  0.4807
  151MOL    C2242322   7.610   0.932   1.356 -0.5184 -0.5540 -0.1011
  151MOL    C2342323   7.476   0.960   1.375  0.2902  0.5548  0.2533
  151MOL    H2442324   7.362   0.908   1.059 -1.1128  0.9239  0.9694
  151MOL    H2542325   7.604   0.835   1.028 -0.1602  0.8541 -0.7945
  151MOL    H2642326   7.822   0.854   1.103 -2.2611  1.0901 -0.1709
  151MOL    H2742327   7.874   0.867   1.408  0.5463  2.6050  0.0862
  151MOL    H2842328   7.671   0.945   1.444  0.0652 -0.4255 -0.5235
  151MOL    H2942329   7.441   1.000   1.469  2.3741  2.3876  0.2844
  151MOL    C3042330   8.041   0.816   1.283  0.0172 -0.1845 -0.0089
  151MOL    C3142331   8.131   0.862   1.381 -0.1228  0.3195  0.5094
  151MOL    C3242332   0.125   0.822   1.363  0.3422  0.5548  0.1479
  151MOL    C3342333   0.167   0.760   1.241 -0.2609 -0.9185 -0.3069
  151MOL    C3442334   0.310   0.720   1.229  0.5752 -0.2242 -0.3206
  151MOL    C3542335   0.376   0.707   1.113  0.3628 -0.1435 -0.3107
  151MOL    C3642336   0.073   0.715   1.150 -0.7779 -0.3217  0.0766
  151MOL    C3742337   8.080   0.741   1.173  0.2359  0.3999  0.3047
  151MOL    H3842338   8.105   0.921   1.468 -3.7126 -2.1100  1.2220
  151MOL    H3942339   0.200   0.853   1.435  2.0861 -1.8335 -0.6055
  151MOL    H4042340   0.358   0.713   1.325  0.4807 -0.5283 -0.2961
  151MOL    H4142341   0.319   0.721   1.022  1.5682 -0.3899 -1.1056
  151MOL    H4242342   0.101   0.657   1.064  1.7143  0.8068  0.0854
  151MOL    H4342343   8.019   0.692   1.097 -0.2117 -0.2048  1.0441
  151MOL    C4442344   0.524   0.670   1.102  0.2863 -0.8150  0.4820
  151MOL    C4542345   0.598   0.698   0.986 -0.1147  0.2190 -0.4273
  151MOL    C4642346   0.735   0.656   0.973  0.1754 -0.2263 -0.1346
  151MOL    C4742347   0.803   0.598   1.085  0.8288 -0.1700 -0.2906
  151MOL    C4842348   0.935   0.532   1.080 -0.0532  0.0286  0.1270
  151MOL    C4942349   1.004   0.497   0.969  0.6370  0.4299 -0.2944
  151MOL    C5042350   0.726   0.585   1.206 -0.2333 -0.7233 -0.2683
  151MOL    C5142351   0.590   0.612   1.211  0.5106  0.5163  0.2090
  151MOL    H5242352   0.552   0.746   0.901  1.6226  2.5014 -0.1302
  151MOL    H5342353   0.782   0.669   0.876 -1.6420 -0.4710 -1.0798
  151MOL    H5442354   0.988   0.507   1.171  0.6170 -2.2348 -0.8404
  151MOL    H5542355   0.958   0.525   0.876 -1.0304 -0.6913  0.1464
  151MOL    H5642356   0.759   0.524   1.289  0.7544  0.9841  0.6123
  151MOL    H5742357   0.546   0.590   1.307 -1.8546  1.2381 -0.6825
  151MOL    C5842358   1.130   0.420   0.958  0.3307  0.4737 -0.3159
  151MOL    C5942359   1.191   0.357   1.072  0.7091  0.5297  0.1108
  151MOL    C6042360   1.309   0.286   1.061 -0.0695 -0.2379  0.7388
  151MOL    C6142361   1.372   0.258   0.939  0.1604 -0.2479 -0.2761
  151MOL    C6242362   1.485   0.166   0.934 -0.0979  0.2603  0.0680
  151MOL    C6342363   1.524   0.109   0.816 -0.0056 -0.2275  0.1242
  151MOL    C6442364   1.318   0.322   0.827  0.3930 -0.1941 -0.2211
  151MOL    C6542365   1.199   0.403   0.834 -0.0169 -0.6948 -0.1592
  151MOL    H6642366   1.153   0.378   1.170 -1.8508 -0.6380 -0.5741
  151MOL    H6742367   1.347   0.236   1.149  1.3598 -2.0638 -0.8608
  151MOL    H6842368   1.540   0.139   1.023  0.4565 -2.9217 -1.1574
  151MOL    H6942369   1.460   0.125   0.730  0.0282  1.4938  0.3981
  151MOL    H7042370   1.350   0.306   0.725 -0.0659  1.3992 -0.6464
  151MOL    H7142371   1.162   0.451   0.745 -0.0551 -2.0214 -0.8743
  151MOL    C7242372   1.641   0.026   0.788 -0.3535 -0.4914  0.7826
  151MOL    C7342373   1.719   8.119   0.898 -0.6506  0.3780  0.4928
  151MOL    C7442374   1.837   8.044   0.871  0.5198 -0.2874 -0.6763
  151MOL    C7542375   1.862   8.009   0.737 -0.1333 -0.5786 -0.5003
  151MOL    C7642376   1.971   7.920   0.698  0.7852  0.1333 -0.1822
  151MOL    C7742377   2.020   7.894   0.575  0.2136  0.1090 -0.2905
  151MOL    C7842378   1.785   8.058   0.633  0.3112 -0.3193 -0.4129
  151MOL    C7942379   1.677   8.141   0.655 -0.5357  0.3674  0.1368
  151MOL    H8042380   1.689   8.127   1.002 -0.7131 -3.9024  0.8915
  151MOL    H8142381   1.892   7.994   0.949 -0.7237  1.4561  1.3845
  151MOL    H8242382   2.002   7.870   0.788  0.1390  3.3035  1.8902
  151MOL    H8342383   1.984   7.955   0.493 -0.4006  2.6649  1.7957
  151MOL    H8442384   1.814   8.045   0.530 -0.6756 -0.1204 -0.7268
  151MOL    H8542385   1.636   0.035   0.562 -2.7532 -2.6239 -0.2033
  151MOL    C8642386   2.106   7.778   0.544  0.1197  0.8060 -0.3648
  151MOL    C8742387   2.166   7.691   0.639 -0.1118 -0.7901 -0.1023
  151MOL    C8842388   2.254   7.594   0.591  0.4458 -0.9699  0.3249
  151MOL    C8942389   2.300   7.590   0.459 -0.2451  1.0006 -0.0513
  151MOL    C9042390   2.398   7.489   0.428  0.1939  0.5341 -0.0858
  151MOL    C9142391   2.428   7.455   0.304  0.3315 -0.3901 -0.6540
  151MOL    C9242392   2.239   7.680   0.365 -0.1919 -0.3566 -0.3098
  151MOL    C9342393   2.135   7.766   0.406  1.2489 -0.2750 -0.1366
  151MOL    H9442394   2.138   7.710   0.741 -0.1774  1.1919 -0.4673
  151MOL    H9542395   2.299   7.529   0.665  0.3770 -2.3110 -0.7984
  151MOL    H9642396   2.438   7.430   0.509 -0.0453 -0.9440 -1.0296
  151MOL    H9742397   2.380   7.502   0.220  0.1501 -1.2143 -1.0203
  151MOL    H9842398   2.271   7.680   0.262  0.1862  0.1484 -0.1942
  151MOL    H9942399   2.080   7.831   0.340 -1.7025  0.6712  3.1187
  151MOL   C10042400   2.525   7.350   0.263  0.0492 -0.0000  0.2097
  151MOL   C10142401   2.572   7.244   0.342 -0.6156 -0.1400 -0.2217
  151MOL   C10242402   2.660   7.147   0.293  0.5022 -0.4246 -0.1034
  151MOL   C10342403   2.722   7.169   0.169  0.1743  0.4900  0.1063
  151MOL   C10442404   2.842   7.092   0.123 -0.5214 -0.3259  0.9786
  151MOL   C10542405   2.913   6.994   0.186 -0.2390 -0.3789  0.5714
  151MOL   C10642406   2.674   7.275   0.089  0.8821  0.7905 -0.5744
  151MOL   C10742407   2.569   7.362   0.130 -0.4220 -0.0505 -0.0129
  151MOL   H10842408   2.532   7.220   0.440 -2.0532  0.1873 -0.7197
  151MOL   H10942409   2.677   7.062   0.357 -1.6159 -0.7743  0.0513
  151MOL   H11042410   2.875   7.120   0.024 -1.0653  0.8323  1.1087
  151MOL   H11142411   2.890   6.963   0.287 -1.8102 -0.5805  0.1575
  151MOL   H11242412   2.730   7.297   8.144  1.3225 -1.9731 -1.0220
  151MOL   H11342413   2.547   7.446   0.066  0.9852  2.1660  2.3095
  151MOL   C11442414   3.021   6.912   0.135 -0.1472 -0.0028  0.1601
  151MOL   C11542415   3.090   6.822   0.225 -0.2372 -0.5341  0.4223
  151MOL   C11642416   3.185   6.733   0.169 -0.0180  0.1743 -0.6560
  151MOL   C11742417   3.217   6.737   0.035 -0.0485  0.3184 -0.3234
  151MOL   C11842418   3.327   6.656   8.127 -0.1884  0.0132  0.0738
  151MOL   C11942419   3.420   6.588   0.043  0.2504 -0.3639 -0.7809
  151MOL   C12042420   3.141   6.819   8.096  0.0589 -0.0362  1.0236
  151MOL   C12142421   3.048   6.908   8.141  0.3750  0.5980 -0.2649
  151MOL   H12242422   3.068   6.823   0.331 -0.7841 -0.8845  0.3149
  151MOL   H12342423   3.228   6.670   0.245  0.2884  1.5293  0.3338
  151MOL   H12442424   3.333   6.652   8.020 -1.9417 -1.8527  0.0114
  151MOL   H12542425   3.417   6.603   0.150  0.1086  0.6005 -0.9156
  151MOL   H12642426   3.152   6.812   7.989  0.2375 -0.2850  1.0589
  151MOL   H12742427   2.983   6.960   8.073 -0.4242 -1.9747 -1.5486
  151MOL   C12842428   3.520   6.501   8.126  0.0013 -0.4147  0.5993
  151MOL   C12942429   3.532   6.492   7.986 -0.5092 -0.2826  0.1302
  151MOL   C13042430   3.651   6.428   7.937  0.6278 -0.5871 -0.4520
  151MOL   C13142431   3.750   6.364   8.017 -0.5381  0.1657 -0.4583
  151MOL   C13242432   3.860   6.281   7.952  0.8047  0.2220 -0.0815
  151MOL   C13342433   3.959   6.209   8.009 -0.1949 -0.2937 -0.2620
  151MOL   C13442434   3.733   6.377   0.012 -0.3460 -0.1830 -0.1260
  151MOL   C13542435   3.625   6.445   0.067  0.7880 -0.2164  0.6094
  151MOL   H13642436   3.480   6.555   7.916  0.3566 -1.2217 -1.3735
  151MOL   H13742437   3.674   6.420   7.831  0.8853  1.6876 -0.5952
  151MOL   H13842438   3.853   6.281   7.845 -0.3235  0.9247 -0.0141
  151MOL   H13942439   3.963   6.217   8.116  0.2442 -3.0287 -0.0363
  151MOL   H14042440   3.807   6.330   0.074  0.3844 -0.1221 -0.9402
  151MOL   H14142441   3.605   6.450   0.173  1.3566  1.7429  0.6354
  151MOL   C14242442   4.065   6.128   7.947  0.1953 -0.3828 -0.6227
  151MOL   C14342443   4.160   6.068   8.029  0.3504 -0.3759  0.5704
  151MOL   C14442444   4.271   6.003   7.971  0.7379  0.1921  0.2004
  151MOL   C14542445   4.285   5.986   7.829 -0.2583  0.7689 -0.5590
  151MOL   C14642446   4.410   5.913   7.778 -0.5899 -0.1869 -0.4459
  151MOL   C14742447   4.528   5.886   7.834  0.1713  0.2275 -0.6159
  151MOL   C14842448   4.192   6.053   7.748  0.5083 -0.1027  0.0266
  151MOL   C14942449   4.082   6.121   7.804 -0.6346  0.0504 -0.8783
  151MOL   H15042450   4.154   6.084   8.136  1.1978  0.9477  0.4383
  151MOL   H15142451   4.346   5.961   8.037 -0.4465 -2.4673 -0.0768
  151MOL   H15242452   4.406   5.876   7.677 -0.1070 -1.8311  0.1325
  151MOL   H15342453   4.547   5.933   7.930 -0.2499  0.7716 -0.7965
  151MOL   H15442454   4.208   6.059   7.642 -0.3089 -0.5044 -0.1209
  151MOL   H15542455   4.012   6.170   7.738 -1.6625 -1.2776 -0.7966
  151MOL   C15642456   4.635   5.801   7.771  0.0952 -0.8158  0.0531
  151MOL   C15742457   4.743   5.763   7.854 -0.6430 -0.5907  0.0970
  151MOL   C15842458   4.858   5.699   7.807  0.3306 -0.3667 -0.0119
  151MOL   C15942459   4.863   5.660   7.672 -0.4445  0.0983 -0.2346
  151MOL   C16042460   4.977   5.594   7.606  0.1883 -0.1385 -0.3201
  151MOL   C16142461   5.095   5.567   7.654  0.0580  0.1163 -0.4128
  151MOL   C16242462   4.751   5.687   7.587  0.7077 -0.1982 -0.4235
  151MOL   C16342463   4.640   5.762   7.635 -0.6175 -0.3668 -0.4175
  151MOL   H16442464   4.733   5.791   7.958  3.6476  3.9030 -0.5497
  151MOL   H16542465   4.941   5.674   7.872  0.1622  0.7274  0.6470
  151MOL   H16642466   4.959   5.562   7.504  2.3791 -1.2970 -0.3661
  151MOL   H16742467   5.109   5.595   7.758 -0.5925 -1.2482  0.0621
  151MOL   H16842468   4.752   5.682   7.479 -1.3880  0.2514 -0.4808
  151MOL   H16942469   4.562   5.787   7.564 -0.0026 -1.6824 -1.5751
  151MOL   C17042470   5.208   5.499   7.588 -0.0709 -0.0535  0.2688
  151MOL   C17142471   5.314   5.457   7.667  0.6790  0.2043 -0.2963
  151MOL   C17242472   5.427   5.397   7.609  0.0783 -0.3940  0.2405
  151MOL   C17342473   5.434   5.387   7.467 -0.0712  0.0034  0.0236
  151MOL   C17442474   5.548   5.321   7.396 -0.6001  0.2953  0.2028
  151MOL   C17542475   5.665   5.287   7.446 -0.1973 -0.3594 -0.3137
  151MOL   C17642476   5.323   5.429   7.392 -0.3376 -0.1897 -0.7874
  151MOL   C17742477   5.214   5.484   7.447 -0.5326 -0.2992 -0.0437
  151MOL   H17842478   5.315   5.476   7.774 -0.6346 -0.8227 -0.0961
  151MOL   H17942479   5.514   5.373   7.667 -0.6700 -0.9524  1.1543
  151MOL   H18042480   5.543   5.312   7.289 -0.2112 -0.0190  0.2098
  151MOL   H18142481   5.672   5.295   7.553  0.3024 -3.2885 -0.0913
  151MOL   H18242482   5.331   5.415   7.285 -0.3910 -0.0849 -0.8053
  151MOL   H18342483   5.132   5.509   7.383 -0.0494  0.6098 -0.3087
  151MOL   C18442484   5.779   5.220   7.377 -0.0044 -0.2460  0.0732
  151MOL   C18542485   5.794   5.225   7.237 -0.3640  0.1238  0.1730
  151MOL   C18642486   5.910   5.179   7.168  0.1569 -0.2812  0.2642
  151MOL   C18742487   6.014   5.128   7.245 -0.2901  0.1500 -0.8735
  151MOL   C18842488   6.140   5.109   7.177  0.6866  0.1287  0.3720
  151MOL   C18942489   6.268   5.092   7.220  0.1635 -0.0880 -0.2620
  151MOL   C19042490   6.006   5.122   7.387  1.0093  0.3564 -0.9491
  151MOL   C19142491   5.886   5.162   7.453  0.3453  1.2132 -0.2759
  151MOL   H19242492   5.720   5.284   7.186  0.7454  1.9958  0.6930
  151MOL   H19342493   5.923   5.195   7.062  0.9718  1.4345  0.6166
  151MOL   H19442494   6.124   5.107   7.070 -1.6104 -1.1550  0.7062
  151MOL   H19542495   6.283   5.070   7.325  2.1840 -0.2803 -0.5642
  151MOL   H19642496   6.087   5.071   7.436 -0.5128 -1.6667 -0.4627
  151MOL   H19742497   5.877   5.132   7.557 -0.4390 -0.2331 -0.7490
  151MOL   C19842498   6.385   5.102   7.134 -0.6906  0.0262  0.0434
  151MOL   C19942499   6.507   5.031   7.167  0.5000 -0.5977  0.1271
  151MOL   C20042500   6.619   5.039   7.081  1.0907 -0.2253 -0.3714
  151MOL   C20142501   6.615   5.109   6.959  0.6515 -0.1345 -0.1177
  151MOL   C20242502   6.735   5.109   6.868  0.4665  0.0395  0.2595
  151MOL   C20342503   6.730   5.122   6.734 -0.4597 -0.1605  0.4257
  151MOL   C20442504   6.495   5.178   6.928 -0.0975 -0.0858  0.0751
  151MOL   C20542505   6.383   5.178   7.014  0.1970  0.0657  0.6414
  151MOL   H20642506   6.513   4.964   7.251  0.1891  1.8448  2.1576
  151MOL   H20742507   6.704   4.983   7.115 -0.7680 -1.8057  1.7953
  151MOL   H20842508   6.832   5.104   6.916  1.9203 -0.2201 -2.5785
  151MOL   H20942509   6.629   5.143   6.703  0.1011  2.2430  0.1270
  151MOL   H21042510   6.471   5.217   6.830 -0.2004  1.0152  0.5357
  151MOL   H21142511   6.291   5.232   6.996  0.4022  0.6372  1.2793
  151MOL   C21242512   6.838   5.119   6.626  0.1127  0.2807 -0.4293
  151MOL   C21342513   6.971   5.101   6.672 -0.3907 -0.5288  1.0265
  151MOL   C21442514   7.073   5.085   6.575  0.5063 -0.6153 -0.0649
  151MOL   C21542515   7.034   5.074   6.437 -0.0991  0.0552  0.2612
  151MOL   C21642516   7.144   5.063   6.340  0.3210  0.2479 -0.4342
  151MOL   C21742517   7.133   5.088   6.208  0.0808  0.4685 -0.3549
  151MOL   C21842518   6.899   5.083   6.400 -0.1811 -0.3037 -0.1622
  151MOL   C21942519   6.801   5.116   6.493 -0.1188  0.1425  0.1143
  151MOL   H22042520   7.000   5.108   6.776  1.0812 -1.8077  0.7304
  151MOL   H22142521   7.175   5.091   6.612  0.2613  2.3621  0.1996
  151MOL   H22242522   7.239   5.031   6.381 -1.5748 -1.7688  2.5184
  151MOL   H22342523   7.035   5.117   6.173 -0.3804 -1.8169 -1.0893
  151MOL   H22442524   6.873   5.079   6.295 -2.4116 -1.3892  0.4117
  151MOL   H22542525   6.697   5.129   6.466 -0.3283 -2.2361 -0.3167
  151MOL   C22642526   7.233   5.084   6.099  0.3164 -0.2597  0.0198
  151MOL   C22742527   7.189   5.100   5.965  0.4564 -0.3255  1.2643
  151MOL   C22842528   7.281   5.100   5.861 -0.2239 -0.7073 -0.0002
  151MOL   C22942529   7.418   5.114   5.890  0.4835  0.5636 -0.5378
  151MOL   C23042530   7.504   5.173   5.788 -0.4313  0.5575  0.4178
  151MOL   C23142531   7.634   5.171   5.787 -0.1751  0.1801  1.2950
  151MOL   C23242532   7.463   5.089   6.023  0.1591 -0.2803  0.3455
  151MOL   C23342533   7.370   5.065   6.128  0.2751  0.0678  0.1225
  151MOL   H23442534   7.087   5.121   5.936  1.0207  1.1905  0.3369
  151MOL   H23542535   7.243   5.125   5.763 -1.8420 -2.5358  0.1224
  151MOL   H23642536   7.456   5.219   5.703  1.8044 -0.9109 -1.6923
  151MOL   H23742537   7.689   5.118   5.864  0.3441 -0.9251  0.1737
  151MOL   H23842538   7.566   5.099   6.056  0.4304  2.8071 -1.3461
  151MOL   H23942539   7.390   5.054   6.233  0.6946 -0.3306  0.0001
  151MOL   C24042540   7.717   5.234   5.685  0.0325 -0.1004 -0.0117
  151MOL   C24142541   7.678   5.340   5.605 -0.2250  0.2880 -0.6044
  151MOL   C24242542   7.761   5.414   5.519 -0.3026 -0.0161 -0.1071
  151MOL   C24342543   7.896   5.388   5.517 -0.1477  0.0606 -0.1243
  151MOL   C24442544   7.994   5.465   5.435  0.1888 -0.0682  1.3609
  151MOL   C24542545   7.968   5.583   5.367  0.5494  0.0410 -0.6679
  151MOL   C24642546   7.945   5.291   5.612  0.1951  0.3521  0.5525
  151MOL   C24742547   7.858   5.211   5.696 -0.1045 -0.6717  0.2651
  151MOL   H24842548   7.576   5.373   5.600 -0.2654  0.2779  0.1754
  151MOL   H24942549   7.715   5.493   5.461 -0.1389  1.1967  1.3990
  151MOL   H25042550   8.096   5.430   5.430  0.4479  0.7481  0.6261
  151MOL   H25142551   7.870   5.624   5.386  0.5434 -1.1680  2.1607
  151MOL   H25242552   8.052   5.283   5.623  0.1814  1.4520  1.7213
  151MOL   H25342553   7.895   5.153   5.778  1.6226 -0.2471 -0.2029
  151MOL   C25442554   8.059   5.651   5.270 -0.0753  0.0308  0.7493
  151MOL   C25542555   8.015   5.765   5.205  0.1278 -0.4015  0.0993
  151MOL   C25642556   8.091   5.835   5.110  0.2637  0.5345  0.8190
  151MOL   C25742557   0.081   5.793   5.080  0.1240 -0.1953  0.5927
  151MOL   C25842558   0.154   5.868   4.972 -0.0774  0.0293  0.1220
  151MOL   C25942559   0.248   5.812   4.889 -0.0154 -0.6061 -0.3142
  151MOL   C26042560   0.128   5.672   5.138 -0.5035 -1.0670  0.1683
  151MOL   C26142561   0.043   5.598   5.229 -0.1919  0.6564  0.4589
  151MOL   H26242562   7.912   5.798   5.217 -0.4662 -1.7919 -1.0581
  151MOL   H26342563   8.046   5.923   5.067 -1.4057 -2.1226 -3.1504
  151MOL   H26442564   0.126   5.972   4.960  0.6797  0.1734 -0.4731
  151MOL   H26542565   0.297   5.876   4.817 -2.2636  0.8735 -0.5437
  151MOL   H26642566   0.222   5.629   5.105 -1.0326 -2.7247  0.7674
  151MOL   H26742567   0.081   5.501   5.258 -0.6773 -0.1461 -1.5186
  151MOL   C26842568   0.295   5.673   4.882  0.3834  0.0904  0.3078
  151MOL   C26942569   0.432   5.650   4.898 -0.4193  0.7852 -0.5028
  151MOL   C27042570   0.487   5.522   4.895  0.2892  0.0457  0.3536
  151MOL   C27142571   0.394   5.411   4.880  0.1463 -0.6955 -1.1735
  151MOL   C27242572   0.438   5.275   4.890 -0.5741 -0.1469 -0.2470
  151MOL   C27342573   0.556   5.231   4.929  0.3732 -0.8795 -0.4143
  151MOL   C27442574   0.258   5.436   4.855  0.4692  0.3300  0.1215
  151MOL   C27542575   0.208   5.567   4.857  0.0644 -0.4065 -0.1404
  151MOL   H27642576   0.496   5.735   4.916  2.6813 -1.2269 -1.5147
  151MOL   H27742577   0.591   5.505   4.918 -0.0774 -1.3454  1.0778
  151MOL   H27842578   0.371   5.203   4.845 -1.4390  2.1478 -2.7646
  151MOL   H27942579   0.627   5.302   4.968 -1.9708  1.5812 -0.4712
  151MOL   H28042580   0.184   5.361   4.833 -1.4922  1.9529  0.9840
  151MOL   H28142581   0.103   5.575   4.833 -0.5583  0.7010  2.7219
  151MOL   H28242582   0.573   5.125   4.933  0.1304 -0.9617 -1.4875
  152MOL     C142583   4.175   0.795   2.466  0.1612  0.2526  0.7464
  152MOL     C242584   4.248   0.904   2.515 -0.0303 -0.2289 -0.2247
  152MOL     C342585   4.355   0.884   2.604 -0.9597 -0.1459  0.0988
  152MOL     C442586   4.399   0.753   2.628 -0.0513  0.2384 -0.6062
  152MOL     C542587   4.510   0.714   2.707  0.5259 -0.5907 -0.2640
  152MOL     C642588   4.590   0.797   2.774  0.1049 -0.6718  0.0861
  152MOL     C742589   4.329   0.649   2.564  0.2755 -0.7462  0.1073
  152MOL     C842590   4.222   0.664   2.478 -0.2545 -0.0922  0.4858
  152MOL     H942591   4.220   1.006   2.490 -0.0016 -0.6211 -1.9709
  152MOL    H1042592   4.410   0.972   2.636  0.0650  0.0716 -2.1113
  152MOL    H1142593   4.534   0.609   2.716  0.5146 -0.5783 -0.0762
  152MOL    H1242594   4.572   0.903   2.768 -1.1069 -0.8524  0.5280
  152MOL    H1342595   4.378   0.553   2.569  0.2884 -0.7971 -0.8077
  152MOL    H1442596   4.174   0.589   2.417 -0.4297 -0.3904  0.9927
  152MOL    H1542597   4.090   0.806   2.400  0.5723 -2.0719 -0.2533
  152MOL    C1642598   4.701   0.758   2.865 -0.3087  0.8283  0.3435
  152MOL    C1742599   4.794   0.857   2.903 -0.2458  0.3842  0.3889
  152MOL    C1842600   4.906   0.825   2.981 -0.3955  0.4709  0.1039
  152MOL    C1942601   4.934   0.688   3.016 -0.0927  1.0093 -0.3871
  152MOL    C2042602   5.059   0.650   3.085 -0.2159 -0.1303  0.2351
  152MOL    C2142603   5.128   0.721   3.178 -0.6012  0.1331  0.0518
  152MOL    C2242604   4.840   0.585   2.977 -1.1598 -0.8576 -0.0554
  152MOL    C2342605   4.726   0.623   2.905  0.7163  0.4326  0.0684
  152MOL    H2442606   4.781   0.955   2.860  0.6082  0.5764  0.5517
  152MOL    H2542607   4.981   0.897   3.011 -0.3153  0.7645 -0.7785
  152MOL    H2642608   5.094   0.553   3.052  1.6609  1.2233 -1.8832
  152MOL    H2742609   5.086   0.817   3.205 -1.9659 -0.8316  1.4886
  152MOL    H2842610   4.862   0.479   2.988 -1.0731 -0.8676 -0.3254
  152MOL    H2942611   4.664   0.544   2.866  1.4320  1.0212 -2.3208
  152MOL    C3042612   5.253   0.679   3.239 -0.0806 -0.1827  0.6274
  152MOL    C3142613   5.315   0.775   3.316  0.6389  0.0543  0.2038
  152MOL    C3242614   5.440   0.736   3.378  0.3347 -0.1518 -1.1181
  152MOL    C3342615   5.504   0.609   3.364  0.0401 -0.0942 -0.0791
  152MOL    C3442616   5.634   0.580   3.427 -0.1307 -0.0660  0.1304
  152MOL    C3542617   5.700   0.663   3.511  0.7027 -0.1088 -0.0776
  152MOL    C3642618   5.431   0.516   3.296 -0.1594  0.3204  0.0902
  152MOL    C3742619   5.312   0.552   3.228 -0.3969  0.5640  0.0207
  152MOL    H3842620   5.280   0.877   3.322  1.9004  0.5565 -0.6056
  152MOL    H3942621   5.479   0.819   3.436 -1.0689 -0.9518  1.0383
  152MOL    H4042622   5.674   0.482   3.404  0.7187  0.0361  1.1544
  152MOL    H4142623   5.641   0.752   3.528  0.0871 -0.4232 -0.5710
  152MOL    H4242624   5.456   0.411   3.295  0.6762  0.4706 -3.3278
  152MOL    H4342625   5.257   0.477   3.172  1.2107  0.5455 -1.5923
  152MOL    C4442626   5.828   0.647   3.579 -0.5595 -0.2954 -0.6057
  152MOL    C4542627   5.909   0.535   3.556  0.1949  0.4451  0.6062
  152MOL    C4642628   6.042   0.543   3.608 -0.2894 -0.1366  0.0023
  152MOL    C4742629   6.100   0.663   3.663 -0.2417  0.5290  0.1677
  152MOL    C4842630   6.239   0.675   3.704 -0.0917  0.1113  0.3090
  152MOL    C4942631   6.332   0.586   3.667 -0.9786  0.3648  0.4697
  152MOL    C5042632   6.018   0.777   3.674 -0.7548  0.4380 -0.6413
  152MOL    C5142633   5.887   0.768   3.632  0.4843  0.4727 -0.6734
  152MOL    H5242634   5.882   0.446   3.500 -0.9682  0.1471  1.6168
  152MOL    H5342635   6.111   0.459   3.602 -0.1993 -0.0489 -0.1759
  152MOL    H5442636   6.265   0.761   3.763 -3.6636 -0.0858  2.2723
  152MOL    H5542637   6.299   0.506   3.604 -0.4165  0.1250  0.4777
  152MOL    H5642638   6.056   0.865   3.724  2.4778 -0.7168 -0.9487
  152MOL    H5742639   5.825   0.857   3.632 -0.0959  0.0769 -1.1196
  152MOL    C5842640   6.478   0.591   3.712 -0.1330 -0.0361 -0.4835
  152MOL    C5942641   6.522   0.679   3.815 -0.0304  0.3784  0.4314
  152MOL    C6042642   6.662   0.676   3.857  0.0310 -0.4568 -0.8933
  152MOL    C6142643   6.759   0.596   3.789 -1.1122 -0.1619 -0.1452
  152MOL    C6242644   6.898   0.596   3.830 -0.7441  0.3104  0.7516
  152MOL    C6342645   7.002   0.525   3.780  0.4412 -0.3420  0.8461
  152MOL    C6442646   6.710   0.516   3.680 -0.5453  0.0959 -0.8943
  152MOL    C6542647   6.573   0.514   3.647  0.6469  0.2773 -0.5478
  152MOL    H6642648   6.449   0.731   3.875 -2.3381 -1.8567 -0.3569
  152MOL    H6742649   6.686   0.734   3.945  0.6465 -0.0278 -1.3388
  152MOL    H6842650   6.916   0.675   3.901 -0.6399  0.9340  0.0383
  152MOL    H6942651   6.993   0.445   3.708  1.2971 -0.1131  0.4806
  152MOL    H7042652   6.783   0.455   3.628  0.5065 -0.9482  1.7320
  152MOL    H7142653   6.547   0.471   3.551 -0.7844  2.9192 -1.3991
  152MOL    C7242654   7.143   0.547   3.821 -0.8173 -0.0237  0.8367
  152MOL    C7342655   7.240   0.530   3.717 -0.1206 -0.2674  0.1617
  152MOL    C7442656   7.379   0.541   3.735  0.2030 -0.8499  0.0326
  152MOL    C7542657   7.427   0.586   3.855 -0.6620 -0.9241  0.0642
  152MOL    C7642658   7.572   0.618   3.872  0.0771 -0.3585 -0.2040
  152MOL    C7742659   7.673   0.593   3.786 -0.3269 -0.4980  0.8226
  152MOL    C7842660   7.339   0.601   3.962  1.2345  0.2805  0.0739
  152MOL    C7942661   7.200   0.574   3.946 -0.6023  0.0450  0.0805
  152MOL    H8042662   7.204   0.505   3.618  0.6679  0.6894 -0.3761
  152MOL    H8142663   7.434   0.533   3.642 -0.6979 -0.0261 -0.5904
  152MOL    H8242664   7.596   0.654   3.970 -0.9356 -1.1116  0.3411
  152MOL    H8342665   7.653   0.540   3.694  2.6558 -1.7955  0.8486
  152MOL    H8442666   7.380   0.620   4.060  2.8939  1.0072 -0.7413
  152MOL    H8542667   7.132   0.582   4.030 -1.2227  2.0023 -0.5723
  152MOL    C8642668   7.817   0.633   3.805  0.0611 -0.6648  0.6385
  152MOL    C8742669   7.899   0.649   3.693  0.4984  0.3266  0.9586
  152MOL    C8842670   8.036   0.685   3.717 -0.2554 -0.0590  0.2447
  152MOL    C8942671   8.096   0.700   3.842 -0.0388  0.1496  0.2212
  152MOL    C9042672   0.089   0.736   3.863 -0.3697  0.1600  0.4325
  152MOL    C9142673   0.173   0.789   3.770 -0.0241 -0.6156 -0.3579
  152MOL    C9242674   8.010   0.673   3.945  0.2349 -0.5757 -0.2152
  152MOL    C9342675   7.872   0.636   3.936  0.7094  0.0996 -0.1513
  152MOL    H9442676   7.856   0.636   3.595  0.2134 -1.2263  1.2663
  152MOL    H9542677   8.100   0.702   3.632  0.6223 -0.7980  0.7519
  152MOL    H9642678   0.133   0.727   3.961  2.0520 -0.8266 -0.6983
  152MOL    H9742679   0.134   0.813   3.672 -3.5600  0.5285  1.2605
  152MOL    H9842680   8.056   0.670   4.042 -1.1089 -0.3017  0.4479
  152MOL    H9942681   7.807   0.604   4.016 -1.1700  1.2681 -1.1788
  152MOL   C10042682   0.314   0.826   3.792  0.4626  0.3464  0.1534
  152MOL   C10142683   0.384   0.861   3.676 -0.2141  0.2457  0.1624
  152MOL   C10242684   0.522   0.906   3.678 -0.2331 -0.3768 -0.0582
  152MOL   C10342685   0.592   0.913   3.803  0.1143 -0.4558  0.2701
  152MOL   C10442686   0.731   0.960   3.817 -0.2866 -0.2657  0.0420
  152MOL   C10542687   0.814   1.007   3.718  0.2149 -0.0158  0.3238
  152MOL   C10642688   0.514   0.882   3.921  0.4408  0.4334  0.1466
  152MOL   C10742689   0.380   0.837   3.920  1.2159 -0.6116 -0.6864
  152MOL   H10842690   0.337   0.845   3.580  0.4981 -0.1389 -0.1263
  152MOL   H10942691   0.578   0.918   3.586 -1.2455  3.2790 -0.2757
  152MOL   H11042692   0.771   0.976   3.916  1.6796 -1.0532 -0.5897
  152MOL   H11142693   0.764   1.006   3.622 -0.5687  0.5965  0.7189
  152MOL   H11242694   0.568   0.893   4.014  0.6840 -0.5476  0.1248
  152MOL   H11342695   0.333   0.809   4.013  1.2711  1.0836 -0.1419
  152MOL   C11442696   0.947   1.066   3.726 -0.1407  0.4361  0.4070
  152MOL   C11542697   1.024   1.079   3.842  0.0073  1.0588  0.5283
  152MOL   C11642698   1.155   1.137   3.836  0.5375  1.2242 -0.0632
  152MOL   C11742699   1.212   1.174   3.713  0.2355 -0.2209 -0.5844
  152MOL   C11842700   1.344   1.247   3.724  0.3195 -0.1226 -0.2377
  152MOL   C11942701   1.399   1.316   3.626 -0.1478  0.6372  0.4544
  152MOL   C12042702   1.126   1.174   3.597  0.4208 -0.8180 -0.2917
  152MOL   C12142703   1.001   1.119   3.606  0.5442  0.6360 -0.5017
  152MOL   H12242704   0.988   1.048   3.939 -3.0022  1.9748 -0.2539
  152MOL   H12342705   1.208   1.144   3.930  1.5417 -1.4865 -0.3864
  152MOL   H12442706   1.398   1.232   3.817  0.4112  0.6959 -0.1530
  152MOL   H12542707   1.347   1.337   3.534 -0.0563 -0.4193  0.1533
  152MOL   H12642708   1.163   1.207   3.501 -0.4934  2.9030  0.5717
  152MOL   H12742709   0.953   1.114   3.510 -0.3767  2.1395 -0.1479
  152MOL   C12842710   1.524   1.386   3.641 -0.4945  0.0930  0.3946
  152MOL   C12942711   1.575   1.426   3.765  0.8125 -1.0911 -0.0258
  152MOL   C13042712   1.706   1.479   3.781 -0.4941 -0.5174 -0.3015
  152MOL   C13142713   1.787   1.497   3.670 -0.5433 -0.2172  0.6888
  152MOL   C13242714   1.917   1.559   3.677 -0.7305  0.0109 -0.6334
  152MOL   C13342715   1.980   1.598   3.789 -0.1516  0.3122  0.6318
  152MOL   C13442716   1.730   1.467   3.543 -0.1931 -0.7406 -0.5809
  152MOL   C13542717   1.601   1.411   3.528  0.4716 -0.4907  0.2099
  152MOL   H13642718   1.515   1.412   3.853  0.4289  1.4815  0.1548
  152MOL   H13742719   1.742   1.496   3.881 -0.8722  0.9095 -0.4009
  152MOL   H13842720   1.959   1.564   3.577 -3.4166  0.6977 -1.7662
  152MOL   H13942721   1.928   1.587   3.883 -1.2611  2.5480  0.3230
  152MOL   H14042722   1.797   1.486   3.460 -0.9604  1.0173 -0.8222
  152MOL   H14142723   1.579   1.382   3.427  0.4791  0.3026 -0.0273
  152MOL   C14242724   2.118   1.655   3.795  0.5086 -0.7897 -0.0941
  152MOL   C14342725   2.160   1.696   3.917 -0.2074  0.1665 -0.3083
  152MOL   C14442726   2.293   1.728   3.941  0.8992  0.1563 -0.4389
  152MOL   C14542727   2.385   1.721   3.834  0.0642 -0.4450  0.2275
  152MOL   C14642728   2.529   1.763   3.850 -0.4183  0.1090 -0.2331
  152MOL   C14742729   2.573   1.831   3.959  0.0810  0.1476  0.1725
  152MOL   C14842730   2.337   1.688   3.704 -1.0155  0.2408 -0.6290
  152MOL   C14942731   2.203   1.645   3.688  0.0774  0.1077  0.9697
  152MOL   H15042732   2.095   1.715   4.002  0.2034  2.4753 -0.4695
  152MOL   H15142733   2.312   1.765   4.040 -1.4495  0.3857 -0.0317
  152MOL   H15242734   2.585   1.728   3.764  1.3316  0.4616  0.7541
  152MOL   H15342735   2.505   1.861   4.038 -0.8966  3.1556 -1.7115
  152MOL   H15442736   2.405   1.690   3.621  0.3479 -3.0617  0.3334
  152MOL   H15542737   2.161   1.610   3.595 -1.2926  0.7897  1.3031
  152MOL   C15642738   2.710   1.873   3.971 -1.1917  0.0044 -0.1125
  152MOL   C15742739   2.805   1.847   3.869  0.0610  0.1198 -0.0754
  152MOL   C15842740   2.932   1.901   3.877  0.1087  0.6147  0.8709
  152MOL   C15942741   2.970   1.963   3.993  0.8731  0.3699 -0.3649
  152MOL   C16042742   3.109   2.012   4.008 -0.5107 -0.3170  0.0990
  152MOL   C16142743   3.164   2.075   4.111  0.0832  0.2536 -0.6117
  152MOL   C16242744   2.883   1.987   4.102 -0.1362 -0.2633  0.2426
  152MOL   C16342745   2.753   1.947   4.084  1.1097  0.5810 -0.1493
  152MOL   H16442746   2.786   1.794   3.777  3.8323 -1.1536 -0.2169
  152MOL   H16542747   3.000   1.892   3.793 -0.5311 -0.6188  0.4745
  152MOL   H16642748   3.181   2.001   3.928 -0.2799 -0.3352  0.3097
  152MOL   H16742749   3.106   2.094   4.199  2.6056  2.7085  0.6227
  152MOL   H16842750   2.910   2.029   4.198  0.8226 -0.2212 -0.0370
  152MOL   H16942751   2.679   1.966   4.160 -0.9701 -0.7148 -1.7922
  152MOL   C17042752   3.310   2.120   4.127 -0.7051 -0.0291  0.2566
  152MOL   C17142753   3.349   2.157   4.258 -0.3621  0.4849  0.2582
  152MOL   C17242754   3.486   2.191   4.285  0.6838 -0.0274 -0.2512
  152MOL   C17342755   3.580   2.200   4.186 -0.1182  0.3381  0.5504
  152MOL   C17442756   3.719   2.238   4.209 -0.3691 -0.1465 -1.0804
  152MOL   C17542757   3.756   2.291   4.323 -0.0178  0.4081 -0.2124
  152MOL   C17642758   3.545   2.155   4.058 -0.0068 -0.2335  0.9537
  152MOL   C17742759   3.410   2.120   4.030 -0.0847 -0.2444 -0.1612
  152MOL   H17842760   3.281   2.152   4.342  1.7074  0.7213  1.9821
  152MOL   H17942761   3.498   2.230   4.384 -0.9863  0.2513 -0.1350
  152MOL   H18042762   3.787   2.216   4.128 -0.4519 -0.9654 -0.9346
  152MOL   H18142763   3.690   2.308   4.407  2.1795  0.3572  1.5752
  152MOL   H18242764   3.611   2.149   3.972 -1.0381 -1.3463  0.2162
  152MOL   H18342765   3.381   2.077   3.935  3.2264 -0.5220 -1.1241
  152MOL   C18442766   3.894   2.338   4.361 -0.1256  0.0913  0.0812
  152MOL   C18542767   3.914   2.412   4.480  0.2376 -0.2650  0.0957
  152MOL   C18642768   4.041   2.464   4.512 -0.6517  0.4661  0.0909
  152MOL   C18742769   4.147   2.457   4.423 -0.7225  0.2784 -0.1945
  152MOL   C18842770   4.272   2.517   4.463 -0.0996 -0.2129  0.0909
  152MOL   C18942771   4.387   2.491   4.391  0.5014  0.1207 -0.0914
  152MOL   C19042772   4.124   2.389   4.300 -0.4354  0.0787  0.2225
  152MOL   C19142773   4.004   2.324   4.269 -0.1192 -0.3583 -0.4513
  152MOL   H19242774   3.835   2.430   4.552  1.0562  0.1527  0.9016
  152MOL   H19342775   4.057   2.516   4.605 -0.4976  0.8852 -0.1661
  152MOL   H19442776   4.270   2.580   4.551  1.4605 -0.4682  0.3337
  152MOL   H19542777   4.378   2.437   4.298 -0.4494  1.5380 -0.8559
  152MOL   H19642778   4.211   2.380   4.238  0.5455 -0.6710  1.6745
  152MOL   H19742779   3.990   2.276   4.173 -1.5994  1.7450 -1.3254
  152MOL   C19842780   4.523   2.532   4.424  0.2895  0.3203 -0.8802
  152MOL   C19942781   4.546   2.596   4.552 -0.2288 -0.0735 -0.0624
  152MOL   C20042782   4.675   2.638   4.580 -0.2812  0.4434  0.0340
  152MOL   C20142783   4.783   2.613   4.485  0.1773  0.1489 -0.6780
  152MOL   C20242784   4.927   2.643   4.509  0.6483  0.3895 -0.1020
  152MOL   C20342785   4.977   2.721   4.602  0.0142 -0.4219 -0.1118
  152MOL   C20442786   4.760   2.547   4.365  0.1728  0.5794  0.3303
  152MOL   C20542787   4.626   2.515   4.333  0.5387 -0.4364 -0.4561
  152MOL   H20642788   4.468   2.615   4.624 -0.4135  0.3912 -0.3868
  152MOL   H20742789   4.699   2.682   4.676  1.4136 -0.1153 -0.1054
  152MOL   H20842790   4.992   2.601   4.434  1.3040  0.2999  0.5040
  152MOL   H20942791   4.910   2.757   4.678 -2.0293 -2.2077 -1.0203
  152MOL   H21042792   4.844   2.519   4.303  1.5423 -0.0632  2.4277
  152MOL   H21142793   4.603   2.454   4.246 -1.0367 -3.1118  1.7523
  152MOL   C21242794   5.120   2.762   4.613 -0.4190 -0.1132  0.3337
  152MOL   C21342795   5.153   2.830   4.732  0.0150 -0.4179 -0.3137
  152MOL   C21442796   5.290   2.877   4.752  0.4298  0.2610 -0.7046
  152MOL   C21542797   5.389   2.845   4.655  0.0001 -0.6567  0.0159
  152MOL   C21642798   5.532   2.885   4.671  0.7061  0.5157  0.1585
  152MOL   C21742799   5.586   2.957   4.778  0.1823 -0.2429  0.2001
  152MOL   C21842800   5.351   2.772   4.537  0.1239  0.4976  0.1558
  152MOL   C21942801   5.218   2.730   4.515  0.2416 -0.0570 -0.0958
  152MOL   H22042802   5.079   2.858   4.805  0.3070 -0.9718  0.2002
  152MOL   H22142803   5.316   2.937   4.838 -1.2664  1.8044 -1.2486
  152MOL   H22242804   5.592   2.846   4.591  0.4924 -0.8485  0.6477
  152MOL   H22342805   5.521   2.992   4.857 -0.9779 -1.2281 -0.2937
  152MOL   H22442806   5.425   2.736   4.467 -1.5792 -0.4177 -1.2079
  152MOL   H22542807   5.194   2.678   4.424 -0.9052  2.7229 -1.4265
  152MOL   C22642808   5.726   2.979   4.791  0.3018  0.4980 -0.2631
  152MOL   C22742809   5.774   3.101   4.833 -0.2210  0.2187 -0.0628
  152MOL   C22842810   5.911   3.126   4.850 -0.7393 -0.1914  0.5419
  152MOL   C22942811   6.006   3.026   4.822 -0.2717 -0.7127 -0.2901
  152MOL   C23042812   6.149   3.061   4.843  0.2454  0.1896 -0.5352
  152MOL   C23142813   6.247   2.998   4.782 -0.4500  0.3600 -0.1186
  152MOL   C23242814   5.958   2.902   4.766  0.5681  0.4440  0.1327
  152MOL   C23342815   5.818   2.875   4.757  0.3526  0.9615 -0.1796
  152MOL   H23442816   5.711   3.187   4.855  0.6597  0.5784  1.1478
  152MOL   H23542817   5.944   3.224   4.879  0.3697 -0.1654 -0.7133
  152MOL   H23642818   6.170   3.146   4.907  2.0804  0.2582 -1.1956
  152MOL   H23742819   6.217   2.921   4.713 -2.0442 -0.0403  0.9874
  152MOL   H23842820   6.022   2.821   4.734  2.5229  1.6967  0.7583
  152MOL   H23942821   5.787   2.775   4.732  1.0848  0.6204  0.2508
  152MOL   C24042822   6.392   3.013   4.788 -0.5504  0.3844 -0.0497
  152MOL   C24142823   6.482   2.952   4.697  0.1621  0.2185  0.0475
  152MOL   C24242824   6.623   2.988   4.698  0.3500  0.2046 -0.1514
  152MOL   C24342825   6.669   3.082   4.790  0.9288  0.4392  0.2136
  152MOL   C24442826   6.812   3.123   4.801  0.5043 -0.2398 -0.8096
  152MOL   C24542827   6.918   3.107   4.720  0.5207  0.5876 -0.2480
  152MOL   C24642828   6.581   3.143   4.874  0.6130  0.2380 -0.1635
  152MOL   C24742829   6.448   3.104   4.873 -0.5868  0.2029 -0.3384
  152MOL   H24842830   6.445   2.886   4.619  3.4463  0.2258 -1.6093
  152MOL   H24942831   6.697   2.955   4.627 -0.4078  0.5065 -1.0892
  152MOL   H25042832   6.837   3.171   4.894  2.5818 -2.3327 -0.2179
  152MOL   H25142833   6.900   3.050   4.630  0.5081 -0.7461  0.5789
  152MOL   H25242834   6.631   3.213   4.941  0.4464  1.2323 -1.0659
  152MOL   H25342835   6.381   3.160   4.936 -2.4610 -1.1437 -1.0820
  152MOL   C25442836   7.054   3.158   4.745 -0.1865  0.0409  0.4589
  152MOL   C25542837   7.158   3.111   4.661  0.0874  0.5460  0.1967
  152MOL   C25642838   7.292   3.145   4.689  0.5482 -0.1219  0.3157
  152MOL   C25742839   7.327   3.225   4.799 -0.0306 -0.7554  0.3505
  152MOL   C25842840   7.469   3.264   4.824  0.8325 -0.3883 -0.4489
  152MOL   C25942841   7.577   3.278   4.748  0.1050  0.7220 -0.3077
  152MOL   C26042842   7.226   3.271   4.882 -0.0381  0.7558  0.1003
  152MOL   C26142843   7.091   3.241   4.854  0.3806 -0.0171 -0.1447
  152MOL   H26242844   7.129   3.050   4.577  0.3725 -0.9443  1.1683
  152MOL   H26342845   7.371   3.112   4.623  0.3722 -0.5127  0.3005
  152MOL   H26442846   7.486   3.278   4.930 -1.8045 -1.5394  0.1795
  152MOL   H26542847   7.665   3.301   4.807 -1.2823  2.6836  1.0369
  152MOL   H26642848   7.249   3.337   4.964  2.0723 -1.3307  1.2651
  152MOL   H26742849   7.009   3.276   4.915  0.9370  1.2678 -0.1188
  152MOL   C26842850   7.614   3.272   4.607 -0.4856 -0.3489  0.0799
  152MOL   C26942851   7.526   3.291   4.500  0.6352 -0.3653 -0.3750
  152MOL   C27042852   7.573   3.289   4.368 -0.5024 -0.6879 -0.0426
  152MOL   C27142853   7.714   3.264   4.341  0.2462 -0.0607  0.5042
  152MOL   C27242854   7.752   3.243   4.196 -0.7861  0.1313 -0.0360
  152MOL   C27342855   7.852   3.166   4.143  0.1305 -0.2729 -0.7309
  152MOL   C27442856   7.805   3.253   4.451  0.2398  0.5903 -0.4837
  152MOL   C27542857   7.754   3.257   4.581 -0.5244  0.2312  0.4154
  152MOL   H27642858   7.423   3.317   4.520 -0.2428 -3.6530 -0.3526
  152MOL   H27742859   7.502   3.285   4.287 -2.9887 -1.3110  2.0679
  152MOL   H27842860   7.696   3.303   4.126  0.3651  0.0079 -1.0723
  152MOL   H27942861   7.914   3.099   4.201  1.1068  1.1793 -0.0813
  152MOL   H28042862   7.911   3.241   4.437  0.2249 -1.0917  0.7884
  152MOL   H28142863   7.825   3.243   4.661  0.1156  0.2944 -0.1367
  152MOL   H28242864   7.863   3.166   4.035 -0.4200 -0.6913 -0.7893
  153MOL     C142865   4.312   1.824   8.070  0.0119  0.8271 -0.0494
  153MOL     C242866   4.433   1.881   8.020  0.7955 -0.0220 -0.1317
  153MOL     C342867   4.543   1.911   8.106  0.2762  0.0506 -0.2358
  153MOL     C442868   4.537   1.862   0.094 -0.4434  0.4988  0.7241
  153MOL     C542869   4.658   1.886   0.183 -0.3189  0.5810  0.2039
  153MOL     C642870   4.638   1.925   0.310 -0.3750  0.4632 -0.3958
  153MOL     C742871   4.417   1.802   0.142 -0.0584  0.0437  0.1303
  153MOL     C842872   4.305   1.786   0.059 -0.3144  0.4702  0.0094
  153MOL     H942873   4.427   1.911   7.917  0.0283 -0.1331 -0.1232
  153MOL    H1042874   4.629   1.963   8.066 -1.6096  2.7698 -0.9253
  153MOL    H1142875   4.755   1.874   0.139 -0.8007  1.3871 -1.1295
  153MOL    H1242876   4.536   1.928   0.344 -0.5353  0.4061 -0.8673
  153MOL    H1342877   4.407   1.772   0.246 -0.6938  0.1559  0.1022
  153MOL    H1442878   4.207   1.758   0.094  0.2172  0.1148  1.2420
  153MOL    H1542879   4.224   1.816   8.006 -0.1287  2.3295 -0.0497
  153MOL    C1642880   4.746   1.939   0.411 -0.2514  0.3174 -0.0524
  153MOL    C1742881   4.884   1.941   0.377  0.4987  0.0654 -0.4689
  153MOL    C1842882   4.980   1.948   0.479 -0.3921  0.5321 -0.6735
  153MOL    C1942883   4.932   1.956   0.614  0.5420 -0.4611 -0.2366
  153MOL    C2042884   5.022   1.961   0.722 -0.3103  0.4483 -0.2952
  153MOL    C2142885   5.161   1.950   0.709  0.1276  0.4166  0.2299
  153MOL    C2242886   4.799   1.945   0.644  0.2626 -0.1355  0.3970
  153MOL    C2342887   4.704   1.944   0.539 -0.1152 -0.6115 -0.4438
  153MOL    H2442888   4.904   1.938   0.271  0.6039 -0.9654 -0.4299
  153MOL    H2542889   5.085   1.944   0.456 -0.3636 -0.0768 -0.4434
  153MOL    H2642890   4.974   1.972   0.818 -1.9104  1.6857 -1.2126
  153MOL    H2742891   5.216   1.937   0.617  2.1999 -0.2432  1.5170
  153MOL    H2842892   4.767   1.948   0.747 -0.8686  0.2819  0.0395
  153MOL    H2942893   4.602   1.949   0.574 -0.1213  2.3861 -0.7078
  153MOL    C3042894   5.262   1.961   0.820  0.3060  0.9500  0.8888
  153MOL    C3142895   5.399   1.945   0.785  0.0605  0.3849  0.1587
  153MOL    C3242896   5.505   1.942   0.876  0.4422  0.1848 -0.1926
  153MOL    C3342897   5.474   1.967   1.014 -0.2304  0.3354 -0.3673
  153MOL    C3442898   5.577   1.969   1.120 -0.4748  0.3515 -0.2949
  153MOL    C3542899   5.699   1.910   1.106  0.0759 -0.1920  0.4785
  153MOL    C3642900   5.340   1.995   1.053 -0.0450 -0.3207 -1.1223
  153MOL    C3742901   5.238   1.991   0.956  0.0485 -0.9781 -0.0889
  153MOL    H3842902   5.424   1.947   0.680 -2.4321 -0.1140 -0.4818
  153MOL    H3942903   5.609   1.942   0.848  0.1249  2.5157 -1.5483
  153MOL    H4042904   5.557   2.028   1.209  1.6211 -1.1190  1.2078
  153MOL    H4142905   5.708   1.853   1.015  1.1151  0.7207  0.0029
  153MOL    H4242906   5.316   2.023   1.154  0.7334 -2.8319 -0.2210
  153MOL    H4342907   5.143   2.025   0.994  0.2269  1.8943 -2.0552
  153MOL    C4442908   5.813   1.914   1.196  0.3281  0.3080 -0.2297
  153MOL    C4542909   5.812   1.995   1.308  0.2520  0.2008  0.1081
  153MOL    C4642910   5.905   1.977   1.413  0.6247 -0.1734 -0.5328
  153MOL    C4742911   6.010   1.890   1.404  0.0471 -0.0745 -0.5494
  153MOL    C4842912   6.113   1.879   1.506  0.1312 -0.1084  0.4596
  153MOL    C4942913   6.120   1.951   1.619  0.0571  0.5064 -0.2274
  153MOL    C5042914   6.024   1.818   1.283 -0.1652  0.6774  0.9994
  153MOL    C5142915   5.929   1.826   1.182 -0.5226 -0.1332  0.5299
  153MOL    H5242916   5.727   2.056   1.336 -0.1258  0.9308 -2.4996
  153MOL    H5342917   5.892   2.034   1.504 -0.5170  0.3886 -1.0342
  153MOL    H5442918   6.189   1.803   1.492 -2.1068 -2.3914  0.1715
  153MOL    H5542919   6.039   2.018   1.646 -1.4365 -2.1483  2.1646
  153MOL    H5642920   6.114   1.764   1.257 -0.4576 -0.3925  2.1293
  153MOL    H5742921   5.933   1.758   1.098 -3.2784 -0.4565  0.6081
  153MOL    C5842922   6.231   1.950   1.714 -1.0967  0.6248  0.2407
  153MOL    C5942923   6.350   1.880   1.681  0.4967 -0.0002  0.2700
  153MOL    C6042924   6.454   1.866   1.776 -0.1485 -0.0019 -0.7293
  153MOL    C6142925   6.444   1.932   1.906  0.3506 -0.2190  0.1153
  153MOL    C6242926   6.549   1.931   2.004  0.0392 -0.9560 -0.1818
  153MOL    C6342927   6.665   1.857   1.994 -0.4815 -0.2572  0.5187
  153MOL    C6442928   6.321   1.998   1.936  0.0849  0.2415  0.3256
  153MOL    C6542929   6.219   2.010   1.837 -0.0621 -0.1813 -0.0291
  153MOL    H6642930   6.372   1.820   1.593  0.9040 -0.4387  0.6652
  153MOL    H6742931   6.543   1.815   1.742  0.8948  1.0260  0.4272
  153MOL    H6842932   6.529   1.998   2.086  1.4142  3.6011 -3.3473
  153MOL    H6942933   6.677   1.802   1.902  0.5637 -0.4412  0.7479
  153MOL    H7042934   6.300   2.042   2.032 -0.1169  0.4954  0.1632
  153MOL    H7142935   6.128   2.061   1.867  0.6127  0.4864  0.9012
  153MOL    C7242936   6.780   1.837   2.084  0.4493 -0.0009 -0.1769
  153MOL    C7342937   6.776   1.897   2.216  0.3471 -0.5247  0.7167
  153MOL    C7442938   6.887   1.869   2.302 -1.2749 -0.6158  0.1881
  153MOL    C7542939   7.004   1.809   2.257 -0.5268  0.5350  0.1212
  153MOL    C7642940   7.126   1.814   2.351  0.1754 -0.0731  0.0069
  153MOL    C7742941   7.239   1.751   2.335  1.1924  0.4087  0.8897
  153MOL    C7842942   7.012   1.767   2.125 -0.6960 -0.1190  0.2260
  153MOL    C7942943   6.898   1.773   2.037  0.7349 -0.8661  0.0146
  153MOL    H8042944   6.698   1.970   2.233 -1.9419 -2.7847  0.2522
  153MOL    H8142945   6.889   1.920   2.397 -1.4424 -0.0510 -0.1090
  153MOL    H8242946   7.102   1.872   2.439 -0.5455  1.9544 -1.4684
  153MOL    H8342947   7.258   1.695   2.245 -0.1313  0.6317  0.4625
  153MOL    H8442948   7.104   1.724   2.090  0.2357 -0.1725  2.6856
  153MOL    H8542949   6.893   1.731   1.938 -0.8434 -1.7292  0.4568
  153MOL    C8642950   7.347   1.749   2.429 -0.1153  0.4959  0.2980
  153MOL    C8742951   7.344   1.828   2.547  0.2333  0.2585  0.8460
  153MOL    C8842952   7.451   1.835   2.628 -0.1092 -0.3622  0.5862
  153MOL    C8942953   7.572   1.759   2.608 -0.5957  0.1882  0.0140
  153MOL    C9042954   7.671   1.766   2.708  0.2169  0.2868 -0.3207
  153MOL    C9142955   7.779   1.689   2.715  0.2682  0.2085  0.0577
  153MOL    C9242956   7.582   1.680   2.492 -0.3946 -0.0692 -0.2399
  153MOL    C9342957   7.468   1.674   2.403  0.0499 -0.0698 -0.1995
  153MOL    H9442958   7.271   1.904   2.571 -0.1192  1.1276 -2.7498
  153MOL    H9542959   7.434   1.897   2.714 -1.5574  1.0636 -0.7060
  153MOL    H9642960   7.662   1.844   2.783  0.2385 -1.1553  1.2180
  153MOL    H9742961   7.792   1.613   2.639 -2.5495  0.0654 -0.3209
  153MOL    H9842962   7.670   1.621   2.472  0.6011  0.1089  3.2747
  153MOL    H9942963   7.468   1.599   2.325  0.9040  1.1554 -1.3965
  153MOL   C10042964   7.883   1.708   2.826  0.7819  0.8282  0.3642
  153MOL   C10142965   7.994   1.621   2.828 -0.7835  0.3905 -0.5705
  153MOL   C10242966   8.104   1.636   2.911 -1.1365  0.4894  0.6066
  153MOL   C10342967   8.098   1.737   3.003  0.5563 -0.2238 -0.0113
  153MOL   C10442968   0.065   1.752   3.097 -0.4860 -0.5486  0.2051
  153MOL   C10542969   0.168   1.664   3.128 -0.0811  0.5509 -0.5199
  153MOL   C10642970   7.981   1.814   3.016  0.4012 -0.2456  0.3335
  153MOL   C10742971   7.874   1.807   2.922  0.4831 -0.3081  0.2292
  153MOL   H10842972   7.995   1.543   2.753  1.9138  1.3450 -1.6068
  153MOL   H10942973   0.044   1.569   2.915 -0.8495  0.8057 -0.0005
  153MOL   H11042974   0.066   1.856   3.129 -0.9888 -0.5482  0.2287
  153MOL   H11142975   0.174   1.563   3.089 -2.2247 -0.3866  1.4280
  153MOL   H11242976   7.988   1.890   3.094  0.6236  0.6646 -0.5611
  153MOL   H11342977   7.795   1.880   2.933  0.3026 -0.2754 -1.1722
  153MOL   C11442978   0.288   1.697   3.211  0.0039 -0.3162  0.2128
  153MOL   C11542979   0.367   1.585   3.252  0.2102  0.0397  0.0216
  153MOL   C11642980   0.478   1.603   3.338 -0.2842 -1.3473  0.4041
  153MOL   C11742981   0.528   1.734   3.358  1.1619 -0.5333  0.1314
  153MOL   C11842982   0.658   1.764   3.413 -0.1628  0.0803  0.2997
  153MOL   C11942983   0.743   1.678   3.468 -0.6243 -0.1682 -0.3657
  153MOL   C12042984   0.448   1.843   3.315 -0.8812  0.8668  0.3230
  153MOL   C12142985   0.320   1.826   3.249  0.5549  0.3462  0.1671
  153MOL   H12242986   0.339   1.486   3.221 -0.4642  0.3391 -0.3439
  153MOL   H12342987   0.542   1.522   3.371  2.3364  0.1662 -0.8581
  153MOL   H12442988   0.682   1.867   3.394 -3.2791  0.9093  0.6074
  153MOL   H12542989   0.719   1.573   3.479  2.6295 -1.1363 -1.8962
  153MOL   H12642990   0.479   1.946   3.326 -2.1185  1.2891 -0.0341
  153MOL   H12742991   0.249   1.903   3.223 -0.7870 -1.5801 -1.9844
  153MOL   C12842992   0.877   1.694   3.527  1.0292 -0.1393 -0.2942
  153MOL   C12942993   0.955   1.587   3.574 -0.3354  0.0885 -0.1858
  153MOL   C13042994   1.092   1.608   3.610 -0.2492 -0.3463  0.5806
  153MOL   C13142995   1.143   1.744   3.616  0.2166  0.6246 -0.0077
  153MOL   C13242996   1.280   1.763   3.662  0.5215 -0.2624  0.1816
  153MOL   C13342997   1.358   1.868   3.629  0.0718  0.3618  0.2712
  153MOL   C13442998   1.056   1.851   3.584  0.1371 -0.4621  0.1797
  153MOL   C13542999   0.929   1.829   3.528  0.0349  0.2682 -0.2247
  153MOL   H13643000   0.923   1.485   3.582  0.1340  0.0254  1.0931
  153MOL   H13743001   1.153   1.530   3.652 -0.8459 -1.6535 -0.9112
  153MOL   H13843002   1.314   1.690   3.734  0.8807 -1.3958 -1.1046
  153MOL   H13943003   1.321   1.938   3.556  0.4543  1.2711  0.9379
  153MOL   H14043004   1.079   1.956   3.591 -0.5361 -0.3670  0.9745
  153MOL   H14143005   0.871   1.917   3.503  1.8089  1.9546  1.4171
  153MOL   C14243006   1.492   1.890   3.675 -0.2196  0.5835  0.3290
  153MOL   C14343007   1.544   1.827   3.787  0.3195  0.2115 -0.0325
  153MOL   C14443008   1.679   1.843   3.829 -0.1291 -0.2781 -0.3675
  153MOL   C14543009   1.757   1.940   3.760  0.2675 -1.0778 -0.3628
  153MOL   C14643010   1.889   1.982   3.815 -0.1516  0.1859 -0.3114
  153MOL   C14743011   1.944   2.108   3.814 -0.3559  0.3086 -0.0604
  153MOL   C14843012   1.704   2.015   3.654  0.1230 -0.3867  0.0604
  153MOL   C14943013   1.570   1.992   3.618 -0.1111 -0.9719 -0.5098
  153MOL   H15043014   1.482   1.760   3.843  0.8149  0.5780  0.9681
  153MOL   H15143015   1.710   1.788   3.916  2.0950  0.0065 -0.9642
  153MOL   H15243016   1.951   1.906   3.861  2.1965  1.6123 -1.0134
  153MOL   H15343017   1.883   2.186   3.771 -2.2180  0.4754  2.7034
  153MOL   H15443018   1.763   2.091   3.606 -1.8007  0.8527 -0.4032
  153MOL   H15543019   1.541   2.058   3.537  1.1752  0.4288  0.1414
  153MOL   C15643020   2.075   2.141   3.874 -0.0217 -0.2505 -0.2129
  153MOL   C15743021   2.129   2.066   3.977 -0.1443  0.3291 -0.4564
  153MOL   C15843022   2.259   2.092   4.030 -0.0636 -0.0653 -0.1902
  153MOL   C15943023   2.330   2.202   3.980 -0.4691  0.0133 -0.1102
  153MOL   C16043024   2.466   2.230   4.032  1.0749 -0.3150 -0.6707
  153MOL   C16143025   2.557   2.308   3.974 -0.3585  0.7303  0.0377
  153MOL   C16243026   2.277   2.273   3.868  0.2014 -0.1395  0.0062
  153MOL   C16343027   2.151   2.246   3.823  0.3406  0.1666 -0.0678
  153MOL   H16443028   2.072   1.981   4.012 -1.5128  1.0258 -0.9587
  153MOL   H16543029   2.282   2.041   4.122  1.5341  1.3182  0.2011
  153MOL   H16643030   2.492   2.179   4.124  1.4271  2.9298  1.0902
  153MOL   H16743031   2.527   2.348   3.878 -2.4641 -0.8365  0.0213
  153MOL   H16843032   2.335   2.348   3.816  0.1515 -0.3653 -0.3717
  153MOL   H16943033   2.111   2.309   3.744  1.3178  0.4235 -0.3592
  153MOL   C17043034   2.692   2.339   4.020  0.2682 -0.0230  1.0333
  153MOL   C17143035   2.737   2.306   4.149 -0.4853 -0.4858 -0.3245
  153MOL   C17243036   2.866   2.352   4.195 -0.2085 -0.1566  0.0688
  153MOL   C17343037   2.956   2.411   4.100 -0.6916  0.1352  0.9623
  153MOL   C17443038   3.090   2.460   4.122  0.0114  0.0931 -0.0299
  153MOL   C17543039   3.152   2.477   4.240  0.1120  0.6679  0.5076
  153MOL   C17643040   2.909   2.430   3.964  0.1515 -0.1683  1.0189
  153MOL   C17743041   2.780   2.399   3.925  0.3010 -0.2099  0.3205
  153MOL   H17843042   2.672   2.249   4.213  0.0229 -2.0255 -1.1469
  153MOL   H17943043   2.905   2.338   4.294  0.3237 -0.1170 -0.1292
  153MOL   H18043044   3.152   2.491   4.040 -1.4114  5.0032  0.5651
  153MOL   H18143045   3.088   2.464   4.326 -2.8853  0.4904 -1.6625
  153MOL   H18243046   2.982   2.466   3.893  1.7305  0.1006  2.7349
  153MOL   H18343047   2.740   2.416   3.826  0.1090 -3.4475 -0.2068
  153MOL   C18443048   3.291   2.512   4.270  0.1651 -0.0167  0.4084
  153MOL   C18543049   3.330   2.500   4.405 -0.2953  0.1275  0.2915
  153MOL   C18643050   3.457   2.542   4.448  0.3123 -0.5158 -0.1275
  153MOL   C18743051   3.546   2.609   4.361 -0.5801  0.1556 -0.4107
  153MOL   C18843052   3.659   2.675   4.417 -1.1419  0.7776 -0.2517
  153MOL   C18943053   3.769   2.699   4.347  0.2532  0.0014  0.0297
  153MOL   C19043054   3.520   2.613   4.224  0.7640  0.6799 -0.3902
  153MOL   C19143055   3.395   2.563   4.180 -0.0192 -0.6601  0.7515
  153MOL   H19243056   3.260   2.461   4.477 -1.1320  1.3534  0.1732
  153MOL   H19343057   3.488   2.531   4.551  0.9583  0.0216 -0.2679
  153MOL   H19443058   3.649   2.701   4.521  0.6875 -0.8772  0.3683
  153MOL   H19543059   3.778   2.661   4.246 -1.1250 -0.6371  0.1409
  153MOL   H19643060   3.596   2.656   4.161  1.5979  0.1685  0.2602
  153MOL   H19743061   3.381   2.582   4.075  1.2157  1.3495  0.9070
  153MOL   C19843062   3.897   2.758   4.386 -0.0977  0.1130 -0.2141
  153MOL   C19943063   4.003   2.769   4.295 -0.0924 -0.5633  0.2153
  153MOL   C20043064   4.126   2.826   4.338  0.3008  0.3839  0.1112
  153MOL   C20143065   4.150   2.851   4.474  0.0114 -0.0206 -0.0609
  153MOL   C20243066   4.282   2.906   4.514  0.2347  0.6150 -1.0732
  153MOL   C20343067   4.307   2.979   4.625  0.7021  0.4342 -0.1720
  153MOL   C20443068   4.044   2.844   4.568  1.0464 -0.6043 -0.5146
  153MOL   C20543069   3.918   2.797   4.521  0.3961  0.1740 -0.3345
  153MOL   H20643070   3.988   2.735   4.194  0.3825 -0.0443 -0.0340
  153MOL   H20743071   4.206   2.850   4.271  0.1777  2.1020  0.5573
  153MOL   H20843072   4.360   2.880   4.444 -0.5357 -1.6898 -1.0933
  153MOL   H20943073   4.227   2.996   4.696 -0.1349 -2.4907 -0.3477
  153MOL   H21043074   4.051   2.867   4.673 -1.1923  3.2286 -1.1046
  153MOL   H21143075   3.846   2.788   4.601  1.5850  1.0150  0.8508
  153MOL   C21243076   4.441   3.028   4.663  0.9071 -0.7912 -0.1548
  153MOL   C21343077   4.563   2.962   4.637  0.0808 -0.4067 -0.4273
  153MOL   C21443078   4.690   3.025   4.667  0.6745  0.7920 -0.1265
  153MOL   C21543079   4.689   3.147   4.742  0.7514 -0.6014  0.5559
  153MOL   C21643080   4.814   3.210   4.783  0.3922  0.1719 -0.4130
  153MOL   C21743081   4.941   3.192   4.742 -0.0373  0.0598 -0.1204
  153MOL   C21843082   4.570   3.202   4.778  0.7021  0.1040 -0.4532
  153MOL   C21943083   4.448   3.149   4.734  0.4941 -0.2766 -0.0338
  153MOL   H22043084   4.565   2.871   4.579  1.9834 -0.8055  0.2233
  153MOL   H22143085   4.786   2.978   4.651  0.9132  0.6889  1.5341
  153MOL   H22243086   4.797   3.274   4.867 -1.2132 -1.5519  0.6260
  153MOL   H22343087   4.958   3.126   4.659 -1.9164  4.1114 -3.9363
  153MOL   H22443088   4.576   3.291   4.838  2.9175 -0.7641  0.6462
  153MOL   H22543089   4.360   3.206   4.759  1.1369  0.6920  0.0586
  153MOL   C22643090   5.065   3.255   4.793  0.3153  0.0022  0.5293
  153MOL   C22743091   5.190   3.218   4.727 -1.0687 -0.0681  0.1991
  153MOL   C22843092   5.309   3.291   4.757  0.1081 -0.0039  0.0727
  153MOL   C22943093   5.313   3.378   4.868 -0.0469 -0.3613 -0.0796
  153MOL   C23043094   5.449   3.436   4.896  0.3674  0.6862 -0.1424
  153MOL   C23143095   5.478   3.511   5.009  0.0890 -0.2482  0.4507
  153MOL   C23243096   5.203   3.393   4.944  1.1551  0.1351 -0.0305
  153MOL   C23343097   5.070   3.354   4.895 -1.0698  0.3370 -0.2865
  153MOL   H23443098   5.198   3.141   4.653 -2.4536 -1.4745  1.4780
  153MOL   H23543099   5.395   3.264   4.698  0.3162 -0.5606  0.6169
  153MOL   H23643100   5.522   3.414   4.820  0.4027  0.4710 -0.0466
  153MOL   H23743101   5.401   3.532   5.082 -1.4149  2.5722 -1.8458
  153MOL   H23843102   5.224   3.453   5.032 -1.4643 -0.1499  0.8322
  153MOL   H23943103   4.988   3.374   4.963 -2.2923  0.2751 -1.7020
  153MOL   C24043104   5.603   3.577   5.035 -0.2543 -0.1450 -0.2946
  153MOL   C24143105   5.709   3.579   4.941 -0.5430 -0.2929  0.6601
  153MOL   C24243106   5.833   3.648   4.962 -0.3067 -0.1735  0.0793
  153MOL   C24343107   5.851   3.705   5.086 -0.8425 -0.5489  0.4479
  153MOL   C24443108   5.974   3.780   5.116 -0.3310  0.2787 -0.2389
  153MOL   C24543109   6.073   3.812   5.034  0.3407 -0.4486  0.7339
  153MOL   C24643110   5.750   3.705   5.185 -0.5929  0.7975 -0.8199
  153MOL   C24743111   5.630   3.646   5.154  0.6856  0.3512  0.4580
  153MOL   H24843112   5.698   3.530   4.845 -0.6712 -0.2300  0.6434
  153MOL   H24943113   5.902   3.671   4.882 -0.4590 -3.3151 -1.0323
  153MOL   H25043114   5.986   3.804   5.221  1.6724 -2.1236  0.1258
  153MOL   H25143115   6.058   3.794   4.928 -3.2670  0.5407  0.9913
  153MOL   H25243116   5.757   3.760   5.278 -0.5361 -1.4386  0.5352
  153MOL   H25343117   5.554   3.649   5.231 -0.7499  1.7002 -0.9535
  153MOL   C25443118   6.196   3.870   5.068 -0.4273 -0.2069 -0.0798
  153MOL   C25543119   6.253   3.841   5.192 -0.3739 -0.1331  0.2925
  153MOL   C25643120   6.372   3.899   5.232 -0.4061 -0.7977  0.8271
  153MOL   C25743121   6.438   3.987   5.145  0.2952  0.0408 -0.3770
  153MOL   C25843122   6.564   4.054   5.181 -0.6022 -0.4662  0.0542
  153MOL   C25943123   6.595   4.185   5.175  0.2633  0.1440 -0.9460
  153MOL   C26043124   6.385   4.010   5.019 -0.5248 -0.4093 -0.0102
  153MOL   C26143125   6.263   3.954   4.977  0.1617  0.0101 -0.5416
  153MOL   H26243126   6.205   3.781   5.267  0.3938 -1.8371 -0.5397
  153MOL   H26343127   6.424   3.882   5.325 -0.7157  2.5754  1.6857
  153MOL   H26443128   6.644   3.988   5.213 -0.4391 -0.9265 -1.2567
  153MOL   H26543129   6.699   4.207   5.195  0.2167  0.8734 -1.4931
  153MOL   H26643130   6.432   4.083   4.955 -1.1126  1.0161  1.1428
  153MOL   H26743131   6.212   3.982   4.886  0.7143 -0.4014 -0.9813
  153MOL   C26843132   6.501   4.300   5.153  0.1936 -0.2865 -0.3633
  153MOL   C26943133   6.363   4.294   5.188 -0.0965 -0.3430  0.1279
  153MOL   C27043134   6.286   4.400   5.145 -0.7357 -0.8557  0.1929
  153MOL   C27143135   6.339   4.521   5.095  0.8335 -0.3799  0.7423
  153MOL   C27243136   6.251   4.637   5.073 -0.4413 -0.4748  0.3200
  153MOL   C27343137   6.119   4.632   5.043 -0.0834 -0.0226 -0.5110
  153MOL   C27443138   6.474   4.530   5.074  0.3707 -0.1960 -0.4157
  153MOL   C27543139   6.554   4.415   5.095 -0.4709  0.0908  1.0073
  153MOL   H27643140   6.314   4.204   5.223 -2.7283  0.5504 -1.1927
  153MOL   H27743141   6.180   4.391   5.165 -1.4215  0.9450 -2.3405
  153MOL   H27843142   6.307   4.729   5.083  0.4825 -1.1191  1.3566
  153MOL   H27943143   6.063   4.541   5.027 -2.3595  1.5936 -2.1221
  153MOL   H28043144   6.523   4.620   5.038 -0.5098 -0.0216 -1.1979
  153MOL   H28143145   6.656   4.422   5.059 -1.2007  0.5848 -1.0175
  153MOL   H28243146   6.070   4.727   5.029  0.9916  0.3638 -1.7980
  154MOL     C143147   3.079   0.325   4.095 -0.2659 -0.3265 -0.1749
  154MOL     C243148   3.185   0.239   4.092 -0.3594  0.2982  0.2141
  154MOL     C343149   3.290   0.263   3.997 -0.1986  0.1001 -0.4578
  154MOL     C443150   3.285   0.375   3.908  0.4544  0.3646 -0.2258
  154MOL     C543151   3.392   0.418   3.833 -0.4424  0.1361 -0.0451
  154MOL     C643152   3.525   0.407   3.866 -0.6286  0.1024  0.2658
  154MOL     C743153   3.162   0.449   3.910  0.4272  0.3173  0.4473
  154MOL     C843154   3.057   0.425   3.999 -0.1261 -0.5612 -0.8516
  154MOL     H943155   3.198   0.158   4.162  0.6735 -1.7024 -2.2117
  154MOL    H1043156   3.381   0.206   4.005 -1.6318 -2.2923 -0.7067
  154MOL    H1143157   3.359   0.470   3.744  0.9003 -0.2637 -0.8021
  154MOL    H1243158   3.554   0.347   3.951 -1.7458  0.0661  0.6267
  154MOL    H1343159   3.146   0.527   3.837  0.1026 -1.7013 -1.6738
  154MOL    H1443160   2.967   0.482   3.982  1.1475  1.3208 -1.4974
  154MOL    H1543161   3.006   0.314   4.174  0.5962  1.0917  0.8207
  154MOL    C1643162   3.635   0.475   3.791 -0.8248 -0.0248  0.6399
  154MOL    C1743163   3.764   0.478   3.842 -0.0323 -0.8023 -0.3335
  154MOL    C1843164   3.868   0.537   3.774 -0.2299 -0.7858 -0.6605
  154MOL    C1943165   3.844   0.613   3.661 -0.3075 -0.5272 -0.9799
  154MOL    C2043166   3.948   0.709   3.611 -0.5792 -0.2812 -0.3047
  154MOL    C2143167   3.921   0.826   3.539 -0.2362 -0.3881 -0.3359
  154MOL    C2243168   3.712   0.618   3.608  0.3008 -0.0174 -0.6265
  154MOL    C2343169   3.612   0.544   3.673  0.5397 -0.5215  0.2016
  154MOL    H2443170   3.783   0.411   3.924 -0.6357  1.2496  1.5204
  154MOL    H2543171   3.971   0.539   3.805 -0.3124  2.9176 -0.3662
  154MOL    H2643172   4.047   0.673   3.635 -0.8833 -2.3273 -2.0022
  154MOL    H2743173   3.821   0.866   3.530  0.2672  1.1707  0.6275
  154MOL    H2843174   3.706   0.671   3.514 -0.2640 -1.0527 -1.1749
  154MOL    H2943175   3.518   0.528   3.623  0.9840 -0.4657 -0.6631
  154MOL    C3043176   4.027   0.909   3.491  0.2185  0.1073 -0.6981
  154MOL    C3143177   4.163   0.893   3.520 -0.2704  0.1676  0.6528
  154MOL    C3243178   4.258   0.982   3.486  0.2525 -0.4103 -0.0312
  154MOL    C3343179   4.227   1.096   3.408  0.4368 -0.8294  0.3562
  154MOL    C3443180   4.338   1.187   3.383  0.2910  0.3333  0.1417
  154MOL    C3543181   4.343   1.302   3.318  0.4803  1.0208  0.5905
  154MOL    C3643182   4.100   1.108   3.364  0.0918 -0.4935  0.1112
  154MOL    C3743183   3.996   1.023   3.410  0.2444 -0.4269  0.1755
  154MOL    H3843184   4.210   0.808   3.569  0.9440 -0.3432 -1.3530
  154MOL    H3943185   4.359   0.971   3.521  0.5079 -0.8824 -0.9070
  154MOL    H4043186   4.428   1.156   3.434 -0.1793  0.5193  1.0986
  154MOL    H4143187   4.253   1.345   3.278  0.0721  1.2599  1.7447
  154MOL    H4243188   4.065   1.187   3.299 -3.4636 -1.2901  0.9497
  154MOL    H4343189   3.898   1.055   3.378  1.0988 -0.2272 -2.3623
  154MOL    C4443190   4.459   1.398   3.307  0.6685  0.0621 -0.2585
  154MOL    C4543191   4.457   1.506   3.215  0.4660 -0.4452 -0.6390
  154MOL    C4643192   4.559   1.602   3.224  0.0337  0.5910 -0.4748
  154MOL    C4743193   4.670   1.586   3.316  0.2107  0.3828  0.4596
  154MOL    C4843194   4.785   1.680   3.324  0.2357  0.3523  0.0173
  154MOL    C4943195   4.802   1.797   3.254  0.1998 -0.9157  0.9381
  154MOL    C5043196   4.671   1.478   3.403  0.0991  0.0061 -0.4621
  154MOL    C5143197   4.565   1.388   3.395  0.0998 -0.2650 -0.0505
  154MOL    H5243198   4.374   1.523   3.148  0.8181 -0.5649 -1.1077
  154MOL    H5343199   4.564   1.686   3.156  0.8675  0.5398 -0.4850
  154MOL    H5443200   4.851   1.652   3.404 -0.0140  0.6536  0.3346
  154MOL    H5543201   4.724   1.814   3.181  2.3599 -0.6288 -1.3432
  154MOL    H5643202   4.738   1.465   3.487  0.7936  0.4740 -0.9371
  154MOL    H5743203   4.570   1.304   3.463 -0.1589 -0.1422  0.1228
  154MOL    C5843204   4.916   1.888   3.255  0.2214  0.7903 -0.7924
  154MOL    C5943205   4.923   2.000   3.177  0.0882 -0.0206 -0.2731
  154MOL    C6043206   5.033   2.087   3.182 -0.1242  0.1984  1.0693
  154MOL    C6143207   5.144   2.062   3.262 -0.2404  0.2661  0.6242
  154MOL    C6243208   5.254   2.165   3.284  0.0014  0.5282 -0.2307
  154MOL    C6343209   5.284   2.267   3.197  0.8922 -0.0625  0.1902
  154MOL    C6443210   5.145   1.946   3.335 -0.3693  0.2793  0.1339
  154MOL    C6543211   5.032   1.856   3.336  0.4648 -0.5052 -0.1510
  154MOL    H6643212   4.850   2.026   3.102 -0.0714  1.6212  0.4195
  154MOL    H6743213   5.027   2.172   3.116  0.3183 -1.8718 -1.7697
  154MOL    H6843214   5.310   2.153   3.375  1.0816 -0.2216 -0.9820
  154MOL    H6943215   5.224   2.286   3.109  0.3770  0.1715  0.5936
  154MOL    H7043216   5.232   1.922   3.394 -0.3107 -1.0029 -0.4577
  154MOL    H7143217   5.048   1.762   3.387  1.4131  0.4086  1.2674
  154MOL    C7243218   5.399   2.351   3.220  0.7652  0.2166 -0.0925
  154MOL    C7343219   5.463   2.397   3.108 -0.5575  0.2006 -0.1195
  154MOL    C7443220   5.591   2.460   3.126  0.5762  0.7503  0.4336
  154MOL    C7543221   5.660   2.472   3.253 -0.1574 -0.1291 -0.8011
  154MOL    C7643222   5.794   2.525   3.256  0.1090 -0.4973 -0.3767
  154MOL    C7743223   5.879   2.508   3.360  1.0660  0.1686  0.2697
  154MOL    C7843224   5.593   2.418   3.364  1.1771 -1.4616 -0.5176
  154MOL    C7943225   5.463   2.358   3.351 -0.4654  0.2258  0.5465
  154MOL    H8043226   5.424   2.388   3.008 -1.1617  1.3515  0.0085
  154MOL    H8143227   5.628   2.494   3.031  2.6005 -2.4393  0.0180
  154MOL    H8243228   5.818   2.580   3.166  0.4448 -0.8427 -0.4948
  154MOL    H8343229   5.848   2.444   3.441  1.5097 -1.1318 -0.5713
  154MOL    H8443230   5.630   2.436   3.464 -0.8806  2.3607 -0.3585
  154MOL    H8543231   5.413   2.327   3.441 -0.4496  0.7796  0.7466
  154MOL    C8643232   6.021   2.542   3.372  0.0551 -0.2265 -0.6239
  154MOL    C8743233   6.096   2.492   3.487  0.6868  0.5490  0.6647
  154MOL    C8843234   6.231   2.512   3.487 -0.5902  0.2464 -0.2509
  154MOL    C8943235   6.298   2.572   3.384  0.7588  0.2193 -0.0130
  154MOL    C9043236   6.446   2.591   3.385 -0.0910  0.0194  0.1231
  154MOL    C9143237   6.529   2.517   3.457  0.0187 -0.1350 -0.0855
  154MOL    C9243238   6.225   2.623   3.273 -0.2383  0.4432 -0.0346
  154MOL    C9343239   6.087   2.606   3.267 -0.1856  0.5025 -0.7147
  154MOL    H9443240   6.047   2.428   3.560  0.3524 -0.2914 -0.2876
  154MOL    H9543241   6.293   2.486   3.572 -0.0107  0.7434 -0.5130
  154MOL    H9643242   6.478   2.676   3.327  0.8685 -1.8621 -2.1749
  154MOL    H9743243   6.487   2.440   3.519  0.8765 -0.1794  0.4408
  154MOL    H9843244   6.278   2.670   3.191  0.5958  0.4534  0.5097
  154MOL    H9943245   6.039   2.634   3.175  0.1584  0.1523 -1.0080
  154MOL   C10043246   6.669   2.536   3.478 -0.0536 -1.1222  0.0343
  154MOL   C10143247   6.742   2.457   3.569 -0.0089  0.4772 -0.1722
  154MOL   C10243248   6.878   2.474   3.603 -0.0112 -0.8075 -0.1492
  154MOL   C10343249   6.949   2.573   3.532 -0.3936  0.6151  0.2614
  154MOL   C10443250   7.096   2.590   3.560  0.1445 -0.4136 -0.7698
  154MOL   C10543251   7.183   2.636   3.471  0.7802 -0.1213 -0.0420
  154MOL   C10643252   6.883   2.650   3.437 -0.1696 -0.3862  0.1485
  154MOL   C10743253   6.746   2.639   3.414  0.8563  0.0225  0.4911
  154MOL   H10843254   6.688   2.379   3.621  0.1035 -0.5716 -1.5721
  154MOL   H10943255   6.926   2.416   3.681  1.0296 -1.5972 -1.3589
  154MOL   H11043256   7.122   2.560   3.661  0.7705  0.4808 -0.6636
  154MOL   H11143257   7.132   2.668   3.382  0.5315 -0.6353 -0.0845
  154MOL   H11243258   6.932   2.734   3.389  3.0441 -2.4180 -0.2953
  154MOL   H11343259   6.706   2.711   3.344  2.0761  0.3235  0.0897
  154MOL   C11443260   7.322   2.657   3.493 -0.2582  0.2228 -1.2818
  154MOL   C11543261   7.386   2.750   3.413  0.2023 -0.1758 -0.4349
  154MOL   C11643262   7.529   2.767   3.406 -0.1411 -0.4017  0.1765
  154MOL   C11743263   7.604   2.698   3.499  0.3284 -0.2471 -0.7088
  154MOL   C11843264   7.749   2.719   3.504 -0.6840  0.0959  0.7097
  154MOL   C11943265   7.841   2.658   3.584  1.3013  0.5022 -0.9295
  154MOL   C12043266   7.535   2.614   3.595 -0.0857  0.0160 -0.1617
  154MOL   C12143267   7.397   2.582   3.584  0.9610 -0.3034 -0.9833
  154MOL   H12243268   7.319   2.793   3.341 -1.6046  0.2737  1.4661
  154MOL   H12343269   7.576   2.825   3.328  0.4248 -1.9140 -0.6305
  154MOL   H12443270   7.790   2.785   3.429  0.0118 -0.3094  0.7321
  154MOL   H12543271   7.808   2.584   3.656  1.5756  0.0008 -1.3177
  154MOL   H12643272   7.602   2.560   3.661 -0.1787  3.2651  2.7472
  154MOL   H12743273   7.346   2.503   3.637 -0.2776  1.2747  0.2098
  154MOL   C12843274   7.980   2.684   3.578 -0.2777 -0.3312 -0.4701
  154MOL   C12943275   8.057   2.624   3.680 -0.1747  0.4263  0.1368
  154MOL   C13043276   0.057   2.637   3.673  0.2056  0.2899  0.4335
  154MOL   C13143277   0.125   2.692   3.560  0.4242 -0.4068 -0.6216
  154MOL   C13243278   0.268   2.701   3.548  0.2142  0.9512 -0.8486
  154MOL   C13343279   0.359   2.642   3.621  0.3525  0.0657 -0.3838
  154MOL   C13443280   0.043   2.745   3.453 -0.4319 -0.2943 -0.1017
  154MOL   C13543281   8.048   2.741   3.465 -0.0245  0.4346 -0.4384
  154MOL   H13643282   8.020   2.577   3.770  0.7127 -0.2407  0.1649
  154MOL   H13743283   0.118   2.586   3.746  2.6314  2.2307 -0.1589
  154MOL   H13843284   0.295   2.757   3.459  1.8115  0.2111 -0.8313
  154MOL   H13943285   0.319   2.590   3.706 -2.2974  0.9226 -1.0656
  154MOL   H14043286   0.079   2.799   3.367 -1.4129 -0.2943 -0.5219
  154MOL   H14143287   7.999   2.779   3.376 -2.2674 -0.4157  0.4124
  154MOL   C14243288   0.501   2.649   3.609  0.5218 -0.4874  0.1858
  154MOL   C14343289   0.578   2.581   3.706 -0.3661 -1.0430 -0.6703
  154MOL   C14443290   0.718   2.590   3.718  0.4328 -0.1275  0.5636
  154MOL   C14543291   0.779   2.681   3.624  0.3181 -0.2900 -0.2054
  154MOL   C14643292   0.922   2.704   3.628 -0.1900  0.4605  0.0360
  154MOL   C14743293   0.993   2.700   3.739  0.0069 -0.8023  0.0289
  154MOL   C14843294   0.705   2.739   3.517 -0.3523 -0.8030 -0.2024
  154MOL   C14943295   0.567   2.728   3.512  0.5160 -0.3769  0.5437
  154MOL   H15043296   0.527   2.518   3.777 -0.0151  0.9112  1.3532
  154MOL   H15143297   0.771   2.527   3.788  1.3979  1.4225  1.2527
  154MOL   H15243298   0.967   2.742   3.537  3.6618 -0.0636  1.6341
  154MOL   H15343299   0.959   2.662   3.834 -2.4603 -0.1178 -0.5597
  154MOL   H15443300   0.766   2.796   3.448 -0.4400  0.1670  0.5065
  154MOL   H15543301   0.510   2.775   3.434  1.3426 -0.5637 -0.1702
  154MOL   C15643302   1.132   2.759   3.752 -0.6875  0.3816  0.6163
  154MOL   C15743303   1.196   2.743   3.874 -0.7066  0.3592  0.2817
  154MOL   C15843304   1.322   2.802   3.904  0.0849  0.9294 -0.4285
  154MOL   C15943305   1.386   2.874   3.802 -0.1194 -0.4930 -0.0799
  154MOL   C16043306   1.512   2.947   3.826  0.0342 -0.6282 -0.7020
  154MOL   C16143307   1.587   2.943   3.940 -0.3331 -1.1533  0.9068
  154MOL   C16243308   1.318   2.896   3.681 -0.5483 -0.2032 -0.0883
  154MOL   C16343309   1.195   2.834   3.653 -0.4349 -0.0890  0.0300
  154MOL   H16443310   1.149   2.687   3.954  2.0059 -2.2941  0.1196
  154MOL   H16543311   1.367   2.781   4.000  1.4207 -0.0962 -1.2627
  154MOL   H16643312   1.544   3.000   3.738 -1.2503  0.9635 -0.2211
  154MOL   H16743313   1.560   2.887   4.028  1.9057  0.2945  2.5656
  154MOL   H16843314   1.360   2.947   3.596  0.2083 -0.9155 -0.1430
  154MOL   H16943315   1.146   2.861   3.561 -1.1864 -0.0718  0.4288
  154MOL   C17043316   1.720   3.015   3.944  0.1441  0.4285 -0.1579
  154MOL   C17143317   1.797   3.008   4.064 -0.1492  0.2005  0.0775
  154MOL   C17243318   1.928   3.061   4.077 -0.0843  0.5142 -0.0463
  154MOL   C17343319   2.002   3.111   3.960 -0.2391  0.6047  0.0373
  154MOL   C17443320   2.136   3.155   3.966 -0.2446 -0.3128 -0.9273
  154MOL   C17543321   2.218   3.149   4.074  0.5639 -0.2201 -0.6595
  154MOL   C17643322   1.927   3.110   3.836 -0.1602  0.0092 -0.3831
  154MOL   C17743323   1.792   3.060   3.829  0.5847 -0.0743 -0.1226
  154MOL   H17843324   1.740   2.974   4.150  3.6390 -3.9955  1.1268
  154MOL   H17943325   1.968   3.065   4.177  2.4223 -1.5837 -0.8943
  154MOL   H18043326   2.169   3.203   3.875 -0.5209  0.5002 -0.6050
  154MOL   H18143327   2.178   3.105   4.164  2.7546  0.1547  0.5436
  154MOL   H18243328   1.971   3.142   3.743 -0.2566 -1.6119 -1.0003
  154MOL   H18343329   1.744   3.054   3.733  1.2541 -1.3671 -0.3935
  154MOL   C18443330   2.352   3.201   4.085  0.5247  0.2250  0.7032
  154MOL   C18543331   2.434   3.253   3.978 -0.1808  0.4691 -0.4972
  154MOL   C18643332   2.561   3.297   4.015 -0.1661  0.1153  0.3718
  154MOL   C18743333   2.603   3.319   4.146 -0.1715 -0.0957  0.2181
  154MOL   C18843334   2.740   3.362   4.175  0.5616 -0.3170  0.0261
  154MOL   C18943335   2.791   3.384   4.299 -0.1356  0.4919  0.3950
  154MOL   C19043336   2.512   3.289   4.252  0.4975  0.9600 -0.2106
  154MOL   C19143337   2.385   3.226   4.219  0.3227  0.1797 -0.0574
  154MOL   H19243338   2.417   3.231   3.873 -1.6074  1.0525 -0.3996
  154MOL   H19343339   2.636   3.314   3.939  0.5135  0.3438  1.0905
  154MOL   H19443340   2.793   3.393   4.086 -2.3226  1.9933 -0.9974
  154MOL   H19543341   2.737   3.356   4.388  2.4239 -2.3769  1.1079
  154MOL   H19643342   2.543   3.280   4.354 -0.3302  1.6522  0.1100
  154MOL   H19743343   2.321   3.199   4.301 -0.0994  1.2107 -0.0350
  154MOL   C19843344   2.920   3.443   4.332 -0.5972 -0.3202  0.2402
  154MOL   C19943345   2.964   3.446   4.464 -0.1645 -0.0799 -0.1600
  154MOL   C20043346   3.086   3.501   4.497  0.4447  0.2349  0.5652
  154MOL   C20143347   3.171   3.553   4.396 -0.3784 -0.9016 -0.0639
  154MOL   C20243348   3.314   3.597   4.422 -0.6075 -0.1789 -0.4960
  154MOL   C20343349   3.385   3.581   4.538 -0.5481 -0.1123  0.4749
  154MOL   C20443350   3.131   3.545   4.261  0.3248 -0.0690  0.2356
  154MOL   C20543351   3.003   3.494   4.231  0.6690 -0.6937  0.6865
  154MOL   H20643352   2.911   3.394   4.543  2.1663  0.0600  1.5583
  154MOL   H20743353   3.122   3.497   4.599  3.7675 -1.9400 -0.5830
  154MOL   H20843354   3.367   3.642   4.340 -0.4574 -0.8169 -0.7546
  154MOL   H20943355   3.334   3.528   4.617  0.6676 -0.0123  1.3353
  154MOL   H21043356   3.189   3.590   4.181  0.2170  0.4384  0.4429
  154MOL   H21143357   2.976   3.490   4.126  0.1342 -1.1531  0.8438
  154MOL   C21243358   3.521   3.621   4.573  0.3905 -0.0641 -0.6886
  154MOL   C21343359   3.559   3.651   4.703  0.2217  0.3599  0.0277
  154MOL   C21443360   3.691   3.692   4.730 -0.0507 -0.3002 -0.5054
  154MOL   C21543361   3.795   3.693   4.635 -0.3963 -0.6025 -0.1662
  154MOL   C21643362   3.927   3.746   4.667 -0.1698 -0.0092  0.1556
  154MOL   C21743363   3.967   3.806   4.782 -0.4972 -0.2185  0.2392
  154MOL   C21843364   3.758   3.654   4.501  0.2880 -0.7414 -0.0530
  154MOL   C21943365   3.625   3.622   4.477 -0.1818  0.0011 -0.7142
  154MOL   H22043366   3.477   3.678   4.767  0.2127  3.7405 -1.3075
  154MOL   H22143367   3.704   3.743   4.824  0.7941  1.3412 -1.4979
  154MOL   H22243368   3.994   3.730   4.584  2.2183  0.7687  1.8924
  154MOL   H22343369   3.891   3.812   4.858  0.7325 -0.2543  1.4973
  154MOL   H22443370   3.834   3.663   4.424  1.4209 -0.9716  1.0167
  154MOL   H22543371   3.601   3.592   4.375 -1.1108  0.7680 -0.7310
  154MOL   C22643372   4.094   3.861   4.822 -0.1827 -0.1113 -0.4629
  154MOL   C22743373   4.103   3.953   4.933 -0.3762 -0.0201  0.3598
  154MOL   C22843374   4.230   4.004   4.974  0.0048  0.0254 -0.0779
  154MOL   C22943375   4.347   3.970   4.902  0.2450 -0.9645 -0.0719
  154MOL   C23043376   4.479   4.028   4.943 -1.1560 -0.1461  0.0318
  154MOL   C23143377   4.595   4.010   4.878  0.1365  0.9707 -0.6254
  154MOL   C23243378   4.329   3.893   4.781  0.0526  0.4198  0.1097
  154MOL   C23343379   4.212   3.836   4.743  0.3404 -0.3039 -0.0453
  154MOL   H23443380   4.020   3.985   4.995 -1.4098  0.5028 -1.2593
  154MOL   H23543381   4.236   4.060   5.066 -2.1048 -1.4009  0.9825
  154MOL   H23643382   4.476   4.090   5.032 -1.8714 -1.2659  0.7973
  154MOL   H23743383   4.589   3.942   4.794 -1.2457 -0.8715  0.9019
  154MOL   H23843384   4.405   3.869   4.708 -0.4058 -1.0169  0.0743
  154MOL   H23943385   4.200   3.785   4.648 -0.0755  1.2471 -0.8406
  154MOL   C24043386   4.730   4.058   4.901  0.3702  1.0872 -0.3271
  154MOL   C24143387   4.760   4.163   4.994  0.0878 -0.1322  0.3083
  154MOL   C24243388   4.891   4.210   5.015 -0.2800 -0.0195 -0.3349
  154MOL   C24343389   4.995   4.159   4.932  0.1130  0.0710 -0.3040
  154MOL   C24443390   5.122   4.227   4.957  0.2080  0.8318  0.4911
  154MOL   C24543391   5.225   4.189   4.890 -0.4412  0.0364 -0.0253
  154MOL   C24643392   4.970   4.057   4.841  0.4669  0.6129  0.2875
  154MOL   C24743393   4.839   4.005   4.822 -0.4058  0.0988 -0.0717
  154MOL   H24843394   4.680   4.211   5.049  0.3953 -1.0568  1.5857
  154MOL   H24943395   4.905   4.292   5.085 -0.5484 -0.8013  0.6395
  154MOL   H25043396   5.125   4.306   5.031 -0.7344  1.1686  0.1802
  154MOL   H25143397   5.221   4.107   4.820 -1.0342 -2.2646  2.6226
  154MOL   H25243398   5.049   4.015   4.780 -0.1049  0.6168 -0.4632
  154MOL   H25343399   4.835   3.946   4.732  2.2106  0.6237 -0.5674
  154MOL   C25443400   5.359   4.251   4.904 -0.4395  0.0457 -0.8905
  154MOL   C25543401   5.395   4.325   5.016  0.5188  0.3062 -0.0521
  154MOL   C25643402   5.517   4.396   5.028  0.4393  1.1750 -1.1142
  154MOL   C25743403   5.607   4.396   4.922 -1.3708  0.1614  0.2571
  154MOL   C25843404   5.731   4.471   4.922  0.1078 -0.4148  0.0220
  154MOL   C25943405   5.754   4.596   4.964  0.0235 -0.3112 -0.5629
  154MOL   C26043406   5.582   4.309   4.815 -0.6769 -0.0831 -0.2832
  154MOL   C26143407   5.460   4.240   4.808 -0.4981  0.4588 -0.3990
  154MOL   H26243408   5.327   4.327   5.100 -1.0402  1.8503 -1.3034
  154MOL   H26343409   5.544   4.461   5.110  1.9329  1.1548 -1.5735
  154MOL   H26443410   5.809   4.413   4.876  1.7937 -0.0799  2.3757
  154MOL   H26543411   5.854   4.638   4.965 -0.4117  0.7330  0.6250
  154MOL   H26643412   5.644   4.307   4.727 -0.4345  2.3796 -0.2050
  154MOL   H26743413   5.441   4.184   4.718 -0.4237  0.6098 -0.5089
  154MOL   C26843414   5.648   4.682   5.017  0.4568  0.1781 -0.1205
  154MOL   C26943415   5.516   4.692   4.962  0.0468  0.7357  0.0282
  154MOL   C27043416   5.417   4.769   5.030 -0.0717 -0.6090 -0.0558
  154MOL   C27143417   5.451   4.844   5.146  0.0841 -0.1663  0.6703
  154MOL   C27243418   5.352   4.933   5.215 -0.5964 -0.0043  0.8673
  154MOL   C27343419   5.225   4.950   5.181  0.0149  0.2933 -0.2870
  154MOL   C27443420   5.581   4.838   5.201  0.1498 -0.2278  0.1980
  154MOL   C27543421   5.674   4.748   5.140 -0.0930  0.1206  0.1806
  154MOL   H27643422   5.482   4.631   4.880 -0.2573 -1.1693  1.5391
  154MOL   H27743423   5.315   4.766   4.995 -0.5299  0.8836  1.1170
  154MOL   H27843424   5.388   4.991   5.298  0.6522  1.2714 -0.5267
  154MOL   H27943425   5.184   4.913   5.089  0.4113 -1.2331  0.1410
  154MOL   H28043426   5.613   4.900   5.283  2.0997 -0.9379 -0.0011
  154MOL   H28143427   5.778   4.751   5.171  1.2283  1.6801 -4.0269
  154MOL   H28243428   5.164   5.006   5.251 -1.3323 -1.8795  0.3097
  155MOL     C143429   1.818   0.390   3.637  0.2427  0.2022  0.6231
  155MOL     C243430   1.785   0.502   3.715 -0.1621  0.0255 -0.2326
  155MOL     C343431   1.876   0.553   3.809 -0.6285 -0.1453 -0.4013
  155MOL     C443432   2.006   0.499   3.832  0.1591  0.2288  0.8623
  155MOL     C543433   2.094   0.559   3.935 -0.0553  0.2398 -0.0029
  155MOL     C643434   2.081   0.672   4.000 -0.0314 -0.2334  0.1018
  155MOL     C743435   2.035   0.381   3.765 -0.0025 -0.3237 -0.5623
  155MOL     C843436   1.943   0.326   3.670  0.4326  0.0797 -0.2018
  155MOL     H943437   1.701   0.569   3.706 -0.0692 -0.2375 -3.4171
  155MOL    H1043438   1.850   0.635   3.875 -0.4572  0.2908 -0.8785
  155MOL    H1143439   2.183   0.501   3.959 -0.1342  0.3636  0.6007
  155MOL    H1243440   1.997   0.730   3.968  0.1841  0.3574  0.5904
  155MOL    H1343441   2.132   0.334   3.777  0.5017  1.1221  1.1906
  155MOL    H1443442   1.975   0.241   3.612  0.4626  1.1644 -1.8056
  155MOL    H1543443   1.764   0.338   3.560  0.0560  0.0353  0.8687
  155MOL    C1643444   2.174   0.726   4.101 -0.5997  0.3577  0.1095
  155MOL    C1743445   2.277   0.653   4.157 -0.5160  0.1835 -0.0660
  155MOL    C1843446   2.343   0.691   4.271  0.4899 -0.1855 -0.2966
  155MOL    C1943447   2.317   0.824   4.323 -0.6576 -0.1638 -0.1417
  155MOL    C2043448   2.391   0.874   4.441 -0.5865  0.1779 -0.0754
  155MOL    C2143449   2.524   0.850   4.458  0.2934 -0.7122  0.5433
  155MOL    C2243450   2.217   0.904   4.262  1.0073 -0.2367  0.2318
  155MOL    C2343451   2.144   0.853   4.156  0.3598  0.0827 -0.3535
  155MOL    H2443452   2.293   0.550   4.128  0.4824  0.3927 -0.2926
  155MOL    H2543453   2.413   0.626   4.321 -1.1198 -2.3483 -0.7685
  155MOL    H2643454   2.331   0.929   4.513  0.5355  2.3650 -0.7715
  155MOL    H2743455   2.567   0.795   4.375  1.2302  1.7531 -0.6643
  155MOL    H2843456   2.203   1.002   4.304  0.4441 -0.1565 -0.1433
  155MOL    H2943457   2.062   0.916   4.126 -0.9276 -1.0675  0.6715
  155MOL    C3043458   2.618   0.889   4.566 -0.1540  0.5827  0.2287
  155MOL    C3143459   2.560   0.966   4.673 -0.1856  1.0857  0.3100
  155MOL    C3243460   2.646   1.021   4.773 -0.3214  0.8252  0.0065
  155MOL    C3343461   2.786   0.994   4.760 -0.1409  0.1969 -0.1216
  155MOL    C3443462   2.871   1.044   4.864 -0.0903 -0.0601 -0.1118
  155MOL    C3543463   2.860   1.162   4.928  0.1766 -0.0978 -0.2559
  155MOL    C3643464   2.838   0.931   4.646 -0.3649  1.4916 -0.7899
  155MOL    C3743465   2.759   0.872   4.549  0.6599  0.2691  0.0723
  155MOL    H3843466   2.452   0.972   4.677 -0.2580  0.5037 -0.6726
  155MOL    H3943467   2.596   1.079   4.848 -1.1520 -0.0054  0.1044
  155MOL    H4043468   2.943   0.968   4.891 -3.2889 -2.5882  1.7388
  155MOL    H4143469   2.776   1.222   4.896  1.2594  1.4834 -0.2317
  155MOL    H4243470   2.943   0.910   4.634 -0.6533 -1.6173  1.5129
  155MOL    H4343471   2.800   0.816   4.466 -2.5996 -0.2292 -1.2731
  155MOL    C4443472   2.955   1.208   5.029 -0.4269 -0.7492  0.1160
  155MOL    C4543473   2.967   1.347   5.050 -0.0136 -0.1083  0.1678
  155MOL    C4643474   3.070   1.400   5.127  0.0967 -0.4163 -0.4867
  155MOL    C4743475   3.166   1.313   5.185 -0.6145 -0.5100  0.1658
  155MOL    C4843476   3.290   1.357   5.248  1.2471  0.6419 -0.1510
  155MOL    C4943477   3.340   1.484   5.242  0.1479  0.2738  0.8654
  155MOL    C5043478   3.137   1.174   5.176  0.1899  0.1444 -0.4206
  155MOL    C5143479   3.037   1.118   5.099  0.2241  0.3674  0.2330
  155MOL    H5243480   2.900   1.411   4.994 -0.5818 -0.7045  0.1618
  155MOL    H5343481   3.073   1.508   5.138 -1.1264 -0.4512  0.2919
  155MOL    H5443482   3.338   1.278   5.303  1.1564  0.7288  0.0544
  155MOL    H5543483   3.281   1.559   5.192 -0.5138  0.6782  2.2318
  155MOL    H5643484   3.212   1.111   5.222  0.0008  1.0361  1.1757
  155MOL    H5743485   3.033   1.010   5.100  2.6162  0.2417 -0.7304
  155MOL    C5843486   3.470   1.533   5.293  0.8087  0.6011 -0.3911
  155MOL    C5943487   3.521   1.657   5.249  0.3934  0.3057  0.4674
  155MOL    C6043488   3.654   1.687   5.275  0.1713 -0.5362 -0.7052
  155MOL    C6143489   3.746   1.597   5.342  0.5134 -0.7235 -0.3353
  155MOL    C6243490   3.884   1.627   5.353  0.1108 -0.1139 -0.2611
  155MOL    C6343491   3.979   1.541   5.377 -0.1280 -0.3688 -0.0787
  155MOL    C6443492   3.688   1.482   5.391 -0.1448 -0.3579 -0.1620
  155MOL    C6543493   3.553   1.452   5.380 -0.2070  0.3576 -0.9432
  155MOL    H6643494   3.456   1.723   5.193  0.3755 -1.1512 -1.2725
  155MOL    H6743495   3.681   1.780   5.228  0.0369 -0.5417 -0.7938
  155MOL    H6843496   3.910   1.731   5.338  0.9648 -0.0183  1.7215
  155MOL    H6943497   3.954   1.437   5.389  0.9650 -0.4821  1.4414
  155MOL    H7043498   3.746   1.409   5.446  0.2082  1.4933  2.0252
  155MOL    H7143499   3.518   1.366   5.435  2.5421 -1.8502 -2.5055
  155MOL    C7243500   4.120   1.568   5.367  0.4745  0.1977  0.5527
  155MOL    C7343501   4.212   1.459   5.380 -0.0252 -0.2301  0.6087
  155MOL    C7443502   4.352   1.479   5.361  0.3702  0.2071 -0.8427
  155MOL    C7543503   4.399   1.611   5.330  0.4002 -0.7754  0.3009
  155MOL    C7643504   4.536   1.645   5.299 -0.5524 -0.4654 -0.1087
  155MOL    C7743505   4.587   1.774   5.287  0.0842 -0.4659 -0.4345
  155MOL    C7843506   4.300   1.710   5.307 -0.6544 -0.8695  0.3434
  155MOL    C7943507   4.168   1.689   5.330 -0.3096  1.0745 -0.5541
  155MOL    H8043508   4.180   1.360   5.411  0.5614 -0.6772 -0.1950
  155MOL    H8143509   4.422   1.398   5.369 -1.3835 -1.2211  0.3999
  155MOL    H8243510   4.603   1.560   5.299  2.2560  1.6668  2.3460
  155MOL    H8343511   4.526   1.861   5.306  0.9426  0.4807 -1.8661
  155MOL    H8443512   4.330   1.809   5.276 -1.0824 -0.7654  0.2569
  155MOL    H8543513   4.101   1.772   5.311 -0.6139  1.1851  0.9558
  155MOL    C8643514   4.729   1.803   5.255  0.1897 -0.2372  0.1264
  155MOL    C8743515   4.778   1.934   5.279  0.2516  0.4444  0.3063
  155MOL    C8843516   4.913   1.966   5.272 -0.1690  0.4039 -0.3964
  155MOL    C8943517   5.005   1.862   5.240  0.0256  0.7042  0.1788
  155MOL    C9043518   5.149   1.891   5.229 -0.0997  0.3825  0.7516
  155MOL    C9143519   5.211   2.002   5.279  0.5441 -0.2443 -0.3196
  155MOL    C9243520   4.965   1.732   5.212 -0.4872 -0.0388 -0.1496
  155MOL    C9343521   4.826   1.702   5.222 -0.5530 -0.4784 -0.3195
  155MOL    H9443522   4.708   2.009   5.313 -2.9624 -2.6576  0.8289
  155MOL    H9543523   4.957   2.061   5.299  2.0747 -1.0022  1.0439
  155MOL    H9643524   5.199   1.811   5.177 -1.5509 -0.3101  0.3831
  155MOL    H9743525   5.151   2.071   5.337  0.0659 -0.6833 -0.2870
  155MOL    H9843526   5.029   1.648   5.190  0.8598  0.9824 -0.1320
  155MOL    H9943527   4.802   1.600   5.196  1.5683 -0.6670 -1.6517
  155MOL   C10043528   5.351   2.046   5.268 -0.0855 -0.0834 -0.4545
  155MOL   C10143529   5.454   1.977   5.193  0.2823 -0.0573  0.0254
  155MOL   C10243530   5.588   2.019   5.198 -0.4317 -0.7260  0.7093
  155MOL   C10343531   5.626   2.133   5.276  0.5278 -0.7174 -0.2250
  155MOL   C10443532   5.767   2.174   5.278  0.3479  0.3450  0.2661
  155MOL   C10543533   5.803   2.274   5.355  0.2285  0.3921 -0.9639
  155MOL   C10643534   5.519   2.197   5.353 -0.3258 -0.3916  0.4077
  155MOL   C10743535   5.383   2.156   5.345  0.2036  0.2822  0.4482
  155MOL   H10843536   5.436   1.883   5.143  0.4045  1.1077 -2.2399
  155MOL   H10943537   5.658   1.969   5.133 -0.5073  1.1250 -0.8540
  155MOL   H11043538   5.830   2.120   5.208 -1.2722  0.1469 -1.0723
  155MOL   H11143539   5.741   2.325   5.426 -0.6180 -0.1603 -1.3078
  155MOL   H11243540   5.535   2.287   5.412 -1.4782  1.1167 -1.5082
  155MOL   H11343541   5.301   2.203   5.399  0.0811  0.5890  0.0072
  155MOL   C11443542   5.943   2.322   5.353 -0.5935  0.2023 -0.1433
  155MOL   C11543543   6.040   2.271   5.265 -0.5674  0.4107  0.1113
  155MOL   C11643544   6.178   2.314   5.278 -0.7420  0.0979 -0.5651
  155MOL   C11743545   6.221   2.405   5.378 -0.6492  0.1480  0.6019
  155MOL   C11843546   6.362   2.442   5.383 -0.6198  0.3907  0.3660
  155MOL   C11943547   6.421   2.548   5.450  0.2579 -0.2625 -0.2665
  155MOL   C12043548   6.123   2.472   5.455 -0.4108  0.1102 -0.3305
  155MOL   C12143549   5.988   2.427   5.444 -0.3718  0.2166 -0.1808
  155MOL   H12243550   6.026   2.190   5.196  1.3444 -0.3421  0.5632
  155MOL   H12343551   6.247   2.266   5.210 -1.7263 -1.2801 -0.6081
  155MOL   H12443552   6.423   2.371   5.329 -1.0652 -0.4429  0.9698
  155MOL   H12543553   6.353   2.605   5.511 -0.3944  0.3452 -1.5661
  155MOL   H12643554   6.143   2.539   5.537  0.6924 -0.6324  0.0250
  155MOL   H12743555   5.911   2.473   5.504 -0.2042 -1.6030  1.4807
  155MOL   C12843556   6.557   2.592   5.445 -0.7112  0.1363  0.3494
  155MOL   C12943557   6.654   2.516   5.375  0.1062  0.0801 -0.5586
  155MOL   C13043558   6.789   2.554   5.364  0.1766 -0.7520 -0.0692
  155MOL   C13143559   6.834   2.666   5.446  0.9103  0.4251  0.3866
  155MOL   C13243560   6.980   2.704   5.444 -0.0787  0.4290  0.3808
  155MOL   C13343561   7.034   2.816   5.489 -0.8091  0.0543  0.3969
  155MOL   C13443562   6.738   2.737   5.526 -0.7987 -0.0388 -0.2176
  155MOL   C13543563   6.605   2.705   5.515  0.2896 -0.0528 -0.1600
  155MOL   H13643564   6.625   2.426   5.322  0.6886  0.0235 -0.7875
  155MOL   H13743565   6.856   2.494   5.304  3.2824 -0.2886  2.8149
  155MOL   H13843566   7.041   2.631   5.392 -1.0326 -1.0993  1.3472
  155MOL   H13943567   6.969   2.890   5.534 -0.2728  0.7982 -0.0446
  155MOL   H14043568   6.766   2.817   5.592 -0.0692  0.0702 -0.6478
  155MOL   H14143569   6.524   2.761   5.558 -0.4740 -0.0637 -1.5886
  155MOL   C14243570   7.175   2.864   5.488 -0.0815  0.1885 -0.3339
  155MOL   C14343571   7.206   2.967   5.574  0.0207  0.2238  0.0841
  155MOL   C14443572   7.336   3.022   5.574 -0.1377  0.7455 -0.1271
  155MOL   C14543573   7.435   2.971   5.490  0.3183  0.0245  0.0006
  155MOL   C14643574   7.573   3.019   5.495  0.1705  0.2349 -0.1658
  155MOL   C14743575   7.676   2.961   5.426 -0.3269 -0.0012 -0.5501
  155MOL   C14843576   7.406   2.868   5.398  0.6205 -0.4063  0.0068
  155MOL   C14943577   7.274   2.813   5.400 -0.1738  0.2137 -0.5618
  155MOL   H15043578   7.129   2.993   5.645 -1.5569  0.9687 -1.8597
  155MOL   H15143579   7.354   3.101   5.645 -1.3663 -0.1274  1.2051
  155MOL   H15243580   7.587   3.108   5.554 -1.7868 -0.3829  1.2888
  155MOL   H15343581   7.657   2.875   5.363 -2.0195  0.6895 -1.0099
  155MOL   H15443582   7.483   2.809   5.351  1.2613  0.2145  0.2640
  155MOL   H15543583   7.248   2.729   5.338  0.8121  0.9527 -1.9944
  155MOL   C15643584   7.814   3.014   5.431  0.0857  0.2529  0.3590
  155MOL   C15743585   7.905   2.927   5.370 -0.2199 -0.3947  0.3124
  155MOL   C15843586   8.041   2.960   5.351  0.1333  0.4199 -0.6462
  155MOL   C15943587   8.087   3.083   5.398  0.2907 -0.5180  0.7100
  155MOL   C16043588   0.078   3.131   5.378 -0.3911  0.7609 -0.2516
  155MOL   C16143589   0.183   3.050   5.357 -0.1745 -0.0846 -0.5229
  155MOL   C16243590   7.997   3.173   5.448 -0.4161  0.7017  0.8723
  155MOL   C16343591   7.864   3.141   5.472 -0.2718  0.0660  0.1865
  155MOL   H16443592   7.868   2.831   5.335 -1.3764 -0.4491  1.6346
  155MOL   H16543593   8.104   2.882   5.312 -1.4184 -1.6061  0.7828
  155MOL   H16643594   0.103   3.236   5.383  1.5047  0.4087 -1.7015
  155MOL   H16743595   0.182   2.942   5.357  3.1422 -0.1768 -0.1620
  155MOL   H16843596   8.030   3.269   5.485 -0.9095  0.7277  1.2507
  155MOL   H16943597   7.795   3.210   5.520 -3.0159 -1.4194 -1.4892
  155MOL   C17043598   0.321   3.083   5.331 -0.9789 -0.1418 -0.1754
  155MOL   C17143599   0.423   2.984   5.299  0.1307 -0.0505  0.3781
  155MOL   C17243600   0.557   3.027   5.278 -0.0307 -0.5022 -0.3059
  155MOL   C17343601   0.599   3.160   5.292 -0.1100  0.0519 -0.2994
  155MOL   C17443602   0.742   3.202   5.263  1.5820  0.8832 -0.4034
  155MOL   C17543603   0.837   3.127   5.202 -0.3265 -0.0224  0.4821
  155MOL   C17643604   0.498   3.254   5.324  0.3268 -1.1371 -0.3989
  155MOL   C17743605   0.360   3.216   5.337  0.8578 -0.5316 -0.0629
  155MOL   H17843606   0.396   2.879   5.294  1.0253 -0.4310  2.9421
  155MOL   H17943607   0.625   2.947   5.252 -0.0223 -0.5892 -0.0218
  155MOL   H18043608   0.769   3.302   5.293 -2.9330  1.6835  1.2927
  155MOL   H18143609   0.806   3.030   5.168 -1.5446 -0.2105  2.0625
  155MOL   H18243610   0.517   3.358   5.345 -0.3425 -1.4198  1.7322
  155MOL   H18343611   0.289   3.295   5.358  1.0657 -0.6988  1.3106
  155MOL   C18443612   0.972   3.158   5.174 -0.4937  0.3005 -1.0334
  155MOL   C18543613   1.031   3.279   5.221 -0.0531  0.4200  0.2580
  155MOL   C18643614   1.170   3.300   5.217 -0.3782  0.4483  1.0724
  155MOL   C18743615   1.255   3.203   5.166  0.6054 -0.1771 -0.4568
  155MOL   C18843616   1.395   3.239   5.163 -0.3730  0.7201  0.6197
  155MOL   C18943617   1.494   3.164   5.117 -0.2247 -0.1452 -0.3012
  155MOL   C19043618   1.192   3.088   5.109  0.1215 -0.3734  0.0962
  155MOL   C19143619   1.054   3.069   5.107  0.1914  0.6001  0.4299
  155MOL   H19243620   0.980   3.359   5.273 -0.0549  0.4960  0.1391
  155MOL   H19343621   1.211   3.388   5.265  1.7511  0.3377 -0.4871
  155MOL   H19443622   1.425   3.338   5.193 -3.0112  1.9646 -0.7137
  155MOL   H19543623   1.474   3.067   5.073  0.9999 -0.1158 -0.9616
  155MOL   H19643624   1.261   3.012   5.077  0.1274 -1.3053  2.2467
  155MOL   H19743625   1.004   2.987   5.057  0.3143  0.7544  0.0463
  155MOL   C19843626   1.639   3.203   5.123  0.2932 -0.9653  0.1986
  155MOL   C19943627   1.732   3.127   5.048  0.0671  0.5116  0.3387
  155MOL   C20043628   1.869   3.152   5.038 -0.4218 -1.0387  0.1201
  155MOL   C20143629   1.923   3.249   5.128  0.1139  0.4021  0.4769
  155MOL   C20243630   2.069   3.290   5.138 -0.0676 -0.2302  0.3346
  155MOL   C20343631   2.156   3.257   5.048  0.2519 -0.1792  0.7249
  155MOL   C20443632   1.835   3.320   5.209  0.4401  0.5542 -0.5059
  155MOL   C20543633   1.700   3.307   5.199  0.6903  0.3793 -0.3210
  155MOL   H20643634   1.695   3.047   4.986  0.8398 -1.1979  2.0000
  155MOL   H20743635   1.930   3.096   4.968  0.0672 -0.3834  0.0153
  155MOL   H20843636   2.096   3.347   5.226 -0.2073  1.4836 -0.7273
  155MOL   H20943637   2.123   3.206   4.959  0.1210  0.1838  0.5657
  155MOL   H21043638   1.875   3.409   5.256  1.5180 -1.1572  1.9251
  155MOL   H21143639   1.632   3.368   5.257  1.4632  0.7507  0.2025
  155MOL   C21243640   2.300   3.287   5.058  0.1909  0.1941  0.3555
  155MOL   C21343641   2.382   3.266   4.948  0.4437  0.1037  0.1298
  155MOL   C21443642   2.522   3.291   4.960 -0.2526  1.1928  0.2004
  155MOL   C21543643   2.579   3.356   5.070  0.1068  0.3402  0.2591
  155MOL   C21643644   2.716   3.399   5.064  0.3331 -0.3253 -0.2141
  155MOL   C21743645   2.782   3.424   4.944  0.8854  0.5053 -0.1252
  155MOL   C21843646   2.496   3.386   5.175  0.1921 -0.4763 -0.7124
  155MOL   C21943647   2.359   3.346   5.172 -0.8030  0.5411 -0.0556
  155MOL   H22043648   2.340   3.226   4.857  0.7986  2.1271 -0.9755
  155MOL   H22143649   2.589   3.263   4.880 -0.3521  2.3032 -0.2856
  155MOL   H22243650   2.760   3.403   5.162 -1.4119 -0.7552  0.6125
  155MOL   H22343651   2.729   3.402   4.853 -0.0731  0.5540  0.4168
  155MOL   H22443652   2.525   3.436   5.266  0.1137  1.5027 -1.7406
  155MOL   H22543653   2.299   3.342   5.262 -1.0789 -0.3349 -0.2711
  155MOL   C22643654   2.914   3.480   4.927  0.2315 -0.3710  0.3334
  155MOL   C22743655   3.001   3.483   5.036  0.5808  0.5683 -0.1796
  155MOL   C22843656   3.111   3.563   5.034  0.1270  0.2772  0.5041
  155MOL   C22943657   3.140   3.638   4.927 -0.0620  0.3431 -1.1116
  155MOL   C23043658   3.265   3.725   4.952  0.7741 -0.1303 -0.4085
  155MOL   C23143659   3.293   3.829   4.870  0.0825 -0.2747  0.2679
  155MOL   C23243660   3.060   3.640   4.811 -0.0966  0.0227  0.4116
  155MOL   C23343661   2.943   3.556   4.812  0.1188  0.2579  0.3429
  155MOL   H23443662   2.978   3.436   5.131  0.5991  0.2907 -0.3138
  155MOL   H23543663   3.170   3.570   5.124  1.4481  0.8166 -0.3864
  155MOL   H23643664   3.328   3.691   5.034  0.2262 -0.1074  0.0241
  155MOL   H23743665   3.231   3.847   4.783  0.0563  2.4287  0.7933
  155MOL   H23843666   3.092   3.703   4.729 -0.8989 -0.7373 -0.5093
  155MOL   H23943667   2.873   3.557   4.730  1.9659  1.1294 -1.2655
  155MOL   C24043668   3.410   3.910   4.889 -0.6273 -0.2502  0.3707
  155MOL   C24143669   3.512   3.894   4.990 -0.7139 -0.3954  0.3993
  155MOL   C24243670   3.625   3.982   4.991 -0.4679 -0.0486 -0.2417
  155MOL   C24343671   3.644   4.083   4.894 -0.2057 -0.5604  0.5869
  155MOL   C24443672   3.767   4.163   4.893  0.4517  0.0734 -0.3751
  155MOL   C24543673   3.804   4.258   4.804 -1.2244  0.4888  0.6051
  155MOL   C24643674   3.538   4.104   4.805 -0.1149 -0.2597  0.0834
  155MOL   C24743675   3.418   4.032   4.812 -0.0631 -0.2637  0.4141
  155MOL   H24843676   3.502   3.818   5.066  1.5043 -0.6144  0.5017
  155MOL   H24943677   3.696   3.971   5.071 -1.2973  1.0911  0.6638
  155MOL   H25043678   3.812   4.130   4.986 -1.6825 -0.5246  0.4878
  155MOL   H25143679   3.742   4.267   4.716  0.0148 -2.2941 -0.6375
  155MOL   H25243680   3.540   4.195   4.747 -0.9050  0.0792  0.5741
  155MOL   H25343681   3.355   4.054   4.727  0.9940 -2.7115 -1.0753
  155MOL   C25443682   3.929   4.340   4.808  0.2011  0.5083 -0.3401
  155MOL   C25543683   3.946   4.450   4.724  0.5520  0.5199  1.2010
  155MOL   C25643684   4.065   4.526   4.740 -1.0050 -0.5197 -0.2117
  155MOL   C25743685   4.165   4.491   4.833 -0.4572 -0.4186  0.3881
  155MOL   C25843686   4.285   4.572   4.850  0.3526  0.1030  0.2071
  155MOL   C25943687   4.322   4.628   4.971  0.5557 -0.7553  0.0175
  155MOL   C26043688   4.148   4.374   4.909 -0.0719 -0.0863  0.8711
  155MOL   C26143689   4.027   4.303   4.901  0.0672  0.6604 -0.1107
  155MOL   H26243690   3.867   4.474   4.655  0.9592 -2.9135 -0.5201
  155MOL   H26343691   4.088   4.606   4.671  0.3624 -3.1089 -2.9046
  155MOL   H26443692   4.347   4.595   4.765 -0.0099  1.9444  0.4223
  155MOL   H26543693   4.409   4.692   4.971 -0.1231  0.2368 -2.4438
  155MOL   H26643694   4.234   4.348   4.969 -0.3483  1.3115  1.8848
  155MOL   H26743695   4.010   4.213   4.959 -1.6793  1.2847  0.3967
  155MOL   C26843696   4.252   4.596   5.099  0.5874 -0.0192  0.3150
  155MOL   C26943697   4.112   4.626   5.121 -0.7378  0.4252 -0.2422
  155MOL   C27043698   4.070   4.597   5.254 -0.2111  0.6325  0.4519
  155MOL   C27143699   4.153   4.532   5.353  0.8002 -0.4391  0.5279
  155MOL   C27243700   4.088   4.484   5.477  0.3823  0.2315 -0.4813
  155MOL   C27343701   4.146   4.430   5.585 -0.1675  0.8087 -0.1992
  155MOL   C27443702   4.289   4.504   5.326 -0.3265 -0.7355 -0.4111
  155MOL   C27543703   4.342   4.542   5.197  1.0406 -0.6772 -0.2464
  155MOL   H27643704   4.059   4.682   5.046  1.0293  1.1161 -1.0175
  155MOL   H27743705   3.965   4.607   5.277 -0.4835  0.5314 -0.7406
  155MOL   H27843706   3.980   4.488   5.476  0.3714  2.1989  2.6608
  155MOL   H27943707   4.254   4.419   5.584 -0.1748  0.7157  0.1489
  155MOL   H28043708   4.358   4.460   5.396  1.4661 -0.8243 -2.1690
  155MOL   H28143709   4.449   4.539   5.181  1.1166  0.5967 -0.0159
  155MOL   H28243710   4.091   4.414   5.676  0.8218 -2.2661 -0.0898
  156MOL     C143711   6.559   6.794   6.108 -0.1602 -0.3256 -0.1321
  156MOL     C243712   6.468   6.874   6.038 -0.5935 -0.1818 -0.0359
  156MOL     C343713   6.360   6.928   6.111  0.0878 -0.1764  1.0081
  156MOL     C443714   6.345   6.905   6.251 -0.2387  0.6066  0.1489
  156MOL     C543715   6.226   6.944   6.323  0.3709 -0.8620 -0.0613
  156MOL     C643716   6.102   6.977   6.271 -0.0793  0.8478  0.5590
  156MOL     C743717   6.438   6.825   6.315 -0.0789 -0.1629 -0.0565
  156MOL     C843718   6.549   6.774   6.244  0.9110  1.4384 -0.9585
  156MOL     H943719   6.497   6.900   5.937  0.0670 -0.3259  0.1133
  156MOL    H1043720   6.287   6.990   6.062  0.4257 -3.0863 -3.4792
  156MOL    H1143721   6.244   6.960   6.428 -0.8033 -0.3889  0.0734
  156MOL    H1243722   6.090   6.969   6.164  1.8257 -0.0921  0.3973
  156MOL    H1343723   6.426   6.794   6.418  0.5905  2.2838  0.8065
  156MOL    H1443724   6.624   6.710   6.289 -1.7239 -0.6180  0.6265
  156MOL    H1543725   6.646   6.761   6.052  0.2488  1.7507 -0.7492
  156MOL    C1643726   5.984   7.041   6.344  0.6355  0.0232  0.2126
  156MOL    C1743727   5.868   7.080   6.272  0.5530  0.1867 -0.2215
  156MOL    C1843728   5.750   7.125   6.328  0.1268  0.0808  0.1805
  156MOL    C1943729   5.746   7.138   6.467  0.2392 -0.3451 -0.3496
  156MOL    C2043730   5.625   7.188   6.542  0.0093  0.3443  0.1351
  156MOL    C2143731   5.511   7.220   6.488  0.4211 -0.0113  0.2584
  156MOL    C2243732   5.858   7.110   6.544 -0.1059 -0.0538  0.3795
  156MOL    C2343733   5.980   7.063   6.483  0.4947  0.2957 -0.4632
  156MOL    H2443734   5.868   7.066   6.165 -0.3784  1.8035 -0.4456
  156MOL    H2543735   5.664   7.144   6.265  1.8007  1.3341 -1.8224
  156MOL    H2643736   5.635   7.193   6.649  0.2178 -0.4605  0.1577
  156MOL    H2743737   5.505   7.206   6.381  0.2256  2.5065 -0.0828
  156MOL    H2843738   5.866   7.129   6.650 -2.9295 -2.2527  1.0441
  156MOL    H2943739   6.069   7.050   6.544  0.4773  1.7958 -0.0932
  156MOL    C3043740   5.396   7.274   6.564  0.4993  0.1188 -0.2255
  156MOL    C3143741   5.404   7.327   6.694  0.2667  0.0170 -1.0745
  156MOL    C3243742   5.294   7.392   6.757 -0.0803  0.5645  0.5228
  156MOL    C3343743   5.169   7.400   6.692  0.2785 -0.2563  0.4075
  156MOL    C3443744   5.064   7.480   6.760 -0.4675  0.5727  0.0524
  156MOL    C3543745   5.063   7.535   6.882 -0.6034  0.2793  0.2271
  156MOL    C3643746   5.156   7.333   6.569  0.2165  0.0420 -0.5731
  156MOL    C3743747   5.266   7.268   6.511  0.0032 -0.2776 -0.0328
  156MOL    H3843748   5.493   7.334   6.756  0.4220 -0.1670 -1.2775
  156MOL    H3943749   5.317   7.434   6.854 -1.1703 -0.7664  1.3778
  156MOL    H4043750   4.978   7.494   6.696  0.6527 -0.2598 -1.6619
  156MOL    H4143751   5.149   7.519   6.945 -2.3549 -1.3756  2.2941
  156MOL    H4243752   5.064   7.332   6.512 -0.0513  1.2320 -0.1636
  156MOL    H4343753   5.249   7.222   6.415 -2.7681  3.2873 -1.3914
  156MOL    C4443754   4.958   7.616   6.943  0.5827  0.3338 -0.3678
  156MOL    C4543755   4.839   7.644   6.873 -0.4338 -0.4994  0.2017
  156MOL    C4643756   4.739   7.718   6.929  0.3101  0.2036 -0.3905
  156MOL    C4743757   4.758   7.776   7.058  0.5220  0.3907  1.2909
  156MOL    C4843758   4.648   7.871   7.109 -0.3749 -0.8318 -0.0310
  156MOL    C4943759   4.652   7.963   7.205  0.3205 -0.1688 -0.4994
  156MOL    C5043760   4.867   7.746   7.135 -0.3244  0.3678  0.1253
  156MOL    C5143761   4.977   7.677   7.074 -0.1543  0.4061  0.1452
  156MOL    H5243762   4.814   7.613   6.773 -2.1545 -0.5753  0.6428
  156MOL    H5343763   4.647   7.749   6.880 -0.8671 -0.4976  1.3119
  156MOL    H5443764   4.552   7.855   7.062 -0.2085 -0.2672 -0.5708
  156MOL    H5543765   4.739   7.976   7.268 -1.4017  0.2278  1.8705
  156MOL    H5643766   4.867   7.791   7.233  1.1903 -0.7170  0.6316
  156MOL    H5743767   5.065   7.655   7.133 -0.3091 -1.2138 -0.1953
  156MOL    C5843768   4.534   8.045   7.249 -0.3964  0.1850 -0.3238
  156MOL    C5943769   4.557   0.028   7.307  0.1504  0.3843 -0.8038
  156MOL    C6043770   4.445   0.116   7.335 -0.7393 -0.2425 -0.3960
  156MOL    C6143771   4.315   0.063   7.317  0.2111  0.8290 -0.0755
  156MOL    C6243772   4.199   0.147   7.342 -0.8247 -0.7884  0.2124
  156MOL    C6343773   4.076   0.108   7.360  0.4618  0.0109 -0.1660
  156MOL    C6443774   4.306   8.072   7.284  0.5899 -0.9476  0.3613
  156MOL    C6543775   4.404   7.992   7.247 -0.1825 -0.0508  0.5546
  156MOL    H6643776   4.653   0.074   7.323 -0.0697  0.1004  1.4090
  156MOL    H6743777   4.449   0.217   7.374 -0.3349 -0.3222 -0.2318
  156MOL    H6843778   4.217   0.254   7.337  1.8908 -1.2993 -3.3462
  156MOL    H6943779   4.052   0.003   7.363  3.5506 -0.7103  1.5552
  156MOL    H7043780   4.207   8.030   7.274 -0.9499  2.3980  0.9318
  156MOL    H7143781   4.384   7.889   7.223 -0.4993  0.3670 -0.9989
  156MOL    C7243782   3.960   0.196   7.387 -0.1480  0.6521 -0.3529
  156MOL    C7343783   3.978   0.338   7.411  0.0846  0.3171 -0.3480
  156MOL    C7443784   3.867   0.418   7.445 -0.5140 -0.1895  0.3576
  156MOL    C7543785   3.741   0.365   7.454 -0.1672  0.3690  0.1192
  156MOL    C7643786   3.619   0.440   7.499 -0.3780  0.6852  0.5065
  156MOL    C7743787   3.634   0.569   7.536 -0.1122 -0.0066  0.1133
  156MOL    C7843788   3.725   0.223   7.431 -0.1311  0.8232 -0.1848
  156MOL    C7943789   3.833   0.139   7.396  0.0569 -0.2798 -0.1434
  156MOL    H8043790   4.076   0.382   7.404  0.9639 -1.0165  2.8598
  156MOL    H8143791   3.883   0.524   7.458  2.4747 -0.6964  1.2331
  156MOL    H8243792   3.527   0.384   7.503 -1.1112  1.6399 -2.0149
  156MOL    H8343793   3.728   0.622   7.529  0.5092 -0.9810  1.0095
  156MOL    H8443794   3.623   0.190   7.444  0.5667 -1.1192  0.6694
  156MOL    H8543795   3.808   0.038   7.366 -1.3278 -0.1767  0.6255
  156MOL    C8643796   3.518   0.642   7.599 -0.3696  0.5397 -0.3488
  156MOL    C8743797   3.533   0.779   7.628  0.0478  0.4621 -0.4611
  156MOL    C8843798   3.439   0.853   7.700  0.0642  0.0780  1.6613
  156MOL    C8943799   3.318   0.793   7.740  0.2320 -1.0348  0.2892
  156MOL    C9043800   3.238   0.857   7.848  0.1714  0.3540 -0.2417
  156MOL    C9143801   3.115   0.815   7.893 -0.4148  0.5052 -0.1354
  156MOL    C9243802   3.297   0.659   7.703 -0.1180  0.7583  0.1997
  156MOL    C9343803   3.394   0.583   7.641  0.2432  0.4845  0.6239
  156MOL    H9443804   3.629   0.817   7.595  0.3357  0.9288  0.8879
  156MOL    H9543805   3.460   0.954   7.732  1.3682 -0.3300  2.1213
  156MOL    H9643806   3.282   0.942   7.898  1.2324 -0.6342  0.5544
  156MOL    H9743807   3.068   0.741   7.830  0.4156  0.5768 -0.8499
  156MOL    H9843808   3.206   0.613   7.738  0.4059 -0.0726  0.4748
  156MOL    H9943809   3.374   0.480   7.613 -0.7409  0.8623 -0.1032
  156MOL   C10043810   3.045   0.869   8.008  0.0385 -0.3373 -0.0383
  156MOL   C10143811   3.083   0.993   8.060  0.3734  0.0682 -0.1639
  156MOL   C10243812   3.042   1.033   0.043  0.0954  0.6381  0.5243
  156MOL   C10343813   2.954   0.947   0.118 -0.0348  0.4953  0.6764
  156MOL   C10443814   2.922   0.963   0.263 -0.3063 -0.1663 -0.3227
  156MOL   C10543815   2.990   1.046   0.344  0.4984 -0.8129  0.0799
  156MOL   C10643816   2.901   0.833   0.054  0.4183  0.3155 -0.2359
  156MOL   C10743817   2.956   0.791   8.078 -0.4396 -0.4197  0.1884
  156MOL   H10843818   3.149   1.056   8.003  1.5484 -0.2721  0.8124
  156MOL   H10943819   3.089   1.123   0.079 -0.2711  1.2746 -0.5714
  156MOL   H11043820   2.849   0.892   0.299  2.6086 -1.8594  2.5558
  156MOL   H11143821   3.064   1.109   0.296  0.0367  0.3903  0.9418
  156MOL   H11243822   2.822   0.770   0.091 -0.5228  1.6337  0.0437
  156MOL   H11343823   2.927   0.695   8.036  0.6759 -0.5338 -0.3532
  156MOL   C11443824   2.977   1.060   0.488 -0.6253  0.8730 -0.0279
  156MOL   C11543825   3.060   1.158   0.553  0.6136 -0.3157 -0.5412
  156MOL   C11643826   3.058   1.176   0.695 -0.1862  1.2973  0.0559
  156MOL   C11743827   2.995   1.081   0.779  0.7807 -0.6356 -0.2544
  156MOL   C11843828   3.009   1.082   0.930  0.3731  0.0832  0.1925
  156MOL   C11943829   3.062   1.184   0.996 -0.2186 -0.6861 -0.0086
  156MOL   C12043830   2.920   0.982   0.717 -0.0790  0.4328  0.0674
  156MOL   C12143831   2.910   0.968   0.575  0.0920 -0.1075 -0.7245
  156MOL   H12243832   3.130   1.212   0.490 -0.3507 -0.8563 -2.1280
  156MOL   H12343833   3.116   1.259   0.733  2.2286 -0.9114  1.3576
  156MOL   H12443834   2.970   1.001   0.989  0.8124 -0.3955 -0.1708
  156MOL   H12543835   3.098   1.274   0.948  0.9504 -1.1297  0.0419
  156MOL   H12643836   2.874   0.919   0.791  1.7821 -1.7373 -0.5657
  156MOL   H12743837   2.848   0.888   0.537 -1.0346  0.5265 -0.2773
  156MOL   C12843838   3.089   1.179   1.141  0.3412  0.6796  0.2588
  156MOL   C12943839   3.025   1.091   1.239  0.2694 -0.0340 -0.5007
  156MOL   C13043840   3.074   1.089   1.367 -0.5403 -0.2900  0.1059
  156MOL   C13143841   3.175   1.179   1.415 -0.1170 -0.3443  0.0497
  156MOL   C13243842   3.230   1.180   1.553 -0.7669 -0.4777 -0.0645
  156MOL   C13343843   3.191   1.103   1.657 -0.1702  0.0555 -0.6409
  156MOL   C13443844   3.226   1.268   1.321  0.3216  0.5461  0.4414
  156MOL   C13543845   3.189   1.261   1.187 -0.4291  1.4262  0.0597
  156MOL   H13643846   2.947   1.023   1.209 -0.4620 -0.5649  2.4512
  156MOL   H13743847   3.034   1.012   1.431 -0.9696 -0.8309 -0.8055
  156MOL   H13843848   3.305   1.252   1.583  1.1831 -1.9838 -1.2745
  156MOL   H13943849   3.109   1.034   1.642 -0.2817 -0.4915  2.1958
  156MOL   H14043850   3.294   1.347   1.349  0.4416  0.2142  1.0845
  156MOL   H14143851   3.238   1.329   1.118  0.5864  1.0101  0.3609
  156MOL   C14243852   3.255   1.102   1.791  0.6660 -0.6077  0.2453
  156MOL   C14343853   3.394   1.124   1.800  0.4177  0.1796  1.1234
  156MOL   C14443854   3.460   1.106   1.925 -0.2193 -0.1748  0.2008
  156MOL   C14543855   3.387   1.082   2.045 -0.0174  0.2989  0.7801
  156MOL   C14643856   3.459   1.055   2.174 -0.2549  0.3829  0.4110
  156MOL   C14743857   3.416   0.986   2.283  0.5032  0.2616  0.6210
  156MOL   C14843858   3.248   1.058   2.034  0.5226  0.2280  0.4932
  156MOL   C14943859   3.181   1.073   1.903 -0.4314 -0.1781  0.2745
  156MOL   H15043860   3.447   1.154   1.711  1.3996  0.4169  1.7741
  156MOL   H15143861   3.563   1.133   1.945  0.3763 -2.6422  0.5998
  156MOL   H15243862   3.559   1.092   2.186 -0.1140  0.3588 -0.7047
  156MOL   H15343863   3.312   0.955   2.286  0.2968  0.6057 -1.9336
  156MOL   H15443864   3.182   1.027   2.114 -1.1053  1.4607 -0.3424
  156MOL   H15543865   3.074   1.059   1.894 -0.3254 -1.2197  0.5041
  156MOL   C15643866   3.502   0.951   2.402  0.3437  0.4833 -0.5209
  156MOL   C15743867   3.639   0.929   2.390 -0.4672  0.7497  0.3113
  156MOL   C15843868   3.723   0.915   2.498  0.5156  0.0061 -0.5922
  156MOL   C15943869   3.674   0.940   2.634  0.0294 -0.2996  0.2902
  156MOL   C16043870   3.762   0.936   2.753 -0.3233 -0.2178  0.4419
  156MOL   C16143871   3.884   0.882   2.749  0.2397  0.1937  0.6180
  156MOL   C16243872   3.536   0.964   2.645 -0.0576 -0.2404 -0.5359
  156MOL   C16343873   3.446   0.969   2.531 -0.6600 -0.0409 -0.5477
  156MOL   H16443874   3.679   0.922   2.290  0.6159  3.1280  0.5450
  156MOL   H16543875   3.829   0.906   2.478  0.4673 -0.2174 -0.7411
  156MOL   H16643876   3.719   0.976   2.844 -0.8926 -1.5446  0.7623
  156MOL   H16743877   3.915   0.838   2.656  2.7204  2.7449  0.1698
  156MOL   H16843878   3.488   0.978   2.741 -1.0011  1.2314 -1.1885
  156MOL   H16943879   3.339   0.977   2.545 -0.8076 -1.6451 -0.7103
  156MOL   C17043880   3.971   0.864   2.857  0.2752  0.3315  0.2610
  156MOL   C17143881   3.946   0.886   2.995 -0.1369  0.1431  0.2023
  156MOL   C17243882   4.043   0.868   3.095 -1.1492  0.1439  0.3547
  156MOL   C17343883   4.167   0.807   3.063 -0.9419  0.0892 -0.1756
  156MOL   C17443884   4.261   0.775   3.173 -0.0928 -0.5639  0.2090
  156MOL   C17543885   4.397   0.794   3.165  0.0408  1.2349  0.8484
  156MOL   C17643886   4.186   0.771   2.922  0.3064 -0.1870 -0.3012
  156MOL   C17743887   4.102   0.815   2.820  0.1896 -0.2638  0.5498
  156MOL   H17843888   3.843   0.905   3.022  0.2847  2.1244  0.4883
  156MOL   H17943889   4.017   0.893   3.197 -1.0178 -0.1722  0.4675
  156MOL   H18043890   4.217   0.738   3.264 -1.1564 -1.1072 -0.5184
  156MOL   H18143891   4.420   0.827   3.065  2.8544  0.4355  1.1937
  156MOL   H18243892   4.273   0.710   2.899  0.0101 -0.0149 -1.9046
  156MOL   H18343893   4.132   0.782   2.722  1.1275 -1.0820  1.1094
  156MOL   C18443894   4.501   0.772   3.266 -0.0681  0.1006 -0.2281
  156MOL   C18543895   4.638   0.797   3.229  0.5440  0.4705  0.0063
  156MOL   C18643896   4.745   0.782   3.320  1.0769 -0.0661  0.2435
  156MOL   C18743897   4.715   0.741   3.448  0.3835  0.1161 -0.4500
  156MOL   C18843898   4.825   0.733   3.544  0.6006 -0.5097 -0.4399
  156MOL   C18943899   4.828   0.654   3.651  0.1294 -0.7603  0.2688
  156MOL   C19043900   4.580   0.713   3.490  0.1206  0.7195  0.2427
  156MOL   C19143901   4.473   0.735   3.403 -0.1025 -0.4959 -0.2994
  156MOL   H19243902   4.655   0.813   3.123 -0.7697  0.1857 -0.2560
  156MOL   H19343903   4.850   0.791   3.298  1.7534 -1.5677  2.6913
  156MOL   H19443904   4.909   0.799   3.529 -0.9566  1.2697 -1.5049
  156MOL   H19543905   4.749   0.583   3.668  0.8920 -2.0558 -1.5334
  156MOL   H19643906   4.551   0.687   3.591  0.3951 -1.7074 -0.2896
  156MOL   H19743907   4.371   0.721   3.437 -0.2043  0.8209 -0.0591
  156MOL   C19843908   4.942   0.657   3.744  0.5633 -0.6044 -0.1472
  156MOL   C19943909   5.048   0.752   3.745 -0.8425  0.3309 -0.3630
  156MOL   C20043910   5.156   0.736   3.831 -0.2099 -0.2365  0.0119
  156MOL   C20143911   5.175   0.626   3.917  0.4961  0.3925 -0.2374
  156MOL   C20243912   5.298   0.603   3.994  0.2072 -0.2211 -0.1177
  156MOL   C20343913   5.410   0.678   4.010 -0.0686 -0.0072  0.4991
  156MOL   C20443914   5.065   0.532   3.919  0.4451 -0.7769 -0.6852
  156MOL   C20543915   4.958   0.544   3.831  0.2502  0.6298 -0.1205
  156MOL   H20643916   5.046   0.841   3.684  0.1929 -0.3494 -1.4002
  156MOL   H20743917   5.229   0.814   3.846  0.0113 -0.4138 -0.1574
  156MOL   H20843918   5.282   0.504   4.035 -3.6108  0.2373 -0.3404
  156MOL   H20943919   5.429   0.772   3.959  2.8445  0.5249  2.4707
  156MOL   H21043920   5.061   0.453   3.992 -1.6616  2.2559  2.6687
  156MOL   H21143921   4.885   0.464   3.827  1.0809 -0.1001 -0.8561
  156MOL   C21243922   5.526   0.639   4.087  0.2985 -0.5275 -0.2158
  156MOL   C21343923   5.609   0.733   4.153 -0.3459  0.1545 -0.4906
  156MOL   C21443924   5.726   0.700   4.222 -0.3270  0.0195  0.3095
  156MOL   C21543925   5.766   0.562   4.217 -0.6472  0.6766 -0.1082
  156MOL   C21643926   5.881   0.517   4.305  0.0318  0.1819 -0.2471
  156MOL   C21743927   5.927   0.393   4.321 -0.4160 -0.1268  0.2616
  156MOL   C21843928   5.691   0.474   4.142  0.0588 -0.1456  0.1185
  156MOL   C21943929   5.570   0.506   4.081 -0.2392 -0.6145  0.0375
  156MOL   H22043930   5.582   0.837   4.159 -1.9902 -0.2291 -0.9563
  156MOL   H22143931   5.781   0.782   4.266 -2.3047 -0.1641  3.2853
  156MOL   H22243932   5.937   0.589   4.363  4.1770 -4.0531  1.3128
  156MOL   H22343933   5.880   0.312   4.267 -0.0326 -0.4006  0.3380
  156MOL   H22443934   5.706   0.367   4.144  0.6056 -0.0592  0.7153
  156MOL   H22543935   5.519   0.431   4.023 -0.4932 -0.9747  0.7250
  156MOL   C22643936   6.039   0.342   4.401 -0.0646  0.7429 -0.2903
  156MOL   C22743937   6.128   0.426   4.469  0.5978  0.9487  0.0702
  156MOL   C22843938   6.244   0.379   4.534  0.8946  0.0382 -0.2694
  156MOL   C22943939   6.272   0.241   4.535 -0.2874  0.1107  0.1681
  156MOL   C23043940   6.390   0.180   4.595  0.6876 -0.2323  0.2648
  156MOL   C23143941   6.468   0.242   4.685 -1.1095  0.1514 -0.6992
  156MOL   C23243942   6.183   0.156   4.461 -0.3365 -0.2914 -0.3428
  156MOL   C23343943   6.069   0.209   4.400  0.8072 -1.1501 -0.2606
  156MOL   H23443944   6.112   0.533   4.472 -1.9466  0.5816  2.2182
  156MOL   H23543945   6.313   0.445   4.584  1.5949 -1.3888  0.6978
  156MOL   H23643946   6.419   0.081   4.560 -0.8092 -0.1206 -1.3212
  156MOL   H23743947   6.441   0.335   4.733 -3.5591 -0.0865 -1.5685
  156MOL   H23843948   6.201   0.051   4.443  2.0036  0.3486 -1.9228
  156MOL   H23943949   6.010   0.137   4.344 -1.5107 -0.5297  1.3368
  156MOL   C24043950   6.592   0.192   4.751 -0.0065 -0.7440 -0.1125
  156MOL   C24143951   6.660   0.078   4.704  0.0358  0.3089  0.7936
  156MOL   C24243952   6.771   0.033   4.780 -0.1968 -0.3688  0.5511
  156MOL   C24343953   6.823   0.110   4.888  0.1695  0.6074 -0.2830
  156MOL   C24443954   6.945   0.067   4.946  0.5153  0.2376 -0.6485
  156MOL   C24543955   7.033   0.143   5.019  0.1405  0.3124  0.0001
  156MOL   C24643956   6.756   0.228   4.923 -0.3868 -0.0514 -0.1206
  156MOL   C24743957   6.634   0.269   4.864  0.0436 -0.5935 -0.5481
  156MOL   H24843958   6.617   0.018   4.625 -1.3434  0.1621  1.6446
  156MOL   H24943959   6.815   8.083   4.754 -0.9192  0.1260 -2.6011
  156MOL   H25043960   6.967   8.106   4.934  2.5332  0.3034  2.1319
  156MOL   H25143961   7.006   0.246   5.036 -0.2379  0.1792  0.2232
  156MOL   H25243962   6.783   0.284   5.010 -0.3137 -0.1514 -0.0784
  156MOL   H25343963   6.574   0.350   4.902  1.7448  1.7304 -2.6854
  156MOL   C25443964   7.160   0.088   5.072  0.4122 -0.0960 -0.0365
  156MOL   C25543965   7.212   8.101   5.059  0.9495  0.3337 -0.0264
  156MOL   C25643966   7.332   8.060   5.111 -0.0870  0.4773 -0.2501
  156MOL   C25743967   7.413   0.002   5.185  0.6942 -0.6813 -0.2056
  156MOL   C25843968   7.545   8.097   5.238  0.0576  0.2728 -0.0459
  156MOL   C25943969   7.637   8.026   5.174  0.2181  0.2685  0.2339
  156MOL   C26043970   7.364   0.131   5.200  0.4012  0.4270  0.6664
  156MOL   C26143971   7.241   0.180   5.146  0.0035 -0.3858  0.3990
  156MOL   H26243972   7.152   8.030   5.004  0.0221  0.1989  1.1313
  156MOL   H26343973   7.361   7.957   5.096  0.1698  0.5574 -0.3062
  156MOL   H26443974   7.566   8.123   5.341  1.3722  0.6911 -0.4026
  156MOL   H26543975   7.720   8.002   5.238 -0.0083 -1.3216 -0.0459
  156MOL   H26643976   7.424   0.202   5.255 -0.6027  1.5356  0.3580
  156MOL   H26743977   7.198   0.278   5.167  0.2867 -0.1247 -0.2336
  156MOL   C26843978   7.649   7.979   5.033 -0.4369 -0.0210 -0.2928
  156MOL   C26943979   7.601   8.054   4.918 -0.4300  0.7207  0.9192
  156MOL   C27043980   7.616   8.000   4.790  0.5111 -0.4203 -0.2038
  156MOL   C27143981   7.676   7.871   4.771 -0.3788 -0.0187 -0.4341
  156MOL   C27243982   7.695   7.816   4.637  0.2047  0.1630 -0.2914
  156MOL   C27343983   7.711   7.888   4.528  0.0284 -0.2708 -0.1788
  156MOL   C27443984   7.722   7.797   4.885 -0.2306  0.3947 -0.7163
  156MOL   C27543985   7.714   7.855   5.015 -0.4243  0.1250  0.6771
  156MOL   H27643986   7.555   0.006   4.933 -4.5167 -0.8114 -1.1271
  156MOL   H27743987   7.584   8.048   4.698  0.1535  1.4770  0.8868
  156MOL   H27843988   7.703   7.708   4.639  1.2125  0.2201  3.3098
  156MOL   H27943989   7.714   7.995   4.536  0.0468 -0.3700  1.2819
  156MOL   H28043990   7.773   7.704   4.865  0.9941  1.4865 -2.8696
  156MOL   H28143991   7.766   7.797   5.090  0.0246 -0.6943 -0.2479
  156MOL   H28243992   7.733   7.836   4.435  2.7126 -1.6510  1.1921
  157MOL     C143993   4.271   7.242   5.125 -0.9014  0.6242 -0.1980
  157MOL     C243994   4.343   7.231   5.245  0.3786  0.2477  0.3006
  157MOL     C343995   4.371   7.102   5.290 -0.5466 -0.1879  1.0765
  157MOL     C443996   4.313   6.990   5.228 -0.1345 -0.1782 -0.0301
  157MOL     C543997   4.324   6.859   5.286  0.7666 -0.4433 -0.3868
  157MOL     C643998   4.341   6.832   5.418  0.1832 -0.0675  0.3796
  157MOL     C743999   4.235   7.003   5.111  0.3888  0.6740 -0.3506
  157MOL     C844000   4.228   7.128   5.056  0.3027  0.8071  0.2521
  157MOL     H944001   4.379   7.318   5.297  2.2209 -0.5472  0.3807
  157MOL    H1044002   4.438   7.091   5.374 -0.3254  0.7901  1.0359
  157MOL    H1144003   4.315   6.777   5.216 -1.8437  1.1166 -1.9349
  157MOL    H1244004   4.342   6.909   5.493 -0.4074 -0.0735  0.3962
  157MOL    H1344005   4.186   6.913   5.077 -2.4097  2.2994 -0.7460
  157MOL    H1444006   4.178   7.140   4.961  2.7270  0.6822 -1.0798
  157MOL    H1544007   4.258   7.336   5.073 -1.8255  0.5269 -0.1573
  157MOL    C1644008   4.359   6.696   5.466  0.0271 -0.3390  0.3483
  157MOL    C1744009   4.340   6.576   5.396 -0.2295  0.2859 -0.0043
  157MOL    C1844010   4.381   6.444   5.443  0.2000 -0.4613  0.0375
  157MOL    C1944011   4.444   6.436   5.565 -0.2906  0.6238  0.1554
  157MOL    C2044012   4.473   6.296   5.610  0.1652 -0.1302 -0.3471
  157MOL    C2144013   4.457   6.259   5.735 -0.5405 -0.2513 -0.3128
  157MOL    C2244014   4.447   6.549   5.641  0.7712  0.9593  0.0431
  157MOL    C2344015   4.410   6.678   5.592 -1.4985  0.1684 -0.1462
  157MOL    H2444016   4.293   6.570   5.299 -0.8327  0.0964  0.2973
  157MOL    H2544017   4.359   6.359   5.380  0.5108  1.2177 -2.4053
  157MOL    H2644018   4.513   6.230   5.534 -0.6762 -0.5064 -0.4689
  157MOL    H2744019   4.429   6.330   5.811  0.9368 -0.5464  0.5172
  157MOL    H2844020   4.501   6.548   5.735 -1.8884  3.9548  1.6977
  157MOL    H2944021   4.426   6.766   5.653 -1.2339  0.5531 -0.7641
  157MOL    C3044022   4.482   6.125   5.797 -0.0369  0.4662  0.5768
  157MOL    C3144023   4.450   6.109   5.930 -1.1543  0.2699  0.1677
  157MOL    C3244024   4.475   5.994   6.003  0.2388 -0.0881  0.5638
  157MOL    C3344025   4.546   5.890   5.939  0.2663 -0.7264 -0.2761
  157MOL    C3444026   4.589   5.780   6.016  0.3480 -0.7724  1.4892
  157MOL    C3544027   4.510   5.717   6.107  0.2490 -0.5023  0.5698
  157MOL    C3644028   4.574   5.903   5.799  0.0904  0.5804 -0.6300
  157MOL    C3744029   4.550   6.023   5.727 -0.2185  0.0397  0.3430
  157MOL    H3844030   4.407   6.195   5.979  0.2303  1.3235 -0.4477
  157MOL    H3944031   4.459   5.999   6.110 -0.4654 -0.7157  0.4945
  157MOL    H4044032   4.690   5.751   5.994  0.8200  2.5606 -1.1709
  157MOL    H4144033   4.406   5.747   6.109  1.1633  3.0077 -0.8022
  157MOL    H4244034   4.618   5.819   5.747 -0.1485  0.3739 -0.5019
  157MOL    H4344035   4.570   6.038   5.622  1.0574  0.7574  0.6723
  157MOL    C4444036   4.554   5.608   6.198 -0.0691  0.5386 -0.0035
  157MOL    C4544037   4.467   5.571   6.304  0.2600  0.1705 -0.7166
  157MOL    C4644038   4.493   5.465   6.393  0.1627  0.0116 -0.2744
  157MOL    C4744039   4.611   5.391   6.378  0.2264  0.0913 -0.8635
  157MOL    C4844040   4.642   5.270   6.471  0.2556 -0.4151  0.5917
  157MOL    C4944041   4.566   5.232   6.573  0.5320  0.1710 -0.9844
  157MOL    C5044042   4.701   5.430   6.274 -0.4222 -0.4274  0.2006
  157MOL    C5144043   4.673   5.535   6.184 -0.4414 -0.2060  0.2554
  157MOL    H5244044   4.377   5.628   6.320  0.5287  0.5044 -0.3651
  157MOL    H5344045   4.419   5.448   6.470  0.5713 -2.0933 -0.3005
  157MOL    H5444046   4.733   5.220   6.441 -0.1093 -0.1794 -0.9529
  157MOL    H5544047   4.481   5.295   6.593 -0.7509 -0.9229 -2.8577
  157MOL    H5644048   4.801   5.390   6.268 -1.1463 -2.2189 -0.4753
  157MOL    H5744049   4.742   5.558   6.104 -1.2996 -0.1648 -0.4726
  157MOL    C5844050   4.586   5.121   6.663 -0.2226  0.2519 -0.0117
  157MOL    C5944051   4.712   5.051   6.685 -0.1559 -0.2312 -0.3384
  157MOL    C6044052   4.711   4.949   6.784  0.0033  0.3110  0.0751
  157MOL    C6144053   4.596   4.922   6.857  0.3671  0.0896  0.1859
  157MOL    C6244054   4.593   4.807   6.951  0.8675 -0.5967  0.4162
  157MOL    C6344055   4.689   4.712   6.954 -0.0647 -0.2549 -0.0771
  157MOL    C6444056   4.480   4.995   6.843  0.2796  0.2585  0.4599
  157MOL    C6544057   4.473   5.095   6.744 -0.4784 -0.8533 -0.1734
  157MOL    H6644058   4.794   5.080   6.622 -0.1991 -0.4433 -0.4918
  157MOL    H6744059   4.809   4.903   6.790 -0.2170 -0.7660 -3.3313
  157MOL    H6844060   4.512   4.795   7.022  1.0365 -0.3018  0.6670
  157MOL    H6944061   4.776   4.729   6.892  1.2806 -1.1554  1.5183
  157MOL    H7044062   4.389   4.979   6.900 -0.1801  0.2649 -0.2602
  157MOL    H7144063   4.379   5.146   6.730  0.6064  1.1132 -0.5518
  157MOL    C7244064   4.661   4.572   7.014 -0.2278 -0.0223  0.1569
  157MOL    C7344065   4.532   4.536   7.057  0.2243  0.5699 -0.1171
  157MOL    C7444066   4.511   4.399   7.096  0.0826 -0.0477  0.0419
  157MOL    C7544067   4.618   4.303   7.095 -0.0455  0.2212  0.0757
  157MOL    C7644068   4.584   4.160   7.106  0.6994 -0.2382 -0.1205
  157MOL    C7744069   4.658   4.055   7.075 -0.5635  0.7608 -0.4111
  157MOL    C7844070   4.751   4.353   7.071  0.4245  0.5837  0.7799
  157MOL    C7944071   4.765   4.485   7.021  0.0127  0.7235  0.1465
  157MOL    H8044072   4.446   4.601   7.060 -1.7414 -1.9831  0.8217
  157MOL    H8144073   4.414   4.354   7.113  0.3196  0.1340  1.9898
  157MOL    H8244074   4.488   4.138   7.150  2.0005 -0.6290  2.6564
  157MOL    H8344075   4.757   4.076   7.037 -0.2052  0.6892  0.4741
  157MOL    H8444076   4.831   4.284   7.090  1.8573  1.8440 -0.5404
  157MOL    H8544077   4.863   4.517   6.989  0.1313 -0.9993 -1.2903
  157MOL    C8644078   4.622   3.913   7.075 -0.0509  0.1537  0.4096
  157MOL    C8744079   4.499   3.863   7.121  0.1047  0.3154 -0.0665
  157MOL    C8844080   4.461   3.728   7.104  0.2729 -0.3118  0.1600
  157MOL    C8944081   4.546   3.641   7.031  0.0790 -0.1260 -0.0501
  157MOL    C9044082   4.496   3.502   7.002 -0.5784  0.1920  1.1415
  157MOL    C9144083   4.562   3.406   6.939 -0.4283  0.2703 -0.7643
  157MOL    C9244084   4.664   3.691   6.981  0.2273 -0.0812 -0.0314
  157MOL    C9344085   4.703   3.825   7.006 -0.0811 -0.0383  0.1880
  157MOL    H9444086   4.432   3.925   7.180  0.5244  0.0832  0.6575
  157MOL    H9544087   4.363   3.693   7.133  0.1935 -0.8811 -0.7928
  157MOL    H9644088   4.393   3.494   7.034 -2.5355  3.1728 -3.8675
  157MOL    H9744089   4.667   3.423   6.920 -0.9359  2.0138 -2.1268
  157MOL    H9844090   4.732   3.632   6.922  1.8751  1.5614  0.1840
  157MOL    H9944091   4.799   3.850   6.964  0.1197 -0.7831  0.1941
  157MOL   C10044092   4.504   3.279   6.888  0.8268  0.4353  0.2410
  157MOL   C10144093   4.576   3.218   6.787 -0.3858  0.3493  0.4392
  157MOL   C10244094   4.523   3.104   6.716  0.4676  0.0929 -0.5561
  157MOL   C10344095   4.393   3.063   6.753 -0.2199 -0.3668  0.4180
  157MOL   C10444096   4.325   2.964   6.671 -0.7724  0.2645 -0.2918
  157MOL   C10544097   4.188   2.951   6.652 -0.1755  0.2872 -0.2973
  157MOL   C10644098   4.317   3.134   6.850  0.1018  0.4201  1.0219
  157MOL   C10744099   4.372   3.242   6.915 -0.1746  0.2115 -0.3454
  157MOL   H10844100   4.674   3.254   6.759 -0.4287  0.0212 -0.1443
  157MOL   H10944101   4.578   3.055   6.636  1.3016 -0.2999  0.2460
  157MOL   H11044102   4.391   2.897   6.619 -0.0403  0.4302  0.4093
  157MOL   H11144103   4.124   3.018   6.707 -0.5026 -1.1839  1.1557
  157MOL   H11244104   4.215   3.100   6.863  0.0429  0.6328  1.1047
  157MOL   H11344105   4.320   3.297   6.992 -1.0279  0.2333 -0.9308
  157MOL   C11444106   4.112   2.850   6.577  0.3994  1.1001 -0.2410
  157MOL   C11544107   3.975   2.873   6.560  0.6866 -0.2451  0.2494
  157MOL   C11644108   3.896   2.790   6.479  0.1770 -0.4245  0.0094
  157MOL   C11744109   3.961   2.686   6.408 -0.0486  0.2289 -0.1553
  157MOL   C11844110   3.877   2.605   6.318  0.0593 -0.0102 -0.2204
  157MOL   C11944111   3.925   2.519   6.227  0.2511  0.0058  0.6124
  157MOL   C12044112   4.096   2.661   6.425  0.0330  0.2162 -0.0826
  157MOL   C12144113   4.173   2.739   6.512  1.1705 -0.5470  0.1672
  157MOL   H12244114   3.930   2.956   6.613  0.6105 -0.4554  0.5172
  157MOL   H12344115   3.796   2.822   6.453 -0.6013 -2.6833  0.1370
  157MOL   H12444116   3.770   2.616   6.333  0.1993  3.0350 -1.0035
  157MOL   H12544117   4.029   2.515   6.199  0.2620  0.9731  0.5070
  157MOL   H12644118   4.157   2.597   6.363 -2.1570  0.0449 -2.1653
  157MOL   H12744119   4.281   2.738   6.517  1.1709  1.8112  1.3613
  157MOL   C12844120   3.850   2.412   6.163 -0.6343  0.0037  0.5465
  157MOL   C12944121   3.887   2.362   6.039  0.6971 -0.2499  0.8708
  157MOL   C13044122   3.807   2.263   5.974  1.0091 -0.1163 -0.1291
  157MOL   C13144123   3.687   2.213   6.032 -0.7063 -0.4486 -0.8016
  157MOL   C13244124   3.605   2.122   5.950 -1.5152 -0.3414  0.0823
  157MOL   C13344125   3.500   2.047   5.991 -0.4682  0.5824  0.0785
  157MOL   C13444126   3.658   2.257   6.164  0.3286 -0.0679  0.3932
  157MOL   C13544127   3.742   2.357   6.226  0.3107  0.8594  0.3665
  157MOL   H13644128   3.973   2.401   5.987 -0.5974 -0.8396 -1.8093
  157MOL   H13744129   3.836   2.219   5.880  0.9190 -0.7731  0.1512
  157MOL   H13844130   3.627   2.120   5.844 -0.0053 -0.7835  0.3965
  157MOL   H13944131   3.463   2.048   6.092 -2.1544 -0.9488 -0.4901
  157MOL   H14044132   3.573   2.218   6.218  1.0040 -1.2067  0.6517
  157MOL   H14144133   3.717   2.387   6.327  0.6594  1.7166  0.1952
  157MOL   C14244134   3.420   1.954   5.905 -0.5282 -0.1035 -0.4873
  157MOL   C14344135   3.446   1.915   5.773  0.3297  0.4115  0.2868
  157MOL   C14444136   3.370   1.814   5.709 -0.1247 -0.8296  0.2683
  157MOL   C14544137   3.263   1.748   5.769 -0.9009  0.1003  0.5349
  157MOL   C14644138   3.194   1.636   5.706 -0.8162 -0.4284 -0.5517
  157MOL   C14744139   3.081   1.578   5.746 -0.4788 -0.8863  0.3659
  157MOL   C14844140   3.232   1.790   5.899  0.8587  0.1181 -0.5127
  157MOL   C14944141   3.306   1.889   5.967  0.0863  0.6464 -0.1038
  157MOL   H15044142   3.532   1.955   5.722  0.0864 -1.0976 -1.3661
  157MOL   H15144143   3.418   1.776   5.620  2.1862  1.5287  0.4547
  157MOL   H15244144   3.229   1.592   5.614  0.1087 -2.1967  0.6306
  157MOL   H15344145   3.029   1.615   5.833 -2.0994 -3.8195  0.6982
  157MOL   H15444146   3.146   1.741   5.944  0.8645  0.4820 -0.1030
  157MOL   H15544147   3.276   1.910   6.069 -0.1644 -2.4473  0.5129
  157MOL   C15644148   3.018   1.459   5.679  0.0654 -0.5116 -0.9135
  157MOL   C15744149   2.901   1.411   5.740 -0.3680  0.6528 -0.3160
  157MOL   C15844150   2.846   1.294   5.695 -0.7163 -0.6038 -0.7505
  157MOL   C15944151   2.899   1.224   5.585 -0.4308  0.2175  0.2700
  157MOL   C16044152   2.838   1.088   5.554 -0.6508 -0.4370  0.0431
  157MOL   C16144153   2.872   1.003   5.454 -0.6940 -0.4206 -0.5234
  157MOL   C16244154   3.014   1.278   5.518  0.4433 -0.1780 -0.1410
  157MOL   C16344155   3.075   1.395   5.567 -0.2757  0.0241  0.9011
  157MOL   H16444156   2.868   1.471   5.824  0.8674  1.9601 -0.7318
  157MOL   H16544157   2.768   1.264   5.764 -0.7902 -3.7666 -2.1392
  157MOL   H16644158   2.754   1.058   5.615 -0.7940 -1.1016 -0.4774
  157MOL   H16744159   2.955   1.037   5.394 -1.1250  0.2817 -0.7208
  157MOL   H16844160   3.063   1.212   5.448 -1.4299  0.7610 -2.4260
  157MOL   H16944161   3.169   1.425   5.522 -1.4460  0.1718 -1.5267
  157MOL   C17044162   2.826   0.864   5.422 -0.0138  0.2256  0.2201
  157MOL   C17144163   2.746   0.793   5.518 -1.1328 -0.5697  0.2991
  157MOL   C17244164   2.717   0.658   5.490 -0.4739  0.2936 -0.3578
  157MOL   C17344165   2.767   0.599   5.374 -0.3878  0.3006  0.1634
  157MOL   C17444166   2.753   0.453   5.360  0.1707 -0.1381 -0.4172
  157MOL   C17544167   2.845   0.383   5.289  0.1242  1.0321  0.7002
  157MOL   C17644168   2.830   0.674   5.280  0.8235  0.1847  0.2077
  157MOL   C17744169   2.857   0.807   5.301  0.4841  0.7550  0.3108
  157MOL   H17844170   2.705   0.852   5.599 -0.6606  0.7003 -0.3821
  157MOL   H17944171   2.671   0.601   5.570 -0.5320  1.6848  0.6239
  157MOL   H18044172   2.667   0.413   5.412 -0.1125 -1.4754 -1.9159
  157MOL   H18144173   2.925   0.433   5.237  0.6096 -0.6508 -0.1984
  157MOL   H18244174   2.868   0.627   5.191 -1.9788 -1.1243 -0.3473
  157MOL   H18344175   2.915   0.859   5.226  0.9212 -0.1105  0.0411
  157MOL   C18444176   2.862   0.239   5.282  0.4162 -0.2109 -0.6786
  157MOL   C18544177   2.773   0.153   5.351  0.3230 -0.0682  0.8573
  157MOL   C18644178   2.796   0.012   5.360  0.6490  0.6559 -0.6491
  157MOL   C18744179   2.901   8.099   5.292  0.0681  0.1898 -0.4265
  157MOL   C18844180   2.937   7.949   5.292  0.5428 -0.3358 -0.1610
  157MOL   C18944181   2.900   7.866   5.395 -1.0247  0.5506  0.6759
  157MOL   C19044182   2.989   0.039   5.227  0.3465  0.5766  0.4143
  157MOL   C19144183   2.962   0.175   5.207  0.4242  0.1172  0.2280
  157MOL   H19244184   2.688   0.196   5.401  0.9594  0.8040  1.1946
  157MOL   H19344185   2.735   8.095   5.425  1.7731  2.7338  2.5066
  157MOL   H19444186   2.997   7.917   5.207  0.7263  1.8679 -0.8803
  157MOL   H19544187   2.841   7.902   5.478 -0.7959  0.7952  0.7348
  157MOL   H19644188   3.076   8.133   5.187 -0.6895 -0.4139 -0.6380
  157MOL   H19744189   3.038   0.237   5.162 -0.0700  0.9887  0.5614
  157MOL   C19844190   2.943   7.727   5.419  0.2430  0.0943 -0.0978
  157MOL   C19944191   2.855   7.631   5.479  0.1794  0.6264  0.8858
  157MOL   C20044192   2.889   7.492   5.493  0.1398  0.4804 -0.4300
  157MOL   C20144193   3.017   7.451   5.448  0.0054  0.9510  0.6115
  157MOL   C20244194   3.056   7.309   5.477  0.0639  0.0061  0.1796
  157MOL   C20344195   3.164   7.245   5.419 -0.5078  0.0099  0.5397
  157MOL   C20444196   3.104   7.542   5.391  0.2755  0.8705  0.2776
  157MOL   C20544197   3.070   7.678   5.380 -0.4548 -0.5443  0.8971
  157MOL   H20644198   2.760   7.665   5.517  0.7234 -0.2044  3.1111
  157MOL   H20744199   2.834   7.425   5.557 -2.2924  1.6638 -1.2191
  157MOL   H20844200   2.995   7.258   5.550  0.9041 -1.1347  0.0994
  157MOL   H20944201   3.222   7.291   5.341 -1.4983 -0.3491 -0.4372
  157MOL   H21044202   3.200   7.511   5.353  0.0099 -0.8006  0.9200
  157MOL   H21144203   3.144   7.744   5.336 -1.0669 -0.4677 -0.0134
  157MOL   C21244204   3.215   7.107   5.448 -0.5381 -0.2044 -0.5697
  157MOL   C21344205   3.126   7.011   5.489 -0.1757 -0.1979  0.4467
  157MOL   C21444206   3.160   6.875   5.507 -0.2742 -0.0814 -0.4507
  157MOL   C21544207   3.294   6.834   5.512  0.2302  0.0811 -0.4652
  157MOL   C21644208   3.331   6.704   5.545  0.6504  0.3621  0.4350
  157MOL   C21744209   3.444   6.642   5.514  0.7895 -0.2185 -0.8297
  157MOL   C21844210   3.391   6.935   5.468  0.5054 -0.1432  0.3929
  157MOL   C21944211   3.346   7.067   5.435  0.4153  0.4046 -0.1308
  157MOL   H22044212   3.022   7.037   5.502 -0.1307 -0.0582  0.5205
  157MOL   H22144213   3.084   6.807   5.542  0.4369  0.1004  1.4506
  157MOL   H22244214   3.259   6.644   5.599 -0.2999 -0.0710 -1.3007
  157MOL   H22344215   3.519   6.703   5.467 -1.1874  2.0097 -1.2153
  157MOL   H22444216   3.498   6.922   5.471  0.4596 -0.4523  0.6829
  157MOL   H22544217   3.410   7.149   5.406 -0.3178  1.0884  0.1670
  157MOL   C22644218   3.482   6.505   5.544  0.5013  0.2132  0.3503
  157MOL   C22744219   3.392   6.415   5.613 -0.7083  0.2771  0.2987
  157MOL   C22844220   3.437   6.282   5.650  0.0698  0.2234  0.0552
  157MOL   C22944221   3.568   6.243   5.611  0.2098  0.0885  0.4674
  157MOL   C23044222   3.621   6.115   5.654  0.2860  0.3014 -0.4345
  157MOL   C23144223   3.561   6.025   5.732 -0.6206 -0.3894  0.8741
  157MOL   C23244224   3.647   6.325   5.539 -0.4148  0.1280 -0.0656
  157MOL   C23344225   3.613   6.461   5.513 -0.2126  0.2379  0.2567
  157MOL   H23444226   3.291   6.436   5.646 -1.0197 -1.8274  0.7917
  157MOL   H23544227   3.370   6.219   5.705  1.7261 -2.3450 -0.7869
  157MOL   H23644228   3.720   6.087   5.622 -0.3830 -3.3117  0.3337
  157MOL   H23744229   3.462   6.053   5.766 -1.5712 -0.0745 -2.0596
  157MOL   H23844230   3.745   6.290   5.510  0.3396  1.0517  1.3164
  157MOL   H23944231   3.689   6.527   5.474  0.6831 -0.1773  1.2835
  157MOL   C24044232   3.606   5.888   5.771 -0.2544 -0.1109  1.3227
  157MOL   C24144233   3.531   5.815   5.860 -0.2182 -0.0649 -0.1580
  157MOL   C24244234   3.566   5.691   5.900 -0.0748  0.1937 -0.6170
  157MOL   C24344235   3.677   5.624   5.835 -0.3339  0.0815 -0.7540
  157MOL   C24444236   3.716   5.490   5.864 -0.1231  0.4084 -0.2920
  157MOL   C24544237   3.659   5.411   5.957 -0.4480 -0.1081  0.4058
  157MOL   C24644238   3.756   5.695   5.747  0.1957 -0.7810 -0.7809
  157MOL   C24744239   3.720   5.826   5.715 -0.3201  0.2643 -0.0388
  157MOL   H24844240   3.439   5.855   5.900 -1.1920 -2.4886  0.1374
  157MOL   H24944241   3.496   5.643   5.967  1.5038 -3.2075 -1.3016
  157MOL   H25044242   3.801   5.462   5.804  1.1216  2.4070  0.4744
  157MOL   H25144243   3.570   5.444   6.009  1.0557  0.5188  2.6299
  157MOL   H25244244   3.831   5.639   5.694  1.1487 -0.8307  0.5826
  157MOL   H25344245   3.779   5.883   5.645 -1.0209  0.2935 -0.6093
  157MOL   C25444246   3.695   5.271   5.994  0.7079 -0.3846 -0.1174
  157MOL   C25544247   3.620   5.202   6.090 -0.3919 -0.0622  0.0135
  157MOL   C25644248   3.654   5.066   6.123 -0.3427 -0.0515 -0.7319
  157MOL   C25744249   3.771   5.008   6.072 -0.3280  0.0268 -0.4178
  157MOL   C25844250   3.818   4.875   6.105  0.1314  0.8675  0.4040
  157MOL   C25944251   3.748   4.764   6.122  0.5951  0.0228 -0.3341
  157MOL   C26044252   3.846   5.078   5.972 -0.0160 -0.8298 -0.2024
  157MOL   C26144253   3.809   5.206   5.938 -0.1619 -0.0038  0.1171
  157MOL   H26244254   3.536   5.251   6.137 -0.7674  0.1759 -0.9022
  157MOL   H26344255   3.596   5.013   6.197  0.4154  0.6898  0.3988
  157MOL   H26444256   3.924   4.871   6.123  0.6978  5.4966 -1.1669
  157MOL   H26544257   3.814   4.684   6.151  1.9068  0.8874 -0.9139
  157MOL   H26644258   3.928   5.031   5.920  1.2097 -0.3900  1.2956
  157MOL   H26744259   3.866   5.252   5.859  1.1499  0.1382  1.1217
  157MOL   C26844260   3.605   4.739   6.097  0.9184 -0.4672  0.4301
  157MOL   C26944261   3.534   4.821   6.008 -0.2100 -0.0187  0.6339
  157MOL   C27044262   3.398   4.804   5.986  0.1134  0.1767  0.1836
  157MOL   C27144263   3.323   4.709   6.057 -0.5074  0.1235 -0.0347
  157MOL   C27244264   3.181   4.686   6.027 -0.1980 -0.0127 -0.1766
  157MOL   C27344265   3.109   4.577   6.065 -0.6928  0.4083  0.5238
  157MOL   C27444266   3.394   4.635   6.150  0.4126 -0.0273  1.0749
  157MOL   C27544267   3.529   4.650   6.174 -0.4319 -0.6326  0.2703
  157MOL   H27644268   3.581   4.894   5.943  0.2627  1.0253  2.1214
  157MOL   H27744269   3.354   4.867   5.911 -0.0694 -0.9620 -0.6735
  157MOL   H27844270   3.139   4.771   5.974 -2.2162  0.0307  1.4470
  157MOL   H27944271   3.153   4.491   6.113 -1.1739 -0.5494 -0.7286
  157MOL   H28044272   3.349   4.548   6.197 -0.2750 -0.2389  0.0408
  157MOL   H28144273   3.587   4.602   6.252  0.0857 -1.4118 -0.5880
  157MOL   H28244274   3.004   4.573   6.042 -0.6734 -3.0767  0.8230
  158MOL     C144275   1.541   3.760   0.470 -0.2817  0.1733 -0.7443
  158MOL     C244276   1.446   3.758   0.366  0.4780  0.3032  0.0849
  158MOL     C344277   1.433   3.867   0.280 -0.3493 -0.3109 -0.2322
  158MOL     C444278   1.519   3.977   0.288  0.4302  0.3483 -0.1845
  158MOL     C544279   1.507   4.087   0.182  0.9221  0.7922  0.1040
  158MOL     C644280   1.591   4.184   0.154 -0.2851 -0.3896  0.1491
  158MOL     C744281   1.613   3.987   0.389  0.5584 -0.1720  0.5468
  158MOL     C844282   1.621   3.875   0.478  0.5801 -0.4986 -0.6956
  158MOL     H944283   1.384   3.670   0.369  1.0925 -0.1035  0.7929
  158MOL    H1044284   1.352   3.868   0.209 -1.0724 -0.4544  0.5824
  158MOL    H1144285   1.414   4.096   0.128  1.3726  0.3290 -0.7545
  158MOL    H1244286   1.683   4.187   0.210  0.8591  0.7561 -1.7276
  158MOL    H1344287   1.670   4.078   0.397 -0.2613  0.2995  1.1655
  158MOL    H1444288   1.696   3.874   0.555  0.1794 -0.0053 -0.2957
  158MOL    H1544289   1.563   3.681   0.541  1.2153  0.8783 -0.3945
  158MOL    C1644290   1.581   4.295   0.059  0.4758 -0.6780  0.3574
  158MOL    C1744291   1.682   4.383   0.005 -0.5965  0.8718 -0.0104
  158MOL    C1844292   1.657   4.478   8.049 -0.3008 -0.0945 -0.8246
  158MOL    C1944293   1.528   4.498   8.001 -0.2630  0.2495  0.3829
  158MOL    C2044294   1.498   4.607   7.903 -0.0034 -0.6305 -0.3707
  158MOL    C2144295   1.378   4.657   7.869 -0.3174  0.5826  0.6834
  158MOL    C2244296   1.427   4.423   8.061  0.0775 -0.2424 -0.0078
  158MOL    C2344297   1.447   4.325   0.015 -0.1294  0.3905 -0.3548
  158MOL    H2444298   1.784   4.356   0.030  0.4594 -1.4849 -5.9443
  158MOL    H2544299   1.743   4.530   8.009  0.6855 -1.1431 -0.1096
  158MOL    H2644300   1.584   4.655   7.858 -1.8844  2.3437 -0.9324
  158MOL    H2744301   1.288   4.615   7.911 -1.6356  1.5544 -1.1320
  158MOL    H2844302   1.327   4.435   8.021 -0.0560 -0.8432  0.1355
  158MOL    H2944303   1.360   4.274   0.053  0.8297 -1.4815 -0.5935
  158MOL    C3044304   1.352   4.765   7.771  0.6087  0.1416 -0.3121
  158MOL    C3144305   1.451   4.811   7.683  0.5923 -0.9209 -0.4767
  158MOL    C3244306   1.431   4.929   7.605  0.3643 -0.0174  0.5235
  158MOL    C3344307   1.305   4.999   7.605 -0.1533  0.2110 -0.6664
  158MOL    C3444308   1.276   5.117   7.518 -0.6264 -0.5215  0.0695
  158MOL    C3544309   1.155   5.148   7.478  0.1608  0.0307 -0.7191
  158MOL    C3644310   1.215   4.952   7.695 -0.4215 -0.0158  0.1236
  158MOL    C3744311   1.232   4.837   7.773  0.3643 -0.1643  0.0574
  158MOL    H3844312   1.548   4.763   7.673  0.2908 -1.5554 -0.3464
  158MOL    H3944313   1.511   4.960   7.539  0.6997 -4.0309 -1.0856
  158MOL    H4044314   1.359   5.175   7.480 -1.5545  0.7233 -0.1015
  158MOL    H4144315   1.079   5.083   7.520 -1.2293  1.5618 -0.7681
  158MOL    H4244316   1.120   5.001   7.708 -0.3848  0.0627  0.0980
  158MOL    H4344317   1.153   4.798   7.836 -0.1675 -0.5143 -0.8169
  158MOL    C4444318   1.110   5.263   7.409 -0.2996 -0.9856 -0.0854
  158MOL    C4544319   0.980   5.260   7.354  0.3547  0.8395 -0.9418
  158MOL    C4644320   0.930   5.369   7.288  0.0899 -0.4017 -0.1712
  158MOL    C4744321   1.003   5.482   7.280 -0.0624  0.2423  0.0470
  158MOL    C4844322   0.941   5.598   7.211 -0.1040  0.0822  0.1764
  158MOL    C4944323   1.006   5.702   7.150  0.1862  0.1550 -0.4369
  158MOL    C5044324   1.140   5.482   7.313 -0.2903 -0.1253 -0.1419
  158MOL    C5144325   1.193   5.377   7.382 -0.1539  0.0925  0.2816
  158MOL    H5244326   0.924   5.168   7.354  0.8705  0.5146  0.3909
  158MOL    H5344327   0.828   5.363   7.255 -0.6591  0.9585  1.7664
  158MOL    H5444328   0.834   5.610   7.204 -0.2755 -1.9970 -1.0774
  158MOL    H5544329   1.114   5.702   7.149  0.1822 -0.2965 -0.8171
  158MOL    H5644330   1.201   5.570   7.294 -0.2725 -0.0314  0.3275
  158MOL    H5744331   1.295   5.383   7.416 -0.0637  0.9643 -0.1326
  158MOL    C5844332   0.940   5.805   7.074 -0.2115  0.0460  0.0398
  158MOL    C5944333   0.834   5.780   6.984  0.2034 -0.5418  0.7812
  158MOL    C6044334   0.783   5.888   6.909  0.1302  0.4145  0.2388
  158MOL    C6144335   0.841   6.016   6.927 -0.2334 -0.0648  0.6725
  158MOL    C6244336   0.771   6.119   6.848  0.0475 -0.0592  0.5945
  158MOL    C6344337   0.796   6.250   6.856 -0.6521  0.9085 -0.0767
  158MOL    C6444338   0.949   6.040   7.012  0.9353 -0.5207  0.5222
  158MOL    C6544339   0.999   5.933   7.077  0.0640  0.0694  0.1929
  158MOL    H6644340   0.791   5.681   6.971 -0.0636 -0.3832  0.4473
  158MOL    H6744341   0.695   5.863   6.851  1.5294 -2.9328 -0.5828
  158MOL    H6844342   0.694   6.084   6.781  2.5031  0.0471 -2.3848
  158MOL    H6944343   0.875   6.283   6.922 -1.1784  0.7667  0.6330
  158MOL    H7044344   1.004   6.132   7.005 -0.2387  0.1509 -0.1312
  158MOL    H7144345   1.087   5.950   7.136  0.3112 -2.8695  0.7682
  158MOL    C7244346   0.734   6.351   6.774 -0.1850 -0.1122  0.0754
  158MOL    C7344347   0.763   6.484   6.805 -0.5763 -0.5741 -0.3346
  158MOL    C7444348   0.706   6.591   6.736  0.1409 -0.6121 -0.0427
  158MOL    C7544349   0.621   6.569   6.627  0.3802  0.0134 -0.2723
  158MOL    C7644350   0.574   6.673   6.540 -0.4052  0.0366  0.0159
  158MOL    C7744351   0.575   6.802   6.572  0.0229  0.5950  0.2252
  158MOL    C7844352   0.580   6.435   6.595  0.3724 -0.5225 -0.3585
  158MOL    C7944353   0.633   6.328   6.669 -0.2681  0.2414  0.6581
  158MOL    H8044354   0.823   6.509   6.892 -1.8732 -0.3014  0.4969
  158MOL    H8144355   0.733   6.691   6.769 -2.2503  0.0063  0.0969
  158MOL    H8244356   0.525   6.649   6.446  0.2487  0.0944 -0.3395
  158MOL    H8344357   0.608   6.828   6.671 -0.9701  0.1205  0.6917
  158MOL    H8444358   0.508   6.421   6.515 -1.0672  1.3527  0.5583
  158MOL    H8544359   0.616   6.226   6.640  2.8533 -0.5293  1.3652
  158MOL    C8644360   0.524   6.915   6.494  0.0745  0.4597 -0.5466
  158MOL    C8744361   0.443   6.903   6.383  1.0421  0.1066 -0.0081
  158MOL    C8844362   0.392   7.017   6.311 -0.0895  0.1402  0.9224
  158MOL    C8944363   0.434   7.141   6.353 -0.7861  0.4971  0.0485
  158MOL    C9044364   0.396   7.252   6.277 -0.1496 -0.4507 -0.6620
  158MOL    C9144365   0.467   7.362   6.265  0.2408  0.4615 -0.2786
  158MOL    C9244366   0.520   7.153   6.466 -0.8700 -0.1130 -0.1345
  158MOL    C9344367   0.578   7.041   6.528 -0.5737  0.2234  0.5072
  158MOL    H9444368   0.416   6.807   6.342 -0.3164 -0.2978  1.7831
  158MOL    H9544369   0.310   7.003   6.242  0.2814 -1.1992  0.7389
  158MOL    H9644370   0.296   7.245   6.235 -0.5993  0.5885  0.2033
  158MOL    H9744371   0.559   7.378   6.320  0.2720  0.6058 -0.3704
  158MOL    H9844372   0.533   7.249   6.514 -0.7667 -0.1403 -0.1103
  158MOL    H9944373   0.637   7.062   6.616  0.2971  2.3574 -0.5484
  158MOL   C10044374   0.443   7.475   6.176  0.1341 -0.3032 -0.1556
  158MOL   C10144375   0.546   7.566   6.139 -0.7652 -0.2786  0.1274
  158MOL   C10244376   0.524   7.679   6.057  0.5410  0.3297 -0.1244
  158MOL   C10344377   0.398   7.698   5.992  0.2847 -0.0902 -0.4351
  158MOL   C10444378   0.380   7.806   5.902  0.1295 -0.2650  0.0886
  158MOL   C10544379   0.262   7.873   5.882 -0.2549 -0.1437  0.1552
  158MOL   C10644380   0.296   7.607   6.028 -0.1515 -0.3781  0.5174
  158MOL   C10744381   0.315   7.500   6.118 -0.3883 -0.3199  0.1759
  158MOL   H10844382   0.643   7.538   6.177 -0.0171  2.0853  0.0129
  158MOL   H10944383   0.617   7.733   6.040  1.7634 -1.9703 -1.0108
  158MOL   H11044384   0.463   7.830   5.837  0.1575 -0.1881  0.1519
  158MOL   H11144385   0.177   7.856   5.947  0.1081 -1.4477  0.3140
  158MOL   H11244386   0.203   7.627   5.978  0.4277  2.7848  0.5869
  158MOL   H11344387   0.226   7.441   6.138  0.9905 -1.6592  2.5901
  158MOL   C11444388   0.245   7.980   5.777 -0.6970  0.1431  0.0156
  158MOL   C11544389   0.113   8.021   5.748 -0.3278  0.0356  0.3427
  158MOL   C11644390   0.086   8.097   5.637 -0.1252  0.4698  0.3049
  158MOL   C11744391   0.190   0.004   5.559  0.5478  0.7749 -0.4682
  158MOL   C11844392   0.142   0.074   5.446 -0.1153  0.4499  0.0033
  158MOL   C11944393   0.215   0.128   5.341 -0.9126  0.4165  0.1201
  158MOL   C12044394   0.328   8.122   5.595  0.3019 -0.1073 -0.2713
  158MOL   C12144395   0.351   8.036   5.703 -0.2383  0.0424  0.3361
  158MOL   H12244396   0.029   7.971   5.795 -0.9198 -0.1333 -0.8838
  158MOL   H12344397   8.125   8.107   5.618  0.3156  2.2198 -1.3595
  158MOL   H12444398   0.038   0.101   5.439  0.0456  0.2854 -4.1738
  158MOL   H12544399   0.321   0.106   5.346 -1.4304 -2.1322  0.6869
  158MOL   H12644400   0.412   0.021   5.542  0.3544  0.2085  0.0665
  158MOL   H12744401   0.453   8.011   5.726  0.3562  1.2353 -0.9488
  158MOL   C12844402   0.173   0.204   5.227  0.0239  0.7478  0.4378
  158MOL   C12944403   0.036   0.228   5.207 -0.7159  0.0496  0.2915
  158MOL   C13044404   8.135   0.289   5.090 -0.3885 -0.3671  0.2575
  158MOL   C13144405   0.075   0.327   4.984  0.5311 -0.8360  0.3161
  158MOL   C13244406   0.012   0.392   4.866  0.2369 -0.0207  0.5340
  158MOL   C13344407   0.057   0.498   4.792  0.2216  0.9001 -0.0243
  158MOL   C13444408   0.214   0.304   5.007 -0.2749 -0.4430 -0.1927
  158MOL   C13544409   0.261   0.246   5.123 -0.1186  0.3094  0.6241
  158MOL   H13644410   8.114   0.207   5.289  2.6735  1.6979  3.6489
  158MOL   H13744411   8.031   0.315   5.073 -0.3196 -0.4500 -0.3036
  158MOL   H13844412   8.062   0.344   4.843  0.2914 -0.2491  0.7763
  158MOL   H13944413   0.153   0.542   4.815  0.5721  0.2249 -0.1616
  158MOL   H14044414   0.282   0.338   4.930 -0.3560  2.3442  0.9261
  158MOL   H14144415   0.366   0.225   5.128 -0.2441 -0.3506  0.4803
  158MOL   C14244416   8.134   0.559   4.678  0.3127 -0.4596  0.7204
  158MOL   C14344417   8.020   0.498   4.627  0.0477 -0.0216 -0.2376
  158MOL   C14444418   7.950   0.563   4.523 -0.2199 -0.4706  0.2108
  158MOL   C14544419   7.981   0.695   4.481  0.0933  0.5757  0.0389
  158MOL   C14644420   7.890   0.765   4.394  0.3095  0.5040 -0.8959
  158MOL   C14744421   7.866   0.896   4.376  0.6175 -0.0360 -0.0619
  158MOL   C14844422   8.083   0.762   4.543  0.6524 -0.1058 -0.3641
  158MOL   C14944423   0.023   0.693   4.636  0.0986  0.3922 -0.5751
  158MOL   H15044424   7.984   0.407   4.672  0.1362  0.5517  1.0290
  158MOL   H15144425   7.869   0.507   4.479  0.4184 -0.5430 -0.8845
  158MOL   H15244426   7.833   0.704   4.325  1.1084 -2.1995  0.7505
  158MOL   H15344427   7.918   0.973   4.432 -0.2821  0.7661 -0.3098
  158MOL   H15444428   8.099   0.869   4.537  2.9525 -0.3289  1.3165
  158MOL   H15544429   0.105   0.745   4.683 -1.5208 -0.9850  4.0812
  158MOL   C15644430   7.768   0.956   4.284 -0.6469  0.3229 -0.1256
  158MOL   C15744431   7.730   1.090   4.299  0.0196 -0.1145 -0.0836
  158MOL   C15844432   7.612   1.132   4.233  0.2264 -0.6793 -0.9554
  158MOL   C15944433   7.551   1.052   4.136 -0.4588  0.2126  0.0801
  158MOL   C16044434   7.433   1.098   4.068  1.1464 -0.1083 -0.1331
  158MOL   C16144435   7.349   1.009   4.007 -0.5788  0.5084 -0.4039
  158MOL   C16244436   7.600   0.920   4.122  0.0149 -0.1983  0.2743
  158MOL   C16344437   7.711   0.876   4.188 -1.0170  1.2029  0.1113
  158MOL   H16444438   7.764   1.141   4.387 -0.8361 -1.2242  0.9077
  158MOL   H16544439   7.564   1.220   4.273  0.0733 -1.8814  1.5944
  158MOL   H16644440   7.409   1.204   4.071 -1.7181 -0.7410  1.2909
  158MOL   H16744441   7.364   0.902   4.008 -0.0383  0.5776 -0.8126
  158MOL   H16844442   7.565   0.851   4.047 -1.3374 -0.0741  0.7834
  158MOL   H16944443   7.751   0.781   4.156  0.1601  1.0085  2.0657
  158MOL   C17044444   7.225   1.039   3.928 -0.3111 -0.6092 -0.5106
  158MOL   C17144445   7.195   1.164   3.882  0.5944  0.2356 -0.5330
  158MOL   C17244446   7.076   1.185   3.809 -0.3368  0.3124 -0.1816
  158MOL   C17344447   6.993   1.072   3.762  0.4870  0.1967  0.0765
  158MOL   C17444448   6.878   1.098   3.664  0.5142  0.6576  0.3613
  158MOL   C17544449   6.844   1.207   3.602  0.3336 -0.1007  0.2851
  158MOL   C17644450   7.030   0.945   3.805 -0.1043  0.5183 -0.1690
  158MOL   C17744451   7.145   0.930   3.887  0.4525  0.0941 -0.0668
  158MOL   H17844452   7.265   1.246   3.888 -0.1012  0.6340  3.9277
  158MOL   H17944453   7.048   1.284   3.778 -1.0822  0.2172  0.1703
  158MOL   H18044454   6.814   1.014   3.639  1.9258 -0.0017 -1.1144
  158MOL   H18144455   6.900   1.296   3.624  0.6334 -0.3744  0.6197
  158MOL   H18244456   6.973   0.858   3.775  1.9808 -1.0958  0.5074
  158MOL   H18344457   7.176   0.829   3.910  4.2008  0.7704 -1.7075
  158MOL   C18444458   6.744   1.217   3.501  0.5450 -0.3537  0.1515
  158MOL   C18544459   6.714   1.346   3.458 -0.2633 -0.6233 -0.5890
  158MOL   C18644460   6.609   1.366   3.367  0.4836 -0.3889 -0.3697
  158MOL   C18744461   6.532   1.261   3.314  0.4203  0.3419 -1.2742
  158MOL   C18844462   6.421   1.293   3.216  0.8570  0.4425 -0.2573
  158MOL   C18944463   6.320   1.207   3.189 -0.1098  0.3805  0.3637
  158MOL   C19044464   6.563   1.130   3.364 -0.5965  0.3319  0.2928
  158MOL   C19144465   6.676   1.105   3.445  0.2866  0.5237 -0.1322
  158MOL   H19244466   6.763   1.433   3.499 -0.3748 -0.0223 -1.7105
  158MOL   H19344467   6.583   1.464   3.329 -2.9741 -0.9771  0.3165
  158MOL   H19444468   6.405   1.391   3.175  1.2717  0.3025 -0.7531
  158MOL   H19544469   6.325   1.108   3.232 -1.8364  0.4569  0.7996
  158MOL   H19644470   6.503   1.045   3.335 -1.4328  1.3724 -1.0421
  158MOL   H19744471   6.696   1.003   3.472 -0.3255  0.7264  1.1127
  158MOL   C19844472   6.204   1.225   3.104 -0.1473 -0.5990  0.5026
  158MOL   C19944473   6.196   1.333   3.009 -0.1440  0.1850 -0.1731
  158MOL   C20044474   6.086   1.337   2.914 -0.2451  0.3174  0.5032
  158MOL   C20144475   5.975   1.256   2.921  0.0733  0.4615 -0.0413
  158MOL   C20244476   5.867   1.265   2.817  0.7733 -0.3572 -0.0537
  158MOL   C20344477   5.761   1.182   2.806 -0.1184 -0.2607  0.2623
  158MOL   C20444478   5.972   1.158   3.024 -0.1356 -0.1822  0.3255
  158MOL   C20544479   6.088   1.139   3.103 -0.4611 -0.0698  1.3784
  158MOL   H20644480   6.282   1.398   3.003  0.4460 -0.3099  2.5392
  158MOL   H20744481   6.081   1.418   2.843  0.9693  1.3303  1.5448
  158MOL   H20844482   5.873   1.339   2.740 -1.8704 -0.3623 -0.3031
  158MOL   H20944483   5.751   1.098   2.874 -1.0525 -0.6504 -0.3378
  158MOL   H21044484   5.887   1.092   3.032 -0.0409 -0.5623 -1.5974
  158MOL   H21144485   6.081   1.050   3.163  1.6262 -1.0782  0.2087
  158MOL   C21244486   5.650   1.191   2.698 -0.5707  0.2153 -0.0639
  158MOL   C21344487   5.536   1.110   2.719  0.1389 -0.3705  0.0701
  158MOL   C21444488   5.420   1.113   2.633 -0.2775  0.5703 -0.0033
  158MOL   C21544489   5.416   1.209   2.530 -0.7073 -0.2631  0.2438
  158MOL   C21644490   5.299   1.202   2.437 -0.1420  0.5810  0.3727
  158MOL   C21744491   5.270   1.264   2.317 -0.2225  0.5590 -0.4325
  158MOL   C21844492   5.528   1.295   2.511 -0.4195 -0.1856  0.8355
  158MOL   C21944493   5.642   1.290   2.596 -0.3331  0.1003 -0.2528
  158MOL   H22044494   5.541   1.039   2.801  1.2707 -0.1421  0.2073
  158MOL   H22144495   5.345   1.036   2.645  1.6522 -1.3852 -0.1381
  158MOL   H22244496   5.223   1.130   2.464 -1.2596  0.6006 -2.5595
  158MOL   H22344497   5.343   1.337   2.285 -0.8366  1.0769 -0.6792
  158MOL   H22444498   5.536   1.364   2.428  0.9843  0.0372  1.1419
  158MOL   H22544499   5.720   1.363   2.584 -0.5277  0.4406  0.5211
  158MOL   C22644500   5.160   1.232   2.218  0.0611  0.1069 -0.4533
  158MOL   C22744501   5.149   1.288   2.087  0.1538  0.3254  0.5729
  158MOL   C22844502   5.042   1.248   2.006 -0.0303 -0.1935 -0.3676
  158MOL   C22944503   4.936   1.158   2.051  0.1188 -0.0486 -0.1818
  158MOL   C23044504   4.815   1.114   1.967 -0.3773  0.7008 -0.4253
  158MOL   C23144505   4.801   1.135   1.836  0.2174 -0.3960  0.3703
  158MOL   C23244506   4.948   1.106   2.182  0.0294  0.0392 -0.0546
  158MOL   C23344507   5.060   1.147   2.262  0.5384  0.6274 -0.0554
  158MOL   H23444508   5.223   1.358   2.052 -0.6117  1.7094  1.6909
  158MOL   H23544509   5.034   1.310   1.918  0.6546  1.1216  0.4670
  158MOL   H23644510   4.741   1.058   2.024 -1.6654  0.5898 -2.1663
  158MOL   H23744511   4.883   1.181   1.783  0.9977 -3.2752 -1.0833
  158MOL   H23844512   4.868   1.043   2.218  0.0798 -0.8056 -1.3950
  158MOL   H23944513   5.061   1.111   2.364 -2.1897  2.2198  0.5975
  158MOL   C24044514   4.682   1.112   1.749 -0.1074 -0.6669  0.0797
  158MOL   C24144515   4.703   1.118   1.608  0.0952  0.5168  0.2419
  158MOL   C24244516   4.598   1.084   1.523  0.3871  0.5153  0.2727
  158MOL   C24344517   4.464   1.059   1.577 -0.1802  0.1359 -0.9311
  158MOL   C24444518   4.349   1.027   1.498  0.1141  0.5506  0.4110
  158MOL   C24544519   4.337   1.035   1.363  0.0494 -0.9582  0.9103
  158MOL   C24644520   4.444   1.063   1.716 -0.3976  0.1938 -0.6242
  158MOL   C24744521   4.552   1.089   1.799  0.5698 -0.1010 -0.2556
  158MOL   H24844522   4.789   1.148   1.549 -1.4888  1.1024 -1.8190
  158MOL   H24944523   4.630   1.086   1.420 -2.5770 -1.9113 -0.7983
  158MOL   H25044524   4.262   0.997   1.555 -2.0695  2.6008 -1.6953
  158MOL   H25144525   4.431   1.066   1.318 -0.0356 -0.4071  1.1063
  158MOL   H25244526   4.347   1.040   1.756 -0.5201  1.5861 -0.0628
  158MOL   H25344527   4.533   1.095   1.906 -1.5733 -2.1720 -0.4669
  158MOL   C25444528   4.219   1.009   1.277 -1.0777 -0.0787 -0.1494
  158MOL   C25544529   4.221   1.055   1.142 -0.4053  0.0185  0.3022
  158MOL   C25644530   4.125   1.013   1.050  0.6957  0.2414 -0.0362
  158MOL   C25744531   4.010   0.941   1.096  0.2302  0.6819  0.0328
  158MOL   C25844532   3.901   0.925   0.997 -0.0921  1.3973 -0.2431
  158MOL   C25944533   3.774   0.873   1.001 -0.1088  0.2393  0.2773
  158MOL   C26044534   4.006   0.888   1.229  0.2212 -0.1314  0.2537
  158MOL   C26144535   4.111   0.927   1.320 -0.7248  0.2399 -0.3155
  158MOL   H26244536   4.297   1.127   1.117 -0.2903 -0.0604  0.4261
  158MOL   H26344537   4.127   1.050   0.948 -1.8081 -1.2842 -0.6734
  158MOL   H26444538   3.937   0.958   0.900  2.5922 -0.5764  0.0321
  158MOL   H26544539   3.718   0.864   0.909  2.5255  0.6334 -1.4196
  158MOL   H26644540   3.922   0.829   1.261  0.5518 -1.1268 -0.6726
  158MOL   H26744541   4.107   0.887   1.420 -2.9240 -0.0108 -0.4688
  158MOL   C26844542   3.700   0.835   1.123  0.9413  0.4252 -0.0435
  158MOL   C26944543   3.655   0.700   1.146  0.1719 -0.2929  0.3714
  158MOL   C27044544   3.587   0.664   1.267 -0.6021  0.2144  0.2102
  158MOL   C27144545   3.577   0.757   1.369 -0.0760 -0.4930  0.1139
  158MOL   C27244546   3.513   0.723   1.495 -0.1459 -0.1901 -0.7379
  158MOL   C27344547   3.467   0.808   1.589  0.0331 -0.5409  0.0604
  158MOL   C27444548   3.615   0.890   1.344  0.5067  0.0425  0.0042
  158MOL   C27544549   3.673   0.931   1.222  0.0174 -0.7435 -0.1582
  158MOL   H27644550   3.654   0.618   1.076 -1.0963 -2.1635  2.5077
  158MOL   H27744551   3.565   0.559   1.281  3.8187 -0.6994  0.9602
  158MOL   H27844552   3.504   0.620   1.527 -0.5848  0.4388  1.2024
  158MOL   H27944553   3.474   0.915   1.580  0.0800 -0.6510 -1.3590
  158MOL   H28044554   3.633   0.959   1.425  2.5666  0.2179 -0.5585
  158MOL   H28144555   3.706   1.034   1.214  0.6635 -0.9635 -0.4271
  158MOL   H28244556   3.422   0.768   1.679 -0.2014 -2.7343 -0.9850
  159MOL     C144557   6.029   6.958   2.268  0.3805  0.6270 -0.6574
  159MOL     C244558   6.120   6.884   2.193 -0.6561  0.3976 -0.7598
  159MOL     C344559   6.251   6.865   2.237 -0.1560  0.3263  1.2234
  159MOL     C444560   6.290   6.923   2.360  0.3243 -1.2169 -0.3461
  159MOL     C544561   6.429   6.900   2.409 -0.0663  0.2326 -0.8554
  159MOL     C644562   6.524   6.820   2.350  0.9542  0.3337 -0.3294
  159MOL     C744563   6.196   6.993   2.437  0.3390  0.2955 -0.0884
  159MOL     C844564   6.068   7.012   2.393 -0.5129 -0.7766 -0.1584
  159MOL     H944565   6.088   6.846   2.097 -0.6229  2.0346 -1.4417
  159MOL    H1044566   6.319   6.807   2.177 -3.2227 -1.4285 -0.6712
  159MOL    H1144567   6.440   6.948   2.505 -1.2256  1.1514 -1.1697
  159MOL    H1244568   6.510   6.768   2.257 -0.6132  1.6780 -0.8543
  159MOL    H1344569   6.217   7.039   2.532 -0.1700 -1.3260  0.8225
  159MOL    H1444570   5.998   7.075   2.447 -2.0932 -2.2935 -0.3814
  159MOL    H1544571   5.932   6.992   2.235  0.3108  0.9186 -0.1553
  159MOL    C1644572   6.662   6.809   2.392 -0.3554  0.1997  0.4358
  159MOL    C1744573   6.747   6.712   2.333 -0.1940 -0.5589  0.0934
  159MOL    C1844574   6.882   6.690   2.374  0.6695 -0.0347  0.7049
  159MOL    C1944575   6.929   6.765   2.481  0.1299  0.0806 -0.4865
  159MOL    C2044576   7.065   6.738   2.530 -0.3513 -0.9204 -0.6725
  159MOL    C2144577   7.137   6.810   2.614 -0.1521 -0.4735 -0.4393
  159MOL    C2244578   6.850   6.868   2.533  0.0063 -0.0944 -0.5795
  159MOL    C2344579   6.716   6.894   2.486 -0.2453 -0.1095  0.2472
  159MOL    H2444580   6.693   6.650   2.262 -2.3801  2.8876 -1.3772
  159MOL    H2544581   6.940   6.608   2.333  0.8449 -0.3582  1.5957
  159MOL    H2644582   7.103   6.642   2.498 -0.4357 -2.2283  2.8636
  159MOL    H2744583   7.096   6.900   2.659  1.4743 -0.1504  0.4241
  159MOL    H2844584   6.892   6.934   2.608 -0.6260  0.2878 -0.5620
  159MOL    H2944585   6.655   6.972   2.529 -0.0294  1.3044 -1.9639
  159MOL    C3044586   7.275   6.771   2.654 -0.3597 -0.2476  0.2086
  159MOL    C3144587   7.345   6.670   2.591 -0.3683  0.3838 -0.1547
  159MOL    C3244588   7.476   6.640   2.644 -0.2645  0.4358  0.4074
  159MOL    C3344589   7.537   6.717   2.750 -0.8399 -0.1622 -0.0712
  159MOL    C3444590   7.675   6.692   2.796 -0.5765 -0.1176  1.2180
  159MOL    C3544591   7.754   6.587   2.765  0.6083  0.1219 -0.1306
  159MOL    C3644592   7.452   6.806   2.816  1.0172  0.4494  0.2974
  159MOL    C3744593   7.326   6.836   2.768 -0.2116  0.2215  0.5013
  159MOL    H3844594   7.323   6.628   2.494 -1.0682 -0.3231  0.3089
  159MOL    H3944595   7.533   6.566   2.589 -0.5753  0.7585 -0.3587
  159MOL    H4044596   7.716   6.770   2.857 -1.0135  1.1546 -0.0876
  159MOL    H4144597   7.707   6.519   2.695 -1.3388  1.5981 -0.3123
  159MOL    H4244598   7.475   6.852   2.911 -1.8667  1.7112  0.4071
  159MOL    H4344599   7.282   6.917   2.824 -4.5053  0.7347 -3.3155
  159MOL    C4444600   7.888   6.549   2.811  0.2814  0.5852  0.6174
  159MOL    C4544601   7.953   6.617   2.911  0.2494 -0.1606 -0.1573
  159MOL    C4644602   8.080   6.576   2.952 -0.9285 -0.5345  0.2380
  159MOL    C4744603   0.005   6.466   2.896 -0.2441 -0.0968  0.2503
  159MOL    C4844604   0.138   6.431   2.949 -0.0736 -0.9660  0.1836
  159MOL    C4944605   0.209   6.325   2.892 -0.1847 -1.0248 -0.3126
  159MOL    C5044606   8.086   6.402   2.791  0.4867  0.5481 -0.0430
  159MOL    C5144607   7.955   6.440   2.753 -0.0072  0.6274  0.6651
  159MOL    H5244608   7.916   6.711   2.949  1.4913 -0.0672  0.8610
  159MOL    H5344609   8.130   6.646   3.018  0.1362 -1.4288  0.3858
  159MOL    H5444610   0.182   6.487   3.031  0.2358 -0.5068 -0.2954
  159MOL    H5544611   0.167   6.270   2.809  0.3166 -2.5278  0.4138
  159MOL    H5644612   8.125   6.315   2.740  0.8142  0.3458  0.5435
  159MOL    H5744613   7.912   6.387   2.670 -0.9384  1.6540  0.4747
  159MOL    C5844614   0.340   6.280   2.935  0.8843  0.1375  0.8371
  159MOL    C5944615   0.402   6.170   2.874  0.2982 -0.6050 -0.6679
  159MOL    C6044616   0.530   6.137   2.903  0.5921  0.4272  0.2547
  159MOL    C6144617   0.607   6.218   2.986 -0.0603  0.4532 -0.0105
  159MOL    C6244618   0.741   6.169   3.025 -0.0337  0.0793 -0.1957
  159MOL    C6344619   0.819   6.203   3.122 -0.3900  0.3259  0.2722
  159MOL    C6444620   0.547   6.322   3.061 -0.8506 -0.1695 -0.2416
  159MOL    C6544621   0.412   6.359   3.027  0.7222 -0.1107 -0.8133
  159MOL    H6644622   0.354   6.106   2.801  0.0572 -0.5319 -0.5748
  159MOL    H6744623   0.581   6.058   2.850  0.0155  1.1198 -1.3628
  159MOL    H6844624   0.798   6.111   2.954  1.5956  2.8442 -1.2153
  159MOL    H6944625   0.785   6.265   3.204 -0.9306  0.4856 -0.0705
  159MOL    H7044626   0.601   6.392   3.123 -0.1189 -1.0886  0.1701
  159MOL    H7144627   0.370   6.448   3.070 -0.4158 -0.3727 -1.3648
  159MOL    C7244628   0.960   6.150   3.135  0.0831 -0.4978 -0.2772
  159MOL    C7344629   1.040   6.210   3.235 -0.7369  0.0148  0.3570
  159MOL    C7444630   1.170   6.159   3.257 -0.1714  0.2902 -0.3274
  159MOL    C7544631   1.219   6.042   3.182  0.0498  0.1463 -0.1776
  159MOL    C7644632   1.356   5.994   3.213 -0.2416 -0.2011 -0.3409
  159MOL    C7744633   1.409   5.879   3.178 -0.5364  0.2393 -0.1664
  159MOL    C7844634   1.138   5.981   3.086 -0.5040 -0.2677 -0.3618
  159MOL    C7944635   1.007   6.035   3.068  0.1843  0.4778  0.6633
  159MOL    H8044636   0.995   6.295   3.284 -2.4157 -0.0599 -0.9876
  159MOL    H8144637   1.229   6.217   3.326  0.9496 -1.6778  0.4132
  159MOL    H8244638   1.421   6.058   3.270  0.3201 -2.0747  1.1993
  159MOL    H8344639   1.357   5.806   3.117  0.2587 -2.0649  1.8431
  159MOL    H8444640   1.173   5.895   3.031  1.5263  1.0055 -1.1323
  159MOL    H8544641   0.939   5.994   2.996 -0.2184  0.5139  1.0206
  159MOL    C8644642   1.547   5.825   3.209  0.7546 -0.4083 -0.1363
  159MOL    C8744643   1.638   5.894   3.292 -0.2334  0.0060 -0.5902
  159MOL    C8844644   1.762   5.837   3.316 -0.2851  0.1894 -0.3344
  159MOL    C8944645   1.798   5.709   3.267 -0.6369  0.2097 -0.0511
  159MOL    C9044646   1.938   5.668   3.288 -0.1058 -0.8251 -0.5114
  159MOL    C9144647   1.991   5.549   3.277 -0.2690 -0.5329  0.1660
  159MOL    C9244648   1.698   5.630   3.201  1.0133 -0.4336  1.2221
  159MOL    C9344649   1.578   5.695   3.162 -0.1064 -0.2586 -0.1610
  159MOL    H9444650   1.618   5.988   3.340 -1.3486  0.1545 -1.3219
  159MOL    H9544651   1.835   5.900   3.364  0.7156  1.0999 -2.9709
  159MOL    H9644652   2.009   5.746   3.311 -0.8454 -0.6724  1.3636
  159MOL    H9744653   1.925   5.466   3.255  2.0945 -2.2497 -0.6767
  159MOL    H9844654   1.706   5.532   3.158 -0.4834  0.0502 -0.2008
  159MOL    H9944655   1.505   5.637   3.107 -2.4440  1.8036  0.6908
  159MOL   C10044656   2.126   5.502   3.291  0.5345  0.4440  0.2660
  159MOL   C10144657   2.141   5.361   3.287 -0.3876 -0.1132 -0.3274
  159MOL   C10244658   2.273   5.309   3.296  0.4507  0.1612  0.4829
  159MOL   C10344659   2.388   5.386   3.296  0.4183  0.0515  0.5909
  159MOL   C10444660   2.527   5.332   3.294 -0.0533  0.4718 -0.3116
  159MOL   C10544661   2.564   5.208   3.322 -0.4840  0.0034 -0.3864
  159MOL   C10644662   2.365   5.521   3.301  0.6151  0.0863  0.2609
  159MOL   C10744663   2.239   5.580   3.304 -0.4287 -0.2739 -0.2277
  159MOL   H10844664   2.053   5.298   3.288 -1.3605  1.2283  0.2794
  159MOL   H10944665   2.275   5.201   3.297  2.0349  0.1600 -0.7374
  159MOL   H11044666   2.603   5.405   3.271 -0.7433  0.1992 -3.8208
  159MOL   H11144667   2.490   5.131   3.339 -2.7551  2.0189 -0.7605
  159MOL   H11244668   2.453   5.584   3.303  1.1271 -0.5082 -1.9942
  159MOL   H11344669   2.221   5.687   3.302 -1.1892 -0.4047 -1.0718
  159MOL   C11444670   2.700   5.162   3.308  0.0273  0.0417  0.0205
  159MOL   C11544671   2.725   5.026   3.327  0.7008 -0.8252 -1.0958
  159MOL   C11644672   2.849   4.968   3.302 -0.2618  0.5218 -0.8365
  159MOL   C11744673   2.953   5.047   3.250  0.2971 -0.2151 -0.5196
  159MOL   C11844674   3.074   4.975   3.211  0.1811 -0.3850 -1.0117
  159MOL   C11944675   3.151   5.009   3.113  0.2420  0.4273  0.0729
  159MOL   C12044676   2.932   5.184   3.247  0.6861  0.5113 -0.2242
  159MOL   C12144677   2.810   5.242   3.263  1.4563  0.6347 -0.5609
  159MOL   H12244678   2.648   4.955   3.356  0.2517 -0.1817 -0.6885
  159MOL   H12344679   2.868   4.865   3.328  2.6203  1.1802 -0.1857
  159MOL   H12444680   3.090   4.885   3.269 -2.0418  1.8672  3.3460
  159MOL   H12544681   3.130   5.094   3.050  1.8220  0.1259 -0.8997
  159MOL   H12644682   3.015   5.237   3.202  1.4058 -0.2823  0.1619
  159MOL   H12744683   2.801   5.349   3.272  0.4427  0.4074  1.7303
  159MOL   C12844684   3.276   4.936   3.073 -0.2047 -0.1799 -0.6320
  159MOL   C12944685   3.334   4.829   3.141  0.2890 -0.2502  0.8286
  159MOL   C13044686   3.452   4.768   3.098  0.9171  0.2409 -0.5878
  159MOL   C13144687   3.523   4.807   2.984  0.0412 -0.1929  0.8470
  159MOL   C13244688   3.638   4.730   2.939  0.3620 -1.0175  0.0394
  159MOL   C13344689   3.704   4.756   2.827  0.1716  0.7809  0.1497
  159MOL   C13444690   3.469   4.918   2.910 -0.0964 -0.3810 -0.4853
  159MOL   C13544691   3.346   4.976   2.952 -0.4810  0.0207 -0.2101
  159MOL   H13644692   3.290   4.796   3.234 -0.0043 -1.9976  0.0896
  159MOL   H13744693   3.494   4.692   3.162  2.8750  2.7548  1.2317
  159MOL   H13844694   3.664   4.650   3.006  0.3370  0.2052  1.5219
  159MOL   H13944695   3.671   4.833   2.759  0.7567  2.0691  1.3023
  159MOL   H14044696   3.518   4.958   2.823 -0.4677  0.5938 -0.2602
  159MOL   H14144697   3.298   5.040   2.878 -0.7867 -2.1299 -1.9204
  159MOL   C14244698   3.828   4.686   2.789  0.4751  0.2822  0.3916
  159MOL   C14344699   3.906   4.619   2.881 -0.8334  0.6400 -0.8956
  159MOL   C14444700   4.024   4.552   2.849  0.4305 -0.2159 -0.9547
  159MOL   C14544701   4.071   4.564   2.720  0.1159 -0.1051 -0.6752
  159MOL   C14644702   4.194   4.507   2.667  0.2794  0.1711 -1.3050
  159MOL   C14744703   4.257   4.409   2.731 -0.1341  0.4056 -0.4444
  159MOL   C14844704   3.993   4.637   2.627  0.8278 -0.4596  0.5142
  159MOL   C14944705   3.872   4.694   2.657 -0.1279 -0.5859 -0.9321
  159MOL   H15044706   3.868   4.609   2.982 -1.1071  0.9696 -0.9635
  159MOL   H15144707   4.080   4.496   2.922 -0.6987 -0.6891 -0.4396
  159MOL   H15244708   4.234   4.557   2.580  0.6136  3.1888  0.5149
  159MOL   H15344709   4.203   4.360   2.811  1.1381 -0.4367 -0.0797
  159MOL   H15444710   4.028   4.628   2.525 -0.5450 -2.8961  0.2233
  159MOL   H15544711   3.812   4.747   2.585 -0.6986  1.1387  0.7877
  159MOL   C15644712   4.390   4.369   2.689  0.8247  0.3299 -0.0652
  159MOL   C15744713   4.476   4.309   2.784  0.0631  0.0451  0.4352
  159MOL   C15844714   4.601   4.267   2.743  0.0636  0.1126  0.3813
  159MOL   C15944715   4.652   4.280   2.615 -0.1646 -0.7266  0.0149
  159MOL   C16044716   4.793   4.247   2.597  0.2802 -0.0253  0.0434
  159MOL   C16144717   4.861   4.255   2.486 -0.6274  0.2793 -0.3755
  159MOL   C16244718   4.574   4.361   2.521 -0.6365  0.8019  0.0473
  159MOL   C16344719   4.445   4.398   2.563 -0.0044  0.6710  0.5420
  159MOL   H16444720   4.444   4.301   2.887  0.9682  0.1469  0.7288
  159MOL   H16544721   4.652   4.219   2.824 -0.2144  0.8167  0.9857
  159MOL   H16644722   4.834   4.206   2.689 -0.0840 -0.1058  0.1710
  159MOL   H16744723   4.817   4.283   2.392 -0.4776  1.7407 -0.0256
  159MOL   H16844724   4.621   4.376   2.425  0.4486 -1.1013  0.2645
  159MOL   H16944725   4.403   4.449   2.478  1.3360 -0.6045 -0.9302
  159MOL   C17044726   4.998   4.214   2.458  0.0443 -0.0792  0.6882
  159MOL   C17144727   5.057   4.263   2.339 -0.6607  0.0119  0.1806
  159MOL   C17244728   5.197   4.241   2.306  0.0576  0.3462 -0.0662
  159MOL   C17344729   5.279   4.173   2.401  0.0261 -0.1333 -0.1502
  159MOL   C17444730   5.418   4.150   2.368 -0.0036  0.1442  0.0947
  159MOL   C17544731   5.515   4.140   2.459  0.4375 -0.7125  0.6860
  159MOL   C17644732   5.221   4.124   2.524  0.0677  0.3589  0.5250
  159MOL   C17744733   5.081   4.142   2.552 -0.0917  0.5699  0.3009
  159MOL   H17844734   4.998   4.328   2.276  0.8385  1.6275  0.4102
  159MOL   H17944735   5.231   4.276   2.210 -1.6375 -2.5452 -1.8110
  159MOL   H18044736   5.439   4.140   2.263 -1.9825  1.3685 -0.4332
  159MOL   H18144737   5.494   4.156   2.563  0.0795  0.0559  0.4989
  159MOL   H18244738   5.279   4.070   2.597 -0.7994 -1.9458 -0.4127
  159MOL   H18344739   5.037   4.085   2.633  0.9016 -0.1759  0.3158
  159MOL   C18444740   5.653   4.111   2.428  0.0261 -0.4787 -0.6853
  159MOL   C18544741   5.708   4.105   2.293 -0.3313  0.1026  0.0870
  159MOL   C18644742   5.841   4.069   2.269  0.1857 -0.7621  0.6352
  159MOL   C18744743   5.929   4.042   2.375 -0.4651  0.4288 -0.3392
  159MOL   C18844744   6.074   4.016   2.359 -0.0446  0.4554 -0.2948
  159MOL   C18944745   6.175   4.067   2.436 -0.1805 -0.0410 -0.9499
  159MOL   C19044746   5.883   4.060   2.504  0.0096 -0.4827  0.4569
  159MOL   C19144747   5.749   4.101   2.532 -0.1092  0.4279 -1.2193
  159MOL   H19244748   5.639   4.111   2.210  0.8748 -0.2629 -0.9644
  159MOL   H19344749   5.890   4.061   2.174 -0.9397 -0.4246  0.0161
  159MOL   H19444750   6.114   3.952   2.282  1.0888  0.4639  0.2698
  159MOL   H19544751   6.156   4.139   2.515  2.3754 -0.5765  0.2026
  159MOL   H19644752   5.953   4.050   2.586  0.5328  1.0509  0.2057
  159MOL   H19744753   5.727   4.102   2.637 -0.7618  0.6184 -1.3570
  159MOL   C19844754   6.319   4.045   2.421 -0.2738 -0.6319 -0.2652
  159MOL   C19944755   6.383   3.994   2.307 -0.7018 -0.2928  0.4055
  159MOL   C20044756   6.521   3.955   2.309  0.6535  0.8622  0.2989
  159MOL   C20144757   6.596   3.974   2.422 -0.5496  0.3489 -0.4591
  159MOL   C20244758   6.739   3.955   2.415 -0.5346 -0.9840  0.1476
  159MOL   C20344759   6.831   4.035   2.481  0.1415 -0.4735 -0.1937
  159MOL   C20444760   6.534   4.025   2.538  0.3130  0.2928  0.4375
  159MOL   C20544761   6.397   4.059   2.537 -0.3710 -0.2122 -0.3797
  159MOL   H20644762   6.329   3.991   2.214  0.2191  0.4063 -0.1656
  159MOL   H20744763   6.575   3.908   2.228 -1.9006  1.1993 -1.6648
  159MOL   H20844764   6.774   3.875   2.351  1.2372 -0.1834  0.0660
  159MOL   H20944765   6.794   4.101   2.558  0.5691 -1.5460  0.9451
  159MOL   H21044766   6.588   4.038   2.631  1.7064  1.6345 -0.5290
  159MOL   H21144767   6.350   4.090   2.629 -0.7558  0.2031 -0.7138
  159MOL   C21244768   6.981   4.029   2.463 -0.4937  0.2256  0.0368
  159MOL   C21344769   7.050   3.914   2.415 -0.1361  0.5888 -1.2895
  159MOL   C21444770   7.186   3.906   2.390 -0.8104  0.8333  0.0906
  159MOL   C21544771   7.261   4.019   2.428 -0.2635  0.0322  0.0610
  159MOL   C21644772   7.402   4.017   2.415  0.6020  0.0046 -0.7017
  159MOL   C21744773   7.476   3.904   2.404  0.3483  0.2992  0.3277
  159MOL   C21844774   7.202   4.139   2.478 -0.1406 -0.1057  0.0318
  159MOL   C21944775   7.063   4.146   2.496 -0.0041 -0.1379 -0.2900
  159MOL   H22044776   6.985   3.835   2.380  1.6552 -0.9893 -1.1337
  159MOL   H22144777   7.230   3.815   2.353 -1.1584  1.8683 -2.9973
  159MOL   H22244778   7.452   4.112   2.405 -0.2916  0.6908  1.2172
  159MOL   H22344779   7.432   3.806   2.406 -1.0343  0.8785 -0.7894
  159MOL   H22444780   7.245   4.227   2.524 -0.8952  1.5688 -2.3197
  159MOL   H22544781   7.016   4.239   2.526  1.5219 -0.0329  1.8530
  159MOL   C22644782   7.617   3.898   2.376 -0.6198 -0.4506  0.8256
  159MOL   C22744783   7.707   4.010   2.391 -0.2715  0.1789 -0.1827
  159MOL   C22844784   7.842   4.002   2.354 -0.4174  0.2837 -0.4948
  159MOL   C22944785   7.895   3.882   2.293 -0.1269 -0.0100  0.0046
  159MOL   C23044786   8.034   3.870   2.245  0.3175 -0.1874 -0.0807
  159MOL   C23144787   8.135   3.946   2.287 -0.0087 -0.4783 -0.6916
  159MOL   C23244788   7.812   3.769   2.282  0.5594 -0.7202 -0.0040
  159MOL   C23344789   7.673   3.783   2.316  0.2862  0.0881 -0.3775
  159MOL   H23444790   7.671   4.103   2.432  0.2945  0.2162  0.2357
  159MOL   H23544791   7.899   4.094   2.361  1.7000 -0.8563 -2.2100
  159MOL   H23644792   8.063   3.793   2.176  0.2361  0.1674 -0.5150
  159MOL   H23744793   8.105   4.019   2.361  2.1501  1.1449 -1.3991
  159MOL   H23844794   7.857   3.677   2.248 -0.3687 -1.3894  0.5474
  159MOL   H23944795   7.617   3.690   2.319  1.5660 -0.6716  0.7892
  159MOL   C24044796   0.137   3.944   2.253  0.7380 -0.2911  1.0232
  159MOL   C24144797   0.181   3.910   2.123 -0.2734  0.2944  0.2720
  159MOL   C24244798   0.320   3.915   2.098  0.4840  0.6382  0.3946
  159MOL   C24344799   0.409   3.971   2.195  0.0066 -0.0282  0.3835
  159MOL   C24444800   0.549   4.006   2.156  0.2821  0.3450  0.6350
  159MOL   C24544801   0.641   4.078   2.227  0.3290 -0.4371  0.6595
  159MOL   C24644802   0.367   4.008   2.325 -0.7642  0.4092  0.1863
  159MOL   C24744803   0.228   3.994   2.358  0.7032 -0.7060 -0.4484
  159MOL   H24844804   0.108   3.876   2.052 -1.6142 -0.0078  1.7726
  159MOL   H24944805   0.348   3.889   1.997  1.1650 -0.3275  0.8269
  159MOL   H25044806   0.582   3.969   2.060  0.4507 -2.2990  1.6805
  159MOL   H25144807   0.626   4.120   2.325  0.8262  1.2442  0.0327
  159MOL   H25244808   0.434   4.051   2.398  0.9222 -1.1389 -0.4227
  159MOL   H25344809   0.192   4.024   2.456 -0.6738  0.1164 -1.1958
  159MOL   C25444810   0.778   4.114   2.181  0.4509  0.2817 -0.6169
  159MOL   C25544811   0.813   4.135   2.043 -0.5559  0.4972 -0.3850
  159MOL   C25644812   0.953   4.150   2.008 -0.6746 -0.0330 -0.0668
  159MOL   C25744813   1.049   4.162   2.106  0.8842  0.3342  0.8708
  159MOL   C25844814   1.190   4.178   2.070 -1.0393 -0.0972 -0.1689
  159MOL   C25944815   1.303   4.129   2.126 -0.0664  0.3922 -0.4318
  159MOL   C26044816   1.015   4.152   2.245 -0.5560  1.0067  1.1839
  159MOL   C26144817   0.879   4.131   2.278  0.6441  0.4423 -0.7056
  159MOL   H26244818   0.736   4.126   1.967 -1.6484 -0.9585  0.8525
  159MOL   H26344819   0.980   4.161   1.904 -0.9197 -0.4553 -0.1749
  159MOL   H26444820   1.199   4.245   1.986  3.2268  1.0458  1.0634
  159MOL   H26544821   1.392   4.173   2.084 -0.3413  0.1363 -1.3072
  159MOL   H26644822   1.090   4.166   2.321  2.5266 -0.8182 -1.3883
  159MOL   H26744823   0.844   4.118   2.379 -1.5778  1.6678 -1.2777
  159MOL   C26844824   1.328   4.032   2.228  0.3344  0.3107 -0.5223
  159MOL   C26944825   1.438   4.054   2.315  0.7063  0.3070 -0.1853
  159MOL   C27044826   1.466   3.966   2.418  0.1462 -0.1642 -0.1983
  159MOL   C27144827   1.380   3.858   2.448  0.3382  0.3866 -0.0952
  159MOL   C27244828   1.411   3.764   2.552  0.1732 -0.3043 -0.3181
  159MOL   C27344829   1.516   3.747   2.624 -0.3060  0.1771 -0.2063
  159MOL   C27444830   1.271   3.835   2.359  0.0116  0.2720 -0.0509
  159MOL   C27544831   1.243   3.922   2.250  0.4140  0.1284  0.2694
  159MOL   H27644832   1.509   4.135   2.303  0.3318  0.9437  1.7165
  159MOL   H27744833   1.557   3.976   2.474  0.0323  0.4577 -0.1240
  159MOL   H27844834   1.325   3.703   2.578 -0.1482 -0.0295 -0.7312
  159MOL   H27944835   1.609   3.801   2.613 -0.9921  1.3248 -0.4581
  159MOL   H28044836   1.216   3.743   2.373  2.1699 -1.1197 -0.4386
  159MOL   H28144837   1.155   3.897   2.194  0.3967 -1.0097  0.7990
  159MOL   H28244838   1.518   3.675   2.705 -1.7969  1.1584  0.7178
  160MOL     C144839   2.707   5.542   5.968  0.6246 -0.2593  0.1890
  160MOL     C244840   2.571   5.581   5.970 -0.3859  0.2407 -0.3553
  160MOL     C344841   2.535   5.716   5.970  0.5537 -0.3000 -0.7342
  160MOL     C444842   2.635   5.813   5.957 -0.2450 -0.5390  0.3816
  160MOL     C544843   2.592   5.949   5.979 -0.5333 -0.8006  1.1068
  160MOL     C644844   2.668   6.064   5.985 -0.5059 -0.4053  0.3288
  160MOL     C744845   2.774   5.776   5.946  0.0274 -0.7666 -0.3883
  160MOL     C844846   2.811   5.641   5.956  0.3414  0.1003  0.0773
  160MOL     H944847   2.495   5.505   5.980 -1.2189  1.1348  0.2643
  160MOL    H1044848   2.431   5.742   5.985  0.8754  1.1040 -0.9317
  160MOL    H1144849   2.484   5.957   5.988 -0.4343  1.4277  0.4267
  160MOL    H1244850   2.775   6.055   5.976 -0.4303  1.3611 -0.8295
  160MOL    H1344851   2.851   5.850   5.927  0.1597  0.9539  5.7641
  160MOL    H1444852   2.916   5.616   5.946 -0.2826 -2.9883  0.4979
  160MOL    H1544853   2.742   5.440   5.970 -0.2751 -0.5748  0.4298
  160MOL    C1644854   2.626   6.202   5.994 -0.1991 -0.2432 -0.2149
  160MOL    C1744855   2.490   6.244   5.989 -0.5062 -0.0436  0.1848
  160MOL    C1844856   2.465   6.381   5.994  0.0925  0.1480  0.0905
  160MOL    C1944857   2.568   6.479   6.012  0.2317 -0.3502  1.0560
  160MOL    C2044858   2.534   6.623   6.026 -0.5438 -0.4597  0.4282
  160MOL    C2144859   2.614   6.732   6.009  0.2427 -0.2866 -0.2091
  160MOL    C2244860   2.699   6.432   6.032  0.1866  0.1011  0.5239
  160MOL    C2344861   2.722   6.298   6.016 -0.2458  0.3123  0.2633
  160MOL    H2444862   2.418   6.168   5.966  0.9833 -0.4220 -3.5640
  160MOL    H2544863   2.361   6.412   5.992  0.4235  1.3318  1.2336
  160MOL    H2644864   2.428   6.642   6.040 -0.4093  0.3097  0.4330
  160MOL    H2744865   2.721   6.726   5.993  0.3786  1.3484  0.0056
  160MOL    H2844866   2.777   6.505   6.050 -0.8237  1.0025  1.3105
  160MOL    H2944867   2.825   6.270   6.034  0.6115  2.2622 -1.2950
  160MOL    C3044868   2.558   6.869   6.031  0.1582 -0.1467  0.5346
  160MOL    C3144869   2.658   6.968   6.047  0.2586  0.0996 -0.1076
  160MOL    C3244870   2.625   7.099   6.075  0.3675  0.1395  0.2166
  160MOL    C3344871   2.486   7.142   6.070 -1.0496 -0.1091  0.6306
  160MOL    C3444872   2.451   7.281   6.086  0.2641 -0.2319  0.4403
  160MOL    C3544873   2.531   7.389   6.114  0.3754 -0.4150  0.7452
  160MOL    C3644874   2.385   7.043   6.047  0.1147 -0.2305  0.1946
  160MOL    C3744875   2.423   6.907   6.031 -0.5812  0.6953 -0.3436
  160MOL    H3844876   2.761   6.939   6.037  0.1202  0.2080 -2.0564
  160MOL    H3944877   2.711   7.165   6.078 -2.5927  4.2725 -0.9494
  160MOL    H4044878   2.347   7.306   6.076  0.7187  2.2330  1.3902
  160MOL    H4144879   2.636   7.367   6.119  0.6207  0.2340 -1.3266
  160MOL    H4244880   2.279   7.064   6.052  0.1884  0.2473 -0.2187
  160MOL    H4344881   2.352   6.831   6.005  2.3341 -2.9261  1.7123
  160MOL    C4444882   2.487   7.526   6.143 -0.6556 -0.0546  0.1550
  160MOL    C4544883   2.587   7.628   6.148  0.2845 -0.5769 -0.6181
  160MOL    C4644884   2.553   7.761   6.195 -0.2563 -0.6554 -0.0012
  160MOL    C4744885   2.418   7.792   6.219 -0.5452  0.1698  0.0710
  160MOL    C4844886   2.386   7.916   6.284 -0.0663  0.9733 -0.3481
  160MOL    C4944887   2.271   7.942   6.348  0.0242 -0.0205  0.2592
  160MOL    C5044888   2.320   7.699   6.179 -0.0908  0.3171  0.0839
  160MOL    C5144889   2.355   7.569   6.143 -0.5934  0.6725  0.0596
  160MOL    H5244890   2.691   7.608   6.129  0.4569 -0.5776  0.2721
  160MOL    H5344891   2.637   7.824   6.219 -0.2782 -1.0426  1.1365
  160MOL    H5444892   2.466   7.988   6.287 -0.5537  1.4883  0.5739
  160MOL    H5544893   2.196   7.864   6.343 -1.8967  1.7758  0.4988
  160MOL    H5644894   2.218   7.733   6.188  0.2265  0.8436  1.7927
  160MOL    H5744895   2.276   7.500   6.119  1.8194 -2.3246  0.4142
  160MOL    C5844896   2.227   8.061   6.419  0.2709 -0.2281  0.4923
  160MOL    C5944897   2.307   0.029   6.438  1.2089 -0.0808  0.0598
  160MOL    C6044898   2.249   0.145   6.497  0.0283 -0.6182  0.5912
  160MOL    C6144899   2.118   0.147   6.541 -0.2024  0.4083  0.0921
  160MOL    C6244900   2.045   0.270   6.586  0.1065  0.0059  0.1527
  160MOL    C6344901   2.092   0.392   6.598  0.2408 -0.4314 -0.2165
  160MOL    C6444902   2.045   0.028   6.526 -0.0970 -0.4262  0.0097
  160MOL    C6544903   2.093   8.057   6.465 -0.1096  0.4931 -0.1571
  160MOL    H6644904   2.408   0.020   6.401  1.0417  0.1982 -0.4560
  160MOL    H6744905   2.318   0.227   6.487  1.5588 -2.0829 -1.2415
  160MOL    H6844906   1.939   0.263   6.602 -0.3116  0.8980 -2.1568
  160MOL    H6944907   2.196   0.402   6.572  0.2665 -0.2222 -0.0357
  160MOL    H7044908   1.941   0.044   6.550  0.1222 -1.4572  1.7497
  160MOL    H7144909   2.023   7.977   6.446  0.5819  0.6403 -3.6658
  160MOL    C7244910   2.013   0.508   6.644  0.4661  0.4716  0.2179
  160MOL    C7344911   1.904   0.487   6.731  0.0692 -0.1658 -0.5864
  160MOL    C7444912   1.812   0.590   6.754  0.3305 -0.0277  0.0027
  160MOL    C7544913   1.832   0.720   6.701 -0.1165  0.3859 -0.1371
  160MOL    C7644914   1.714   0.808   6.725 -0.7473  0.4496  0.0587
  160MOL    C7744915   1.699   0.943   6.702 -0.1951  0.4575  0.6315
  160MOL    C7844916   1.949   0.745   6.628 -0.0209 -0.7254 -0.2943
  160MOL    C7944917   2.033   0.637   6.591 -0.1342  1.1211  0.1093
  160MOL    H8044918   1.882   0.392   6.779 -3.5423 -0.4459 -2.5928
  160MOL    H8144919   1.725   0.555   6.806  1.3600 -2.2961  0.2725
  160MOL    H8244920   1.629   0.756   6.765 -0.0450  0.6871  1.9161
  160MOL    H8344921   1.780   0.995   6.654 -1.2356  1.4351 -0.1135
  160MOL    H8444922   1.956   0.842   6.580  1.3641 -0.5580  0.2173
  160MOL    H8544923   2.116   0.660   6.526  1.7517  1.0089  2.4143
  160MOL    C8644924   1.569   1.012   6.719  0.1179  0.4486  0.1494
  160MOL    C8744925   1.453   0.952   6.663 -0.4062 -0.4355 -0.5139
  160MOL    C8844926   1.325   1.001   6.690  0.4449  0.4736  0.6031
  160MOL    C8944927   1.311   1.111   6.778  0.6562 -0.7790 -0.7808
  160MOL    C9044928   1.173   1.138   6.812 -0.0943  0.2172  0.0458
  160MOL    C9144929   1.095   1.032   6.852  0.8846 -0.6784  0.2683
  160MOL    C9244930   1.417   1.179   6.821 -0.0423 -0.1754  0.0632
  160MOL    C9344931   1.548   1.133   6.786 -0.8322  0.1687  0.2595
  160MOL    H9444932   1.465   0.859   6.610 -1.0378 -0.1512 -1.1822
  160MOL    H9544933   1.235   0.961   6.645  1.6770 -1.7976  0.1156
  160MOL    H9644934   1.126   1.236   6.807 -0.8081 -0.1386 -0.2880
  160MOL    H9744935   1.138   0.934   6.866  0.6762 -0.6962  0.8066
  160MOL    H9844936   1.391   1.267   6.879 -1.0278 -2.3164  2.9947
  160MOL    H9944937   1.636   1.179   6.829  0.2853 -1.1391 -0.6002
  160MOL   C10044938   0.953   1.040   6.890 -0.5250 -0.1086  0.0987
  160MOL   C10144939   0.898   0.916   6.918  0.2783  0.3764 -0.4033
  160MOL   C10244940   0.760   0.905   6.960  0.0802  0.8061 -0.2912
  160MOL   C10344941   0.679   1.019   6.955  0.4235 -0.2959  0.1830
  160MOL   C10444942   0.529   1.017   6.972 -0.0458 -0.4009  0.4206
  160MOL   C10544943   0.461   0.904   7.006 -0.1058 -0.1755 -0.2520
  160MOL   C10644944   0.741   1.142   6.931  0.0952  0.0954  1.0001
  160MOL   C10744945   0.876   1.153   6.892 -0.1732  0.1038  0.2134
  160MOL   H10844946   0.956   0.825   6.915 -0.1468  0.1143 -0.7488
  160MOL   H10944947   0.721   0.805   6.976 -0.9093  1.6116  2.6071
  160MOL   H11044948   0.480   1.111   6.951  0.2050 -0.1310  1.0301
  160MOL   H11144949   0.516   0.814   7.031 -0.3212 -0.5306 -1.0302
  160MOL   H11244950   0.685   1.233   6.916  1.1284  0.6235  0.2293
  160MOL   H11344951   0.914   1.250   6.866  0.0947 -0.1302 -0.2815
  160MOL   C11444952   0.315   0.885   7.012 -0.2203  0.5673 -0.0859
  160MOL   C11544953   0.226   0.995   6.999  0.0393  0.2106 -0.2571
  160MOL   C11644954   0.086   0.968   6.997  0.0435 -0.1605 -0.6466
  160MOL   C11744955   0.040   0.834   7.010  0.1103 -0.5329  0.1475
  160MOL   C11844956   8.043   0.819   6.986 -0.2323  0.3051  0.2663
  160MOL   C11944957   7.963   0.720   7.017  0.1076 -0.0109 -0.6615
  160MOL   C12044958   0.132   0.725   7.035  0.7124 -0.5761  0.5201
  160MOL   C12144959   0.269   0.751   7.019 -0.6775  0.1780  0.0649
  160MOL   H12244960   0.252   1.099   6.986 -0.6013  0.4180  0.0994
  160MOL   H12344961   0.015   1.048   6.981 -1.6215 -1.4974 -0.0407
  160MOL   H12444962   8.001   0.904   6.934 -1.8764 -1.6245 -1.6159
  160MOL   H12544963   8.000   0.632   7.068 -0.4890  0.2610  0.2574
  160MOL   H12644964   0.094   0.626   7.052  0.5658 -0.6460 -0.2049
  160MOL   H12744965   0.340   0.669   7.017 -0.8622  0.0328 -0.7063
  160MOL   C12844966   7.821   0.719   6.977  0.5416  0.2000  0.5768
  160MOL   C12944967   7.743   0.620   7.039 -0.0450  0.1254  0.7415
  160MOL   C13044968   7.608   0.610   7.006 -0.3930 -0.9366  0.5748
  160MOL   C13144969   7.541   0.700   6.918  0.5212 -1.4481 -0.3382
  160MOL   C13244970   7.402   0.676   6.877  0.3279  0.3326 -0.4932
  160MOL   C13344971   7.341   0.727   6.768  0.0117  0.6344 -0.1469
  160MOL   C13444972   7.626   0.796   6.855 -0.1884  0.2621  0.0403
  160MOL   C13544973   7.760   0.802   6.887 -0.1026 -0.0232  0.2478
  160MOL   H13644974   7.793   0.553   7.106  0.7143 -0.7797 -0.7173
  160MOL   H13744975   7.553   0.529   7.052  0.0078 -1.8728 -0.5718
  160MOL   H13844976   7.351   0.611   6.947  0.6937  3.5951  3.0001
  160MOL   H13944977   7.395   0.798   6.707  0.2170 -0.0384 -0.7465
  160MOL   H14044978   7.592   0.872   6.786  1.9239  0.5038 -0.7925
  160MOL   H14144979   7.824   0.865   6.827  0.5776  2.3570  3.3396
  160MOL   C14244980   7.193   0.706   6.740 -0.4283  0.6618  0.6712
  160MOL   C14344981   7.136   0.733   6.616  0.6226 -0.6031 -1.0386
  160MOL   C14444982   7.000   0.717   6.591 -0.0879  0.4675 -0.6823
  160MOL   C14544983   6.914   0.652   6.685 -0.3615 -0.3736 -0.2668
  160MOL   C14644984   6.766   0.635   6.670  0.0656 -0.3762 -0.5508
  160MOL   C14744985   6.692   0.665   6.564  0.1380  0.0853  0.2903
  160MOL   C14844986   6.972   0.616   6.809  0.0475  0.0315  0.0239
  160MOL   C14944987   7.111   0.634   6.828 -0.2352 -0.4083  0.0464
  160MOL   H15044988   7.193   0.784   6.539 -1.0675  0.9923 -1.2552
  160MOL   H15144989   6.961   0.730   6.491 -0.8802  0.3053 -0.3991
  160MOL   H15244990   6.719   0.583   6.752  1.8266  1.4226  1.6868
  160MOL   H15344991   6.743   0.715   6.483  0.0206  0.6953  0.5900
  160MOL   H15444992   6.911   0.561   6.879 -0.7152 -0.0772 -0.7203
  160MOL   H15544993   7.148   0.605   6.925 -1.0208  1.4668  0.9325
  160MOL   C15644994   6.550   0.623   6.544 -0.0337 -0.9010 -0.2297
  160MOL   C15744995   6.484   0.669   6.430 -0.9114 -0.1160  0.5038
  160MOL   C15844996   6.346   0.628   6.411 -0.5109  0.4877  0.4192
  160MOL   C15944997   6.278   0.548   6.498 -0.3042  0.2893  0.7955
  160MOL   C16044998   6.139   0.515   6.472 -0.0966 -0.0024 -0.0709
  160MOL   C16144999   6.055   0.450   6.557  0.2494  0.0234 -0.7717
  160MOL   C16245000   6.345   0.498   6.610  0.2040 -0.2945 -0.0756
  160MOL   C16345001   6.477   0.538   6.628 -0.0931  0.2358 -0.2832
  160MOL   H16445002   6.537   0.729   6.358 -1.1334 -0.6835 -0.1429
  160MOL   H16545003   6.292   0.660   6.323 -0.9917  4.0722  1.9335
  160MOL   H16645004   6.106   0.545   6.374 -2.0582 -1.0266  0.2324
  160MOL   H16745005   6.092   0.431   6.657 -1.7617  0.9329  0.1749
  160MOL   H16845006   6.304   0.448   6.696  1.6682 -0.8245  0.3246
  160MOL   H16945007   6.526   0.495   6.714 -0.5067 -1.5769 -0.9478
  160MOL   C17045008   5.921   0.402   6.540 -0.4818  0.0896 -0.5642
  160MOL   C17145009   5.848   0.417   6.419  0.3036  0.2299 -0.3627
  160MOL   C17245010   5.724   0.358   6.412 -0.0029  1.0437  0.7220
  160MOL   C17345011   5.659   0.286   6.516  0.2482 -0.0928  0.1054
  160MOL   C17445012   5.524   0.235   6.493  0.0971 -0.1864 -0.5464
  160MOL   C17545013   5.420   0.243   6.582 -0.6886  0.3158 -0.1770
  160MOL   C17645014   5.725   0.281   6.637 -0.0283  0.0814  0.5133
  160MOL   C17745015   5.851   0.345   6.654  0.2285 -0.4516 -0.3273
  160MOL   H17845016   5.878   0.465   6.327 -1.8359 -0.9738 -1.7351
  160MOL   H17945017   5.664   0.370   6.322 -1.4010 -2.1433  1.1685
  160MOL   H18045018   5.512   0.184   6.399  0.4064 -0.2747 -0.5393
  160MOL   H18145019   5.439   0.298   6.673  0.1413 -1.9196  1.0324
  160MOL   H18245020   5.682   0.237   6.725 -2.1218 -1.0572 -1.0308
  160MOL   H18345021   5.881   0.360   6.756  0.7866  0.8181 -0.6780
  160MOL   C18445022   5.284   0.184   6.582  0.3630 -0.8229 -0.4807
  160MOL   C18545023   5.243   0.093   6.481 -0.1723 -0.1017  0.2620
  160MOL   C18645024   5.109   0.038   6.484 -0.0410 -0.0048 -0.0060
  160MOL   C18745025   5.015   0.081   6.573 -0.5823  0.6425  0.4105
  160MOL   C18845026   4.882   0.017   6.580 -0.3441 -0.3385 -0.7620
  160MOL   C18945027   4.859   8.036   6.547  0.4816  0.0080 -0.2860
  160MOL   C19045028   5.055   0.185   6.662 -0.4419  0.3325 -0.0360
  160MOL   C19145029   5.187   0.237   6.670 -0.0831  0.7322 -0.2860
  160MOL   H19245030   5.313   0.061   6.404 -1.8206 -1.8838 -0.5453
  160MOL   H19345031   5.080   8.111   6.409  1.1992 -2.1924  1.5401
  160MOL   H19445032   4.802   0.082   6.612 -2.0254 -3.0608  0.7071
  160MOL   H19545033   4.939   7.976   6.506 -0.2410  0.0972 -1.8793
  160MOL   H19645034   4.983   0.227   6.730 -0.3203  1.5975 -0.6638
  160MOL   H19745035   5.211   0.317   6.738  0.3033 -0.0060  0.4500
  160MOL   C19845036   4.730   7.957   6.568  0.0101  0.5484 -1.2039
  160MOL   C19945037   4.617   8.012   6.629 -0.4515 -0.4958  0.2984
  160MOL   C20045038   4.502   7.931   6.654 -0.2513 -0.1193 -0.1377
  160MOL   C20145039   4.503   7.787   6.636  0.3072  0.0755 -0.1603
  160MOL   C20245040   4.385   7.704   6.654  0.1142  0.5870 -0.1423
  160MOL   C20345041   4.260   7.744   6.679  0.1618  0.1242 -0.1014
  160MOL   C20445042   4.622   7.733   6.584 -0.0117 -0.1855 -0.0667
  160MOL   C20545043   4.728   7.817   6.546 -0.2603  0.0272  0.0975
  160MOL   H20645044   4.608   8.118   6.646 -0.7189 -0.1710 -1.8262
  160MOL   H20745045   4.409   7.969   6.694  0.3654  0.7372  0.4819
  160MOL   H20845046   4.420   7.602   6.652  2.4791  1.3561  0.7072
  160MOL   H20945047   4.226   7.846   6.670  0.3428 -0.0317 -3.0302
  160MOL   H21045048   4.632   7.626   6.568 -1.5534 -0.6455  1.7463
  160MOL   H21145049   4.817   7.768   6.510  1.2244  1.8094  1.3234
  160MOL   C21245050   4.151   7.650   6.706  0.5104  0.9391 -0.5417
  160MOL   C21345051   4.029   7.692   6.755  0.2505 -0.1526  0.2762
  160MOL   C21445052   3.925   7.598   6.790  0.1197 -0.0163  0.4641
  160MOL   C21545053   3.954   7.457   6.789  0.3421 -0.4944  0.6100
  160MOL   C21645054   3.849   7.352   6.831 -0.0607 -0.2658  0.4309
  160MOL   C21745055   3.877   7.219   6.844 -0.2764  0.1115 -0.3016
  160MOL   C21845056   4.079   7.417   6.732  0.3376 -0.0570  0.2549
  160MOL   C21945057   4.174   7.512   6.684 -0.6486 -0.3692 -0.4597
  160MOL   H22045058   4.013   7.799   6.762 -1.1542 -0.3875  1.0771
  160MOL   H22145059   3.831   7.637   6.828 -1.1510  0.2190 -2.7125
  160MOL   H22245060   3.750   7.395   6.840  0.3986  0.6272  1.3729
  160MOL   H22345061   3.981   7.196   6.826 -0.0514  0.2807  0.7482
  160MOL   H22445062   4.091   7.311   6.718  0.7234  0.0480 -0.1968
  160MOL   H22545063   4.268   7.470   6.650 -0.6901 -0.9192  0.1063
  160MOL   C22645064   3.780   7.122   6.883  0.1075 -0.2285  0.4983
  160MOL   C22745065   3.820   6.993   6.924 -0.5723 -0.7785 -0.1152
  160MOL   C22845066   3.737   6.893   6.970 -0.1386 -0.3434  0.3295
  160MOL   C22945067   3.599   6.916   6.970  0.4066 -0.1468  0.2197
  160MOL   C23045068   3.503   6.815   7.018  0.0295 -0.0307 -0.4043
  160MOL   C23145069   3.526   6.703   7.083 -1.0748  0.2741 -0.1182
  160MOL   C23245070   3.554   7.051   6.938 -0.6408  0.5544  0.2761
  160MOL   C23345071   3.641   7.147   6.887  0.2679 -0.5301  0.0640
  160MOL   H23445072   3.926   6.974   6.912 -0.9529 -1.9310 -1.6892
  160MOL   H23545073   3.786   6.797   6.973  1.3467  0.2734 -2.6704
  160MOL   H23645074   3.400   6.834   6.992  1.0077  2.3108 -2.7786
  160MOL   H23745075   3.629   6.682   7.108 -1.6073 -0.9573  1.1013
  160MOL   H23845076   3.447   7.063   6.941 -0.5019  2.1969 -0.7031
  160MOL   H23945077   3.605   7.243   6.854 -0.5414 -0.8588 -0.0377
  160MOL   C24045078   3.430   6.603   7.119 -0.3230  0.3444  0.0321
  160MOL   C24145079   3.468   6.509   7.219 -0.0864 -0.1563  0.8590
  160MOL   C24245080   3.383   6.401   7.253 -0.0123 -0.1828 -0.4018
  160MOL   C24345081   3.267   6.370   7.175 -1.1224  0.3156  0.2499
  160MOL   C24445082   3.177   6.263   7.226 -0.9454 -0.3944 -0.0791
  160MOL   C24545083   3.051   6.242   7.177 -0.2713  0.8547  0.0576
  160MOL   C24645084   3.229   6.471   7.083  0.3811 -0.1071  0.4526
  160MOL   C24745085   3.306   6.585   7.053 -0.6564 -0.2505 -0.2728
  160MOL   H24845086   3.562   6.529   7.269  0.8619  0.0374 -0.9524
  160MOL   H24945087   3.419   6.327   7.324 -0.8276 -0.5990 -0.4242
  160MOL   H25045088   3.220   6.201   7.303 -1.4029 -0.2022  0.3376
  160MOL   H25145089   3.009   6.303   7.098  0.2788  0.0093 -0.8958
  160MOL   H25245090   3.142   6.459   7.021  0.3777  1.5577  0.0974
  160MOL   H25345091   3.267   6.659   6.984 -1.7268 -1.4775 -0.9958
  160MOL   C25445092   2.954   6.148   7.224  0.2361 -0.7628  0.0616
  160MOL   C25545093   2.969   6.080   7.344 -0.4782  0.4647  0.0647
  160MOL   C25645094   2.863   6.011   7.404  0.4836 -0.4024  0.9358
  160MOL   C25745095   2.747   5.973   7.334 -0.4631  0.2535  1.2539
  160MOL   C25845096   2.657   5.859   7.376 -0.5810  0.4575 -0.5981
  160MOL   C25945097   2.673   5.756   7.462  0.4508  0.4316 -0.4499
  160MOL   C26045098   2.741   6.032   7.204 -0.0306 -0.0882 -0.3648
  160MOL   C26145099   2.836   6.119   7.155 -0.6639  0.2220 -0.1089
  160MOL   H26245100   3.058   6.077   7.404 -0.0231  1.0540 -0.5694
  160MOL   H26345101   2.869   5.968   7.503  0.1456 -0.5941  0.8726
  160MOL   H26445102   2.562   5.858   7.326 -0.2861  0.4709 -1.1601
  160MOL   H26545103   2.583   5.700   7.481 -1.0985  3.3895  1.3400
  160MOL   H26645104   2.664   5.997   7.137 -0.0289 -0.5521 -0.1293
  160MOL   H26745105   2.816   6.166   7.060 -0.2894  0.2580 -0.1694
  160MOL   C26845106   2.795   5.712   7.530 -0.0413 -0.5380  1.1787
  160MOL   C26945107   2.791   5.674   7.660  0.7595  0.5118  0.0601
  160MOL   C27045108   2.902   5.609   7.725 -0.5159 -0.7011 -0.1030
  160MOL   C27145109   3.021   5.602   7.650  0.2265 -0.1474 -1.0989
  160MOL   C27245110   3.147   5.556   7.709 -1.4562 -0.2439 -0.0895
  160MOL   C27345111   3.188   5.549   7.837 -0.2303 -0.4267  0.5616
  160MOL   C27445112   3.030   5.653   7.519 -0.8406  0.1558 -0.6108
  160MOL   C27545113   2.916   5.704   7.457  0.1679  0.4514  0.8304
  160MOL   H27645114   2.701   5.689   7.718  0.1496 -2.9459  0.1408
  160MOL   H27745115   2.895   5.582   7.829  0.7069 -2.8410 -0.5477
  160MOL   H27845116   3.224   5.524   7.640 -1.0624  0.1604  0.1526
  160MOL   H27945117   3.116   5.585   7.909  1.4907  0.8050  1.6873
  160MOL   H28045118   3.125   5.653   7.468 -0.1576 -0.2218  0.6148
  160MOL   H28145119   2.926   5.740   7.356  0.7069 -1.8773  0.0196
  160MOL   H28245120   3.288   5.514   7.855 -0.0694 -0.1691  0.1910
  161MOL     C145121   5.023   0.242   1.658  0.8991 -0.4004 -0.2607
  161MOL     C245122   5.036   0.242   1.800  0.4846 -0.0712  0.2678
  161MOL     C345123   5.152   0.203   1.863  0.0299  0.1653  0.4202
  161MOL     C445124   5.262   0.145   1.795  0.4577 -0.3584  0.6812
  161MOL     C545125   5.384   0.102   1.871 -0.5411  0.5280  0.4475
  161MOL     C645126   5.497   0.056   1.808 -0.2718 -0.6400 -0.9256
  161MOL     C745127   5.248   0.146   1.654 -0.1421  0.0882  0.4740
  161MOL     C845128   5.135   0.201   1.587 -0.3283 -0.3317 -0.4719
  161MOL     H945129   4.947   0.259   1.858  0.0172 -1.3293 -0.0741
  161MOL    H1045130   5.151   0.207   1.971 -0.2969 -0.6678  0.4472
  161MOL    H1145131   5.374   0.105   1.978 -2.4308 -1.2587  0.3349
  161MOL    H1245132   5.508   0.046   1.701  1.3325 -0.0542 -0.8285
  161MOL    H1345133   5.328   0.113   1.589  0.7061 -0.4151  1.7645
  161MOL    H1445134   5.139   0.207   1.479  2.4893 -1.4384 -0.4865
  161MOL    H1545135   4.928   0.262   1.611  0.3463 -1.2269  0.4944
  161MOL    C1645136   5.629   0.023   1.875 -0.7199  0.0263  0.1060
  161MOL    C1745137   5.634   0.020   2.015 -0.2379  0.0568  0.3305
  161MOL    C1845138   5.762   0.018   2.076 -0.4193 -0.2866 -0.2625
  161MOL    C1945139   5.885   0.010   2.006  0.0172 -0.1753 -0.1592
  161MOL    C2045140   6.018   0.016   2.063 -0.3673 -0.4046  0.0892
  161MOL    C2145141   6.045   0.030   2.197 -0.2611  0.0034 -0.8570
  161MOL    C2245142   5.879   0.001   1.868 -0.2593  0.4931  0.0664
  161MOL    C2345143   5.754   0.017   1.806  0.0153  0.0845  0.3035
  161MOL    H2445144   5.543   0.014   2.074 -0.0526 -1.0922  0.5117
  161MOL    H2545145   5.760   0.014   2.184  0.6967  3.3122 -0.0444
  161MOL    H2645146   6.097   0.004   1.991 -0.6066  2.0963 -0.6217
  161MOL    H2745147   5.968   0.050   2.270  1.4551 -0.2908  1.1078
  161MOL    H2845148   5.968   8.137   1.808  0.8090  0.3516  1.6611
  161MOL    H2945149   5.761   0.024   1.698 -1.0133 -0.3987  0.1952
  161MOL    C3045150   6.185   0.021   2.250 -0.7374 -0.2950  0.0638
  161MOL    C3145151   6.201   0.001   2.391  0.0983 -0.2866 -0.1961
  161MOL    C3245152   6.331   8.121   2.433 -0.0457  0.1238 -0.7159
  161MOL    C3345153   6.446   8.123   2.352  0.1113  0.2736  0.1671
  161MOL    C3445154   6.577   8.098   2.411 -0.3921  0.1186 -0.0125
  161MOL    C3545155   6.694   8.140   2.366  0.2919 -0.2364  1.1084
  161MOL    C3645156   6.431   8.143   2.211  0.0603  0.4052 -0.2746
  161MOL    C3745157   6.301   0.021   2.167  0.4375  0.0501 -0.1017
  161MOL    H3845158   6.114   8.127   2.452  1.7060 -1.6406  1.7659
  161MOL    H3945159   6.347   8.101   2.538  0.6674  0.2157 -0.8024
  161MOL    H4045160   6.570   8.042   2.503  1.3612  0.7787  0.5339
  161MOL    H4145161   6.695   0.052   2.274 -0.3763 -0.0136  1.2331
  161MOL    H4245162   6.510   0.004   2.137 -1.6578  1.0331 -2.1178
  161MOL    H4345163   6.285   0.040   2.062 -2.1659  1.5483  0.5318
  161MOL    C4445164   6.830   8.111   2.414 -0.1133 -0.0650 -0.1815
  161MOL    C4545165   6.864   8.059   2.543 -0.8909  0.6096  0.1495
  161MOL    C4645166   7.002   8.039   2.578 -0.0729  0.6878  0.2186
  161MOL    C4745167   7.108   8.073   2.489 -0.0009 -0.7654  0.0089
  161MOL    C4845168   7.250   8.060   2.527  0.1017  0.2803  0.1912
  161MOL    C4945169   7.307   8.008   2.635 -0.3772  1.0814 -0.3707
  161MOL    C5045170   7.072   8.106   2.358  0.3483  0.1127 -0.9745
  161MOL    C5145171   6.937   8.132   2.323  0.1915 -0.5760 -0.3916
  161MOL    H5245172   6.791   8.046   2.621 -0.0026 -0.5313  0.8056
  161MOL    H5345173   7.029   8.002   2.675 -0.9022 -0.7267 -0.0808
  161MOL    H5445174   7.321   8.110   2.463 -0.3566  0.3435 -0.2648
  161MOL    H5545175   7.242   7.964   2.709 -1.3918  0.7454 -1.4444
  161MOL    H5645176   7.150   8.132   2.289  1.2807  1.8726  0.6985
  161MOL    H5745177   6.924   0.032   2.225  0.5690 -0.1841 -0.2649
  161MOL    C5845178   7.445   7.985   2.655  0.0599  0.3078 -0.5021
  161MOL    C5945179   7.542   8.031   2.563 -0.4953  0.4392  0.1601
  161MOL    C6045180   7.682   8.005   2.574 -0.1008 -0.2789 -0.5683
  161MOL    C6145181   7.725   7.928   2.685 -0.0177 -0.2400 -0.0631
  161MOL    C6245182   7.866   7.904   2.699 -0.0687 -0.3755  0.2530
  161MOL    C6345183   7.917   7.837   2.804  0.3288 -0.3443  0.6876
  161MOL    C6445184   7.629   7.887   2.786 -0.4025 -0.2440  0.1900
  161MOL    C6545185   7.492   7.915   2.769 -0.6916 -0.0916  0.3429
  161MOL    H6645186   7.516   8.100   2.484  2.0632  0.4219 -0.7343
  161MOL    H6745187   7.745   8.059   2.505  0.5333  0.2006  0.3711
  161MOL    H6845188   7.931   7.944   2.622  0.3401 -0.8747  0.3327
  161MOL    H6945189   7.856   7.797   2.883 -2.0665  2.3904  0.3149
  161MOL    H7045190   7.663   7.849   2.881  3.5337  0.8256 -0.7047
  161MOL    H7145191   7.417   7.882   2.839 -0.0241 -0.8654  0.6989
  161MOL    C7245192   8.058   7.807   2.806  0.4173  0.4312 -0.4817
  161MOL    C7345193   0.007   7.837   2.705 -0.3547  0.5512  0.1061
  161MOL    C7445194   0.138   7.792   2.714  0.3109  0.2355  0.0345
  161MOL    C7545195   0.191   7.741   2.833  0.0350 -0.3008  0.7734
  161MOL    C7645196   0.331   7.688   2.844  0.2462  0.0206  0.9254
  161MOL    C7745197   0.390   7.643   2.954 -0.1063  0.4951  0.2018
  161MOL    C7845198   0.096   7.717   2.935 -0.4098 -0.0040  0.3516
  161MOL    C7945199   8.105   7.748   2.928  0.2906  0.5459  0.1789
  161MOL    H8045200   8.120   7.896   2.621 -1.2519 -0.1631 -0.0631
  161MOL    H8145201   0.205   7.792   2.629 -0.1336 -0.1060 -0.3224
  161MOL    H8245202   0.380   7.686   2.747 -0.0990 -2.3931  0.7762
  161MOL    H8345203   0.335   7.648   3.047  0.6075 -0.5155  0.6850
  161MOL    H8445204   0.133   7.673   3.026  2.4201  0.9706 -0.2566
  161MOL    H8545205   8.036   7.719   3.004  0.1085 -1.8730 -0.8825
  161MOL    C8645206   0.530   7.595   2.957 -0.6535  0.3278  0.6190
  161MOL    C8745207   0.614   7.600   2.841 -0.5511  0.0130 -0.0324
  161MOL    C8845208   0.746   7.553   2.860  0.3190  0.1008 -0.3913
  161MOL    C8945209   0.792   7.496   2.980  0.3288 -0.4170 -0.5761
  161MOL    C9045210   0.933   7.445   2.990 -0.3621  0.1219  0.4889
  161MOL    C9145211   0.988   7.380   3.089 -0.2397  0.1893 -0.1254
  161MOL    C9245212   0.706   7.491   3.088  0.2438 -0.2174 -0.5116
  161MOL    C9345213   0.567   7.528   3.070 -0.1159  0.2571 -0.3749
  161MOL    H9445214   0.590   7.650   2.749 -1.7118 -0.6582 -0.1024
  161MOL    H9545215   0.818   7.554   2.778  1.5178  3.4401  0.6320
  161MOL    H9645216   0.996   7.458   2.904 -1.4941  0.4375 -0.2964
  161MOL    H9745217   0.925   7.353   3.173  0.6231 -2.3144 -0.2592
  161MOL    H9845218   0.737   7.457   3.186 -1.5065  3.3280  1.3935
  161MOL    H9945219   0.493   7.520   3.149 -0.1593  0.2439 -0.4171
  161MOL   C10045220   1.128   7.344   3.101 -0.1897  0.0782 -0.6517
  161MOL   C10145221   1.189   7.306   3.222  0.1043  0.2985  0.0261
  161MOL   C10245222   1.324   7.273   3.229  0.4267 -0.7570 -0.1405
  161MOL   C10345223   1.407   7.271   3.111 -0.3084  0.6671  0.1067
  161MOL   C10445224   1.543   7.219   3.112 -0.6792  0.6375 -0.1487
  161MOL   C10545225   1.608   7.167   3.213  0.4402 -0.7669  0.0630
  161MOL   C10645226   1.353   7.322   2.994 -0.1047  0.4534  0.4218
  161MOL   C10745227   1.215   7.354   2.990  0.2066  0.3803 -0.2579
  161MOL   H10845228   1.117   7.299   3.302  0.6503  2.0996  0.7073
  161MOL   H10945229   1.362   7.240   3.324 -0.2358 -3.0891 -0.6437
  161MOL   H11045230   1.592   7.236   3.017  0.6278 -1.1687  0.1621
  161MOL   H11145231   1.551   7.165   3.305 -1.7237 -1.3975 -1.2637
  161MOL   H11245232   1.413   7.325   2.905 -1.8075  0.9899 -0.7376
  161MOL   H11345233   1.170   7.393   2.900  0.9022  4.9080  1.2182
  161MOL   C11445234   1.749   7.129   3.217  0.3739 -0.5164  0.1597
  161MOL   C11545235   1.836   7.128   3.100  0.2449  0.3322 -0.3960
  161MOL   C11645236   1.970   7.082   3.109 -0.1721  0.7378 -0.0739
  161MOL   C11745237   2.029   7.079   3.237 -0.3741  0.6838 -0.3539
  161MOL   C11845238   2.164   7.027   3.251  0.4589 -0.3859 -0.4683
  161MOL   C11945239   2.211   6.953   3.350 -0.2820  0.1053  0.3434
  161MOL   C12045240   1.951   7.087   3.351  0.4032 -0.8707  0.2297
  161MOL   C12145241   1.811   7.105   3.339  0.2370 -0.6358 -0.8422
  161MOL   H12245242   1.798   7.153   3.002  0.3943 -1.5279 -0.9607
  161MOL   H12345243   2.027   7.063   3.020 -0.7709  0.3644 -0.3841
  161MOL   H12445244   2.238   7.045   3.173  2.0122  0.4969  1.1745
  161MOL   H12545245   2.143   6.921   3.427 -1.6308 -1.3307 -1.4235
  161MOL   H12645246   1.990   7.070   3.451  0.4390  0.0383  0.3697
  161MOL   H12745247   1.755   7.121   3.430 -1.1116  0.6267 -1.8693
  161MOL   C12845248   2.347   6.900   3.361 -0.3663  0.0132  0.4825
  161MOL   C12945249   2.466   6.974   3.340  0.4391  0.1540 -0.8812
  161MOL   C13045250   2.595   6.916   3.342 -0.0349  0.1587  0.1276
  161MOL   C13145251   2.619   6.780   3.373  0.1232  0.0967  0.5012
  161MOL   C13245252   2.757   6.720   3.394 -0.5509 -0.8546  0.0774
  161MOL   C13345253   2.879   6.765   3.381 -0.5647 -0.0110  0.1970
  161MOL   C13445254   2.497   6.704   3.397 -0.1956  0.3746 -0.6805
  161MOL   C13545255   2.368   6.768   3.395 -0.4297  0.5918  0.1151
  161MOL   H13645256   2.457   7.080   3.325  0.4359  0.8611  3.3912
  161MOL   H13745257   2.672   6.990   3.330 -1.6532  1.8833  0.1940
  161MOL   H13845258   2.747   6.617   3.426  3.4926 -0.6805  2.2916
  161MOL   H13945259   2.889   6.870   3.354  1.6467 -0.3080 -0.2421
  161MOL   H14045260   2.498   6.597   3.412 -1.8273  0.8466  3.2930
  161MOL   H14145261   2.280   6.709   3.415 -0.2782  0.3628  0.1087
  161MOL   C14245262   3.014   6.696   3.396 -0.2813 -0.5429  0.5326
  161MOL   C14345263   3.135   6.764   3.362 -0.5170 -0.1544  0.3796
  161MOL   C14445264   3.255   6.695   3.391 -0.1731  0.5538 -0.4815
  161MOL   C14545265   3.262   6.557   3.432 -0.2180 -0.7352  0.1669
  161MOL   C14645266   3.381   6.480   3.453 -0.5543 -0.7735  0.3712
  161MOL   C14745267   3.506   6.530   3.471 -0.6245  0.2270  0.0326
  161MOL   C14845268   3.139   6.497   3.456  1.0554 -0.8883 -1.0422
  161MOL   C14945269   3.021   6.570   3.458 -0.5940  0.8905  0.4717
  161MOL   H15045270   3.131   6.868   3.333  1.3730 -0.8699 -2.7801
  161MOL   H15145271   3.348   6.749   3.374  0.4736 -0.3052  0.2454
  161MOL   H15245272   3.363   6.373   3.450  0.1878 -0.9931  2.9595
  161MOL   H15345273   3.531   6.635   3.466 -1.4595  0.4575  0.5574
  161MOL   H15445274   3.134   6.402   3.508  1.9481 -0.0792  0.5910
  161MOL   H15545275   2.938   6.524   3.507 -0.5681  0.4387  0.0897
  161MOL   C15645276   3.628   6.453   3.488 -0.2105 -0.1223  0.5396
  161MOL   C15745277   3.623   6.312   3.509  0.4124 -0.3086  0.6475
  161MOL   C15845278   3.735   6.231   3.523 -0.9106  0.1164 -0.1350
  161MOL   C15945279   3.863   6.281   3.498  0.3064  0.1355  0.4013
  161MOL   C16045280   3.987   6.204   3.517  0.0159  0.9089  0.0137
  161MOL   C16145281   4.111   6.247   3.508 -0.1750 -0.6962 -0.4117
  161MOL   C16245282   3.873   6.421   3.468 -0.5055 -0.6972 -0.8260
  161MOL   C16345283   3.758   6.499   3.460  0.0092 -0.4582 -0.3550
  161MOL   H16445284   3.524   6.275   3.531  0.6347 -1.7101 -0.6774
  161MOL   H16545285   3.738   6.130   3.561  1.0700 -0.7384 -2.4511
  161MOL   H16645286   3.970   6.099   3.538  3.1286  1.0126  3.5797
  161MOL   H16745287   4.125   6.350   3.479 -2.0794 -0.1949  0.3637
  161MOL   H16845288   3.965   6.471   3.441 -0.4477  0.2221  1.0780
  161MOL   H16945289   3.765   6.600   3.423  0.2012 -0.0977  0.6424
  161MOL   C17045290   4.234   6.166   3.526 -0.6005 -0.8172  0.2364
  161MOL   C17145291   4.362   6.225   3.554 -0.0058 -0.0621  0.5912
  161MOL   C17245292   4.478   6.150   3.576 -0.4783  0.8524 -0.4804
  161MOL   C17345293   4.470   6.007   3.575 -0.2110 -0.0306 -0.1026
  161MOL   C17445294   4.587   5.916   3.593  0.1701  0.3334  0.5683
  161MOL   C17545295   4.713   5.968   3.612 -0.2753  0.0455 -0.4943
  161MOL   C17645296   4.341   5.945   3.568 -0.3939 -0.7551 -0.1456
  161MOL   C17745297   4.230   6.026   3.526 -0.0704 -0.5475  0.6645
  161MOL   H17845298   4.362   6.333   3.560 -0.6481  0.0249 -0.7203
  161MOL   H17945299   4.565   6.209   3.596 -1.0517  1.7383 -0.5932
  161MOL   H18045300   4.572   5.809   3.594  2.4326 -0.0438  3.3351
  161MOL   H18145301   4.722   6.075   3.604 -0.1786  0.0858  0.1482
  161MOL   H18245302   4.333   5.837   3.562  0.6092 -0.8562  0.2982
  161MOL   H18345303   4.138   5.972   3.509  0.5259 -0.8205 -2.0495
  161MOL   C18445304   4.830   5.894   3.646  0.3053  0.9951 -0.5156
  161MOL   C18545305   4.947   5.967   3.674 -0.0813  1.2461 -0.3185
  161MOL   C18645306   5.073   5.905   3.698 -0.0349 -0.1330 -0.4468
  161MOL   C18745307   5.085   5.758   3.705  1.0647 -0.4329  0.0865
  161MOL   C18845308   5.213   5.697   3.735 -0.7544 -0.4990 -0.1952
  161MOL   C18945309   5.334   5.752   3.711 -0.2897  0.2680  0.4405
  161MOL   C19045310   4.973   5.689   3.666  0.6970  0.0529 -1.3893
  161MOL   C19145311   4.850   5.750   3.651  0.0527 -0.2789 -0.9329
  161MOL   H19245312   4.940   6.075   3.682  1.1741  1.3477 -0.5350
  161MOL   H19345313   5.153   5.969   3.730 -0.6199  1.1732 -1.5715
  161MOL   H19445314   5.210   5.600   3.782 -0.6109 -1.2362 -1.6655
  161MOL   H19545315   5.345   5.841   3.652  1.5064 -1.2011 -1.5156
  161MOL   H19645316   4.970   5.581   3.662 -2.1998 -0.0276  1.0964
  161MOL   H19745317   4.768   5.686   3.620  0.1998 -0.9726  0.1037
  161MOL   C19845318   5.459   5.681   3.740 -1.0667  0.0012  0.0494
  161MOL   C19945319   5.472   5.588   3.840  0.2538  0.4852  0.7504
  161MOL   C20045320   5.596   5.531   3.871 -0.1598  0.6900  0.4341
  161MOL   C20145321   5.717   5.571   3.804  0.1852 -0.5324  0.0789
  161MOL   C20245322   5.847   5.521   3.857  0.7177 -0.5463 -0.1673
  161MOL   C20345323   5.974   5.552   3.817  0.2961 -0.7641  0.1161
  161MOL   C20445324   5.704   5.669   3.703 -0.7402  0.1639 -1.0884
  161MOL   C20545325   5.574   5.716   3.669  0.3046  0.0288 -0.0686
  161MOL   H20645326   5.395   5.557   3.909 -0.4322  0.9383  0.1901
  161MOL   H20745327   5.613   5.453   3.944  0.3357  1.8894  1.6304
  161MOL   H20845328   5.842   5.456   3.943  0.2206 -0.5177 -0.1719
  161MOL   H20945329   5.983   5.604   3.723  1.1641 -0.7877  0.1870
  161MOL   H21045330   5.785   5.713   3.646 -0.4497  1.1814  0.0985
  161MOL   H21145331   5.571   5.786   3.587  3.7018  2.3599  1.6952
  161MOL   C21245332   6.102   5.500   3.866  0.3358 -0.6264  0.2057
  161MOL   C21345333   6.105   5.410   3.977  0.1455  0.1768 -0.4299
  161MOL   C21445334   6.232   5.369   4.025 -0.5681 -0.7641 -1.5109
  161MOL   C21545335   6.349   5.405   3.963 -0.4522  0.5441  0.2736
  161MOL   C21645336   6.477   5.346   4.017 -0.3343 -0.2317 -0.0471
  161MOL   C21745337   6.584   5.419   4.061  0.1076 -0.2213  0.2476
  161MOL   C21845338   6.344   5.487   3.853 -0.5498  0.1642  0.2216
  161MOL   C21945339   6.221   5.536   3.805 -0.0750 -0.1339 -0.7007
  161MOL   H22045340   6.024   5.385   4.043  0.5550  0.7873  0.3092
  161MOL   H22145341   6.246   5.305   4.111 -2.1812  1.2741  0.3435
  161MOL   H22245342   6.480   5.238   4.015  0.2299 -0.2411  0.9145
  161MOL   H22345343   6.574   5.525   4.041 -1.9103 -0.6975 -1.4524
  161MOL   H22445344   6.436   5.495   3.796 -0.5549 -1.6645 -0.0896
  161MOL   H22545345   6.212   5.589   3.711  1.4580 -2.6381 -2.3413
  161MOL   C22645346   6.716   5.367   4.104  0.1347 -0.4607 -0.4076
  161MOL   C22745347   6.742   5.228   4.105 -0.3242  0.4219 -0.2281
  161MOL   C22845348   6.869   5.184   4.148 -0.4449  0.7033  0.2715
  161MOL   C22945349   6.957   5.273   4.212  0.6053 -0.1191  0.1649
  161MOL   C23045350   7.088   5.215   4.259  0.4454 -0.0695 -0.1963
  161MOL   C23145351   7.192   5.292   4.291 -0.2554 -0.0595 -0.3766
  161MOL   C23245352   6.925   5.412   4.214 -0.8774  0.1552 -0.0698
  161MOL   C23345353   6.811   5.462   4.150 -0.0161 -0.4421 -0.4336
  161MOL   H23445354   6.668   5.154   4.079 -0.0813 -0.0812  0.4798
  161MOL   H23545355   6.888   5.078   4.138 -0.8650  0.5954  0.6225
  161MOL   H23645356   7.087   5.109   4.282 -0.7031 -0.6072 -2.5662
  161MOL   H23745357   7.187   5.398   4.273  0.4344 -0.2350 -1.5879
  161MOL   H23845358   6.979   5.481   4.277 -2.7322  0.3320  1.3655
  161MOL   H23945359   6.793   5.569   4.150  0.0481 -0.4314 -0.3041
  161MOL   C24045360   7.316   5.244   4.342 -0.1588  0.7141  0.3447
  161MOL   C24145361   7.430   5.319   4.326 -0.1104  0.3459  0.3632
  161MOL   C24245362   7.557   5.281   4.382 -0.0202 -0.3983 -0.2817
  161MOL   C24345363   7.565   5.156   4.446  0.8145 -0.1021  0.5123
  161MOL   C24445364   7.693   5.111   4.519 -0.3157 -0.2129  0.5245
  161MOL   C24545365   7.805   5.175   4.542  0.6608  0.0006 -0.5839
  161MOL   C24645366   7.451   5.078   4.465  0.4653 -0.2143  0.0885
  161MOL   C24745367   7.326   5.119   4.407  0.0255 -0.3858  0.4273
  161MOL   H24845368   7.430   5.416   4.278  1.7701  0.9383  1.5084
  161MOL   H24945369   7.633   5.358   4.374  0.2613 -0.7406 -0.9832
  161MOL   H25045370   7.685   5.012   4.562  1.3157 -0.0919  1.1544
  161MOL   H25145371   7.807   5.279   4.516 -1.1263  0.1668 -0.1784
  161MOL   H25245372   7.451   4.982   4.515  0.3632  0.1673  0.8304
  161MOL   H25345373   7.241   5.052   4.405  1.4672 -2.2689  0.6651
  161MOL   C25445374   7.929   5.117   4.602 -1.2718  0.4325 -0.3581
  161MOL   C25545375   7.947   4.985   4.639  0.0313  0.2689 -0.2942
  161MOL   C25645376   8.069   4.936   4.691 -0.2787 -0.5813 -1.0908
  161MOL   C25745377   0.033   5.030   4.704 -0.8100  0.2093  0.5008
  161MOL   C25845378   0.165   4.986   4.753  0.1440 -0.3307 -1.0415
  161MOL   C25945379   0.185   4.897   4.847  1.0550 -0.4476  0.1835
  161MOL   C26045380   0.025   5.159   4.659  0.8755 -0.4635 -0.3601
  161MOL   C26145381   8.039   5.197   4.610 -0.8022 -0.9200  0.1409
  161MOL   H26245382   7.864   4.918   4.626 -0.8509  1.1542  0.6486
  161MOL   H26345383   8.083   4.837   4.729 -0.4993 -0.1245  0.1958
  161MOL   H26445384   0.252   5.022   4.700  0.5860 -0.1746 -0.2175
  161MOL   H26545385   0.290   4.875   4.859  0.9789 -2.2718 -2.1421
  161MOL   H26645386   0.105   5.232   4.665  1.1368 -0.7702 -0.1192
  161MOL   H26745387   8.040   5.301   4.581 -0.4003 -1.2047 -0.8983
  161MOL   C26845388   0.097   4.824   4.943  0.5619  0.7109 -0.0881
  161MOL   C26945389   0.132   4.696   4.998  0.5380 -0.2612  0.4572
  161MOL   C27045390   0.057   4.639   5.104 -0.5800  0.2602  0.2048
  161MOL   C27145391   8.090   4.705   5.154 -0.4174 -0.1454 -0.2549
  161MOL   C27245392   8.035   4.659   5.284  0.2516  0.1325 -0.2541
  161MOL   C27345393   7.911   4.694   5.334 -0.0220 -0.4073  0.7274
  161MOL   C27445394   8.044   4.821   5.086 -0.3607 -0.5202 -0.1574
  161MOL   C27545395   8.122   4.885   4.991  0.0526  0.3914 -0.1949
  161MOL   H27645396   0.225   4.650   4.970  1.7421  2.1479  0.3424
  161MOL   H27745397   0.084   4.544   5.149  0.3117 -0.5821 -2.0635
  161MOL   H27845398   8.097   4.592   5.340 -0.1572 -3.1925 -3.5743
  161MOL   H27945399   7.846   4.765   5.284 -2.2307 -0.4546  3.4756
  161MOL   H28045400   7.949   4.867   5.111 -0.1036 -0.7751  1.3513
  161MOL   H28145401   8.095   4.984   4.957  1.4025  1.2729  1.2167
  161MOL   H28245402   7.885   4.643   5.425 -0.8318  2.4472  2.1449
  162MOL     C145403   7.271   5.292   5.413 -0.0564  0.0555 -0.3829
  162MOL     C245404   7.149   5.212   5.415 -0.2583  0.1810  0.2788
  162MOL     C345405   7.062   5.218   5.522  0.1884  0.4915  0.2870
  162MOL     C445406   7.081   5.306   5.625 -0.2695  0.5054 -0.1383
  162MOL     C545407   6.988   5.312   5.735 -0.1967  0.5418 -0.8151
  162MOL     C645408   7.006   5.362   5.861 -0.4143 -0.3889  0.0089
  162MOL     C745409   7.202   5.376   5.628  0.4713 -0.2345  0.2101
  162MOL     C845410   7.295   5.371   5.527 -0.6856 -0.3044  0.0348
  162MOL     H945411   7.129   5.153   5.326  2.8272  1.9641 -1.6898
  162MOL    H1045412   6.967   5.166   5.520  0.4154  0.0082  1.5878
  162MOL    H1145413   6.892   5.273   5.706  0.2362 -0.9683 -0.2935
  162MOL    H1245414   7.102   5.403   5.887 -1.3369  1.8552  0.0301
  162MOL    H1345415   7.214   5.448   5.708 -2.2672  2.4186 -1.6618
  162MOL    H1445416   7.385   5.431   5.532 -2.0705  1.8758 -1.0050
  162MOL    H1545417   7.327   5.288   5.321 -0.1395 -0.1105 -0.4265
  162MOL    C1645418   6.901   5.373   5.966 -0.2252 -0.8737  0.0039
  162MOL    C1745419   6.765   5.352   5.952  0.6484 -0.1830 -0.2997
  162MOL    C1845420   6.668   5.369   6.049 -0.1556  0.5015 -0.4672
  162MOL    C1945421   6.711   5.408   6.174  0.1473 -0.7832  0.0344
  162MOL    C2045422   6.619   5.426   6.280  0.2334  0.1508 -0.0206
  162MOL    C2145423   6.639   5.449   6.408 -0.1409  0.1251  0.1067
  162MOL    C2245424   6.847   5.433   6.195  0.0743  0.3912 -0.5339
  162MOL    C2345425   6.940   5.412   6.096  0.4850 -0.2599 -0.1025
  162MOL    H2445426   6.730   5.313   5.857  0.1745  0.4213 -0.3807
  162MOL    H2545427   6.562   5.355   6.034  0.0356 -0.5923 -0.8404
  162MOL    H2645428   6.520   5.413   6.240 -0.6778  1.2206  1.8015
  162MOL    H2745429   6.738   5.457   6.449 -0.5502  0.3210  1.0731
  162MOL    H2845430   6.877   5.465   6.294 -2.8901 -0.0231  0.5491
  162MOL    H2945431   7.041   5.446   6.113  0.5578  0.2812 -1.5362
  162MOL    C3045432   6.531   5.462   6.507 -0.2259 -0.2566  0.2925
  162MOL    C3145433   6.398   5.479   6.458 -0.4290 -0.1872 -0.0907
  162MOL    C3245434   6.294   5.491   6.555 -1.0503 -0.4344  0.6755
  162MOL    C3345435   6.323   5.494   6.693 -0.0446 -1.2009 -0.4286
  162MOL    C3445436   6.210   5.510   6.788  1.0171  0.2702 -0.2503
  162MOL    C3545437   6.202   5.497   6.924  0.2916  0.8779  0.3957
  162MOL    C3645438   6.456   5.482   6.737  0.8380 -0.5620  0.1384
  162MOL    C3745439   6.561   5.483   6.647  0.2381 -0.2596 -0.1079
  162MOL    H3845440   6.375   5.490   6.353 -0.6879  1.4748  0.1233
  162MOL    H3945441   6.190   5.511   6.536 -0.6690 -0.6168 -1.7311
  162MOL    H4045442   6.127   5.547   6.730  0.1368  0.8517  1.3539
  162MOL    H4145443   6.292   5.470   6.977  0.6583  1.8210  0.2667
  162MOL    H4245444   6.473   5.476   6.844 -1.6104 -2.0682  0.4873
  162MOL    H4345445   6.655   5.488   6.700  0.6332  0.7914 -0.8962
  162MOL    C4445446   6.087   5.521   7.013  0.5621 -0.9850  0.4345
  162MOL    C4545447   5.973   5.588   6.948  0.0312 -0.2939 -0.3321
  162MOL    C4645448   5.859   5.620   7.024 -0.2380  0.0883  0.7405
  162MOL    C4745449   5.857   5.584   7.168 -1.1854 -1.7071 -0.5184
  162MOL    C4845450   5.744   5.625   7.243  0.4427 -0.4362 -0.0358
  162MOL    C4945451   5.663   5.730   7.224 -0.3918  0.1120  0.5831
  162MOL    C5045452   5.965   5.513   7.223  0.0363 -0.1184 -0.5035
  162MOL    C5145453   6.080   5.492   7.148  0.3462 -0.0908  0.4342
  162MOL    H5245454   5.960   5.614   6.844 -0.1352  0.1164 -0.2130
  162MOL    H5345455   5.776   5.667   6.973 -0.5325 -0.4362  0.7361
  162MOL    H5445456   5.728   5.560   7.328 -0.7405 -1.7897 -1.2783
  162MOL    H5545457   5.682   5.783   7.133  1.6501 -1.7895 -0.1453
  162MOL    H5645458   5.950   5.475   7.322 -1.0524 -0.0274 -0.6248
  162MOL    H5745459   6.159   5.441   7.200 -0.7716 -2.2544  0.0679
  162MOL    C5845460   5.551   5.771   7.308  0.4423 -0.3936  0.3523
  162MOL    C5945461   5.479   5.880   7.264  0.3898  0.4445  0.1537
  162MOL    C6045462   5.374   5.937   7.339 -0.0950 -0.3678 -0.2045
  162MOL    C6145463   5.339   5.872   7.461  0.4341 -0.3329 -0.5173
  162MOL    C6245464   5.231   5.923   7.548  0.8898  0.3217 -0.6796
  162MOL    C6345465   5.128   5.997   7.503  0.3351 -0.0412 -0.4935
  162MOL    C6445466   5.412   5.762   7.508 -0.4062  0.0244  0.5462
  162MOL    C6545467   5.514   5.706   7.428 -0.5701  0.0175  0.1683
  162MOL    H6645468   5.511   5.931   7.174  0.6420  0.6283  0.3485
  162MOL    H6745469   5.328   6.031   7.312 -0.1427 -0.3146  0.0657
  162MOL    H6845470   5.242   5.903   7.654 -0.2083  0.6211 -0.5060
  162MOL    H6945471   5.131   6.019   7.397  2.3187 -2.8481 -1.0786
  162MOL    H7045472   5.399   5.714   7.603 -0.1466 -0.3658  0.3837
  162MOL    H7145473   5.586   5.631   7.456  0.8737  1.8346  1.3736
  162MOL    C7245474   5.010   6.060   7.567 -0.1029 -0.0473  0.3900
  162MOL    C7345475   4.922   6.148   7.497 -0.6545  0.0994 -0.2391
  162MOL    C7445476   4.810   6.206   7.552  0.3530 -0.3423 -0.1217
  162MOL    C7545477   4.771   6.176   7.686  0.6781 -0.1164 -0.2264
  162MOL    C7645478   4.647   6.238   7.748  1.0101 -0.5407 -0.5035
  162MOL    C7745479   4.544   6.302   7.685  0.1625  0.0530  0.2983
  162MOL    C7845480   4.844   6.083   7.761 -0.4297  0.4279 -0.4261
  162MOL    C7945481   4.965   6.026   7.699  0.4347 -0.5552  0.5409
  162MOL    H8045482   4.951   6.182   7.398 -1.9504  1.5600 -0.1349
  162MOL    H8145483   4.752   6.271   7.488  1.3289  1.0404  0.3673
  162MOL    H8245484   4.639   6.236   7.856  2.0555  0.0886 -0.4076
  162MOL    H8345485   4.547   6.321   7.579 -1.8469  0.4682  0.2908
  162MOL    H8445486   4.814   6.046   7.858  0.8190 -2.5694 -1.1481
  162MOL    H8545487   5.012   5.950   7.758  2.4410  0.7642  0.6918
  162MOL    C8645488   4.427   6.356   7.760  0.7900  0.0243 -0.5348
  162MOL    C8745489   4.410   6.353   7.901 -0.3428  0.2154 -0.3634
  162MOL    C8845490   4.292   6.406   7.953  0.0161 -0.6313 -0.9534
  162MOL    C8945491   4.193   6.472   7.876  0.3528 -0.4679 -0.4646
  162MOL    C9045492   4.090   6.559   7.938 -0.9499  0.3613 -0.3370
  162MOL    C9145493   3.981   6.621   7.884 -0.3649  0.5433  0.4740
  162MOL    C9245494   4.197   6.473   7.736 -0.5315 -0.1436 -0.8229
  162MOL    C9345495   4.315   6.411   7.680  0.1858  0.6424  0.3457
  162MOL    H9445496   4.483   6.297   7.957  0.5094 -0.2242 -1.8822
  162MOL    H9545497   4.281   6.428   8.059  0.2308  2.3199 -1.5055
  162MOL    H9645498   4.099   6.566   8.045  1.2810 -0.2981 -0.4594
  162MOL    H9745499   3.963   6.627   7.778 -2.1505  1.6106  0.8090
  162MOL    H9845500   4.118   6.511   7.674 -1.1542 -0.0676  0.0016
  162MOL    H9945501   4.314   6.406   7.572  0.7435  0.7950  0.3328
  162MOL   C10045502   3.882   6.698   7.959 -0.2397 -0.1191 -0.1083
  162MOL   C10145503   3.753   6.720   7.910 -0.2810  0.6754 -0.0147
  162MOL   C10245504   3.653   6.785   7.982  0.6167  0.4035  0.4854
  162MOL   C10345505   3.681   6.835   8.110 -0.6230  0.1494  0.6501
  162MOL   C10445506   3.575   6.908   0.035  0.2470  0.4224  0.0173
  162MOL   C10545507   3.590   6.984   0.142  1.0730 -0.3602 -0.0426
  162MOL   C10645508   3.816   6.823   0.014  0.4874 -0.0229 -0.1889
  162MOL   C10745509   3.911   6.755   8.089 -0.0124  0.4275  0.0447
  162MOL   H10845510   3.734   6.681   7.811 -1.8406  2.9998 -0.6842
  162MOL   H10945511   3.554   6.800   7.941  0.8453 -0.9889 -0.6159
  162MOL   H11045512   3.482   6.894   8.126  1.2580 -4.3866 -0.7075
  162MOL   H11145513   3.688   6.993   0.185  1.2190 -0.0732 -0.4338
  162MOL   H11245514   3.843   6.871   0.107 -2.6760 -1.2866  1.4724
  162MOL   H11345515   4.010   6.740   8.130 -0.5450  0.6086  1.4208
  162MOL   C11445516   3.476   7.070   0.206 -0.7211  0.0611  0.0359
  162MOL   C11545517   3.502   7.126   0.330 -0.3059  0.2434  0.0288
  162MOL   C11645518   3.405   7.201   0.399  0.5273  0.1533  0.8409
  162MOL   C11745519   3.272   7.213   0.342 -0.4062  0.2956  0.5596
  162MOL   C11845520   3.173   7.302   0.411 -0.6092  0.6519 -0.4679
  162MOL   C11945521   3.076   7.371   0.353  0.6105 -0.1110  0.0392
  162MOL   C12045522   3.244   7.152   0.216 -0.5293 -0.3656  0.0964
  162MOL   C12145523   3.346   7.083   0.148  0.4825  0.0147  0.3870
  162MOL   H12245524   3.602   7.117   0.369 -0.8714 -0.0983  1.4373
  162MOL   H12345525   3.432   7.260   0.486 -0.0618  1.6809  0.0061
  162MOL   H12445526   3.196   7.305   0.517 -1.0567 -0.3892 -0.3297
  162MOL   H12545527   3.076   7.375   0.245  0.1040  2.3085  0.1089
  162MOL   H12645528   3.147   7.161   0.169  0.8009  1.4353 -2.4357
  162MOL   H12745529   3.319   7.041   0.053 -1.4110  2.8454 -0.3808
  162MOL   C12845530   2.978   7.450   0.424 -0.1110  0.5704  0.0494
  162MOL   C12945531   2.869   7.513   0.357  0.3964 -0.6626 -0.4980
  162MOL   C13045532   2.771   7.593   0.429 -0.3387 -0.1300  0.1772
  162MOL   C13145533   2.791   7.620   0.562 -0.1795  0.5517  0.1767
  162MOL   C13245534   2.703   7.707   0.644 -0.4630 -0.8075 -0.4534
  162MOL   C13345535   2.605   7.787   0.601  0.3168  0.8253  0.5753
  162MOL   C13445536   2.898   7.557   0.627  0.5059  0.6510  0.4535
  162MOL   C13545537   2.981   7.471   0.563  0.2319 -0.0988  0.1270
  162MOL   H13645538   2.849   7.488   0.254  0.6795 -3.4430  0.0863
  162MOL   H13745539   2.689   7.626   0.368  1.3447 -0.0193 -2.0674
  162MOL   H13845540   2.730   7.709   0.749 -0.3541  0.0539 -0.4956
  162MOL   H13945541   2.596   7.802   0.495  0.9126  1.8584  0.6704
  162MOL   H14045542   2.901   7.557   0.735  2.1345  3.6226  0.4546
  162MOL   H14145543   3.058   7.415   0.615  0.3398  1.2380  1.4226
  162MOL   C14245544   2.515   7.875   0.676  0.0253  0.3138 -0.1170
  162MOL   C14345545   2.491   7.861   0.817  0.1398  0.6936  0.2428
  162MOL   C14445546   2.386   7.936   0.879 -0.0715  0.8335 -0.5017
  162MOL   C14545547   2.313   8.035   0.814 -0.3306  0.2971  1.0616
  162MOL   C14645548   2.206   8.113   0.882 -0.0619 -0.1805 -0.4472
  162MOL   C14745549   2.195   8.125   1.018 -0.0040 -0.4293  0.1211
  162MOL   C14845550   2.340   8.052   0.681 -1.1508 -0.2447 -0.1207
  162MOL   C14945551   2.440   7.978   0.611  0.2035  0.2999  0.1686
  162MOL   H15045552   2.545   7.796   0.884 -0.1167 -1.2457 -1.3882
  162MOL   H15145553   2.375   7.908   0.983  2.2431  0.2225 -0.3913
  162MOL   H15245554   2.128   0.008   0.818 -0.3790  0.1809  0.1531
  162MOL   H15345555   2.278   8.101   1.082  1.4946  0.2304 -1.5341
  162MOL   H15445556   2.281   8.126   0.629 -0.9321  0.3521  0.4625
  162MOL   H15545557   2.445   7.991   0.504 -0.4992 -0.8661 -0.0165
  162MOL   C15645558   2.081   0.040   1.082  1.1023  0.1773  0.0606
  162MOL   C15745559   2.009   0.145   1.022 -0.8327 -0.1584  0.2959
  162MOL   C15845560   1.908   0.207   1.096 -0.9310  0.2747  0.2457
  162MOL   C15945561   1.858   0.150   1.213 -0.1495  0.1646 -0.1528
  162MOL   C16045562   1.737   0.215   1.269 -0.1483 -0.3428 -0.5247
  162MOL   C16145563   1.684   0.162   1.377  0.7182 -0.0189  0.4782
  162MOL   C16245564   1.935   0.047   1.271  0.6843 -1.1146 -0.2085
  162MOL   C16345565   2.043   8.133   1.208  0.1408 -0.3982 -0.2417
  162MOL   H16445566   2.038   0.186   0.927  0.3064  0.8402  1.0649
  162MOL   H16545567   1.852   0.279   1.038 -0.2475  1.0982  0.5955
  162MOL   H16645568   1.698   0.305   1.224  2.5756  1.0297 -0.2110
  162MOL   H16745569   1.731   0.075   1.422 -1.7199 -2.4734 -1.4971
  162MOL   H16845570   1.904   0.009   1.368  2.5469 -0.3384  0.7128
  162MOL   H16945571   2.102   8.050   1.243 -0.5558 -0.3002  1.1644
  162MOL   C17045572   1.561   0.206   1.445 -0.0428 -0.0266  0.9041
  162MOL   C17145573   1.529   0.146   1.564  0.0151  0.3422 -0.2717
  162MOL   C17245574   1.410   0.170   1.633  0.3835 -0.0106 -0.5760
  162MOL   C17345575   1.323   0.269   1.584  0.4160 -0.3392 -0.2175
  162MOL   C17445576   1.185   0.277   1.628 -0.2441 -0.2615  0.6521
  162MOL   C17545577   1.086   0.336   1.560 -0.5636 -0.2331 -0.0019
  162MOL   C17645578   1.360   0.347   1.473  0.5017  0.2570  0.1473
  162MOL   C17745579   1.475   0.307   1.403 -1.2089 -0.0925  0.1555
  162MOL   H17845580   1.591   0.069   1.608  0.5801  1.1464  0.3694
  162MOL   H17945581   1.383   0.121   1.725 -0.5768  2.0202  0.2536
  162MOL   H18045582   1.170   0.239   1.728 -0.1401  0.2358  0.8603
  162MOL   H18145583   1.108   0.374   1.461 -0.9213  0.0236  0.0184
  162MOL   H18245584   1.304   0.433   1.440 -1.7679 -0.7603  1.2843
  162MOL   H18345585   1.488   0.365   1.313 -0.6885 -0.4299  0.0111
  162MOL   C18445586   0.941   0.350   1.603 -0.6009 -0.4483  0.3503
  162MOL   C18545587   0.859   0.444   1.529  0.2534 -0.1205  0.2517
  162MOL   C18645588   0.724   0.448   1.555  0.4911  0.2628  0.0258
  162MOL   C18745589   0.662   0.379   1.659  0.5849 -0.5419 -0.1514
  162MOL   C18845590   0.517   0.384   1.677  0.7675 -0.1383 -0.0017
  162MOL   C18945591   0.425   0.439   1.593  0.3996 -1.0436  0.3554
  162MOL   C19045592   0.742   0.298   1.741  0.4641 -0.4828 -0.1884
  162MOL   C19145593   0.878   0.285   1.711  0.1825  0.1505  0.5210
  162MOL   H19245594   0.897   0.512   1.455 -0.4267 -0.7716 -0.7066
  162MOL   H19345595   0.664   0.513   1.493  0.6667  0.8407  0.4552
  162MOL   H19445596   0.485   0.336   1.769  0.0562  0.8323  0.2559
  162MOL   H19545597   0.455   0.496   1.506 -2.0191 -1.0378 -0.5164
  162MOL   H19645598   0.709   0.244   1.829 -1.0533 -1.6860 -1.4675
  162MOL   H19745599   0.931   0.221   1.781  1.7811  1.3046  0.3836
  162MOL   C19845600   0.280   0.443   1.618 -0.4588  0.5861  0.7651
  162MOL   C19945601   0.204   0.520   1.534 -0.1673  0.1809  0.7293
  162MOL   C20045602   0.063   0.522   1.538  0.0039 -0.2477 -0.0535
  162MOL   C20145603   8.139   0.438   1.625  0.5306 -0.4875 -0.6152
  162MOL   C20245604   7.991   0.428   1.614  0.0024 -0.3125 -0.4779
  162MOL   C20345605   7.923   0.477   1.512  0.2613 -0.1467 -0.9478
  162MOL   C20445606   0.071   0.365   1.715  0.6845  0.5549  0.8382
  162MOL   C20545607   0.213   0.364   1.717  0.6733 -0.3810  0.3310
  162MOL   H20645608   0.246   0.582   1.457 -0.3128  0.5382  0.9338
  162MOL   H20745609   0.020   0.587   1.463  0.9523  2.4724  1.6698
  162MOL   H20845610   7.935   0.379   1.692  0.3569  0.0879  0.0296
  162MOL   H20945611   7.971   0.525   1.428  1.9938  1.3421  0.8592
  162MOL   H21045612   0.006   0.303   1.774 -1.7436 -0.6259 -2.9101
  162MOL   H21145613   0.268   0.305   1.788  1.8688  0.9888  0.5749
  162MOL   C21245614   7.774   0.468   1.489  0.0134 -0.7152  0.1199
  162MOL   C21345615   7.727   0.551   1.390  1.3163  0.1629  1.3502
  162MOL   C21445616   7.587   0.558   1.363  0.3639 -0.7311  0.2743
  162MOL   C21545617   7.497   0.477   1.429 -0.0115 -0.3841 -0.5462
  162MOL   C21645618   7.353   0.470   1.402 -0.1645  0.2378  0.2469
  162MOL   C21745619   7.293   0.540   1.299 -0.7389 -0.1604 -0.2928
  162MOL   C21845620   7.550   0.387   1.523  0.3600 -0.2422 -0.4742
  162MOL   C21945621   7.690   0.381   1.558 -0.0112  0.3124  0.4733
  162MOL   H22045622   7.791   0.624   1.341 -0.7599  0.8659 -0.4120
  162MOL   H22145623   7.547   0.631   1.294  2.0083  0.1688  0.2350
  162MOL   H22245624   7.291   0.408   1.465 -0.3011  0.2670  0.1416
  162MOL   H22345625   7.347   0.613   1.240 -0.9072  0.8942  0.8291
  162MOL   H22445626   7.495   0.303   1.564 -0.7231  0.9459  0.5858
  162MOL   H22545627   7.716   0.308   1.633 -2.5769 -0.9934  0.1725
  162MOL   C22645628   7.155   0.539   1.254 -0.0916 -0.2709 -0.2522
  162MOL   C22745629   7.048   0.468   1.316 -0.1770  0.4772  0.0873
  162MOL   C22845630   6.917   0.472   1.265 -0.1926 -0.5162  0.3584
  162MOL   C22945631   6.890   0.552   1.152  0.1208  0.4462 -0.3948
  162MOL   C23045632   6.751   0.558   1.103 -0.6386 -0.2245 -0.6363
  162MOL   C23145633   6.708   0.643   1.000  0.8534 -0.1176  0.0160
  162MOL   C23245634   6.995   0.625   1.091  0.2630 -0.7538 -0.8311
  162MOL   C23345635   7.125   0.619   1.142  0.0377 -0.3147 -0.0330
  162MOL   H23445636   7.074   0.410   1.403  0.9142 -0.9371 -1.1519
  162MOL   H23545637   6.839   0.421   1.319  0.5986  1.0626  3.0730
  162MOL   H23645638   6.677   0.490   1.142 -1.7299  1.3448  0.0513
  162MOL   H23745639   6.772   0.713   0.947  0.1825  1.1654  0.8770
  162MOL   H23845640   6.981   0.686   1.002 -1.6692 -0.7063 -0.5109
  162MOL   H23945641   7.203   0.678   1.097  0.2544 -1.6878 -1.5237
  162MOL   C24045642   6.564   0.647   0.955  0.4488  0.2587  0.5555
  162MOL   C24145643   6.527   0.752   0.864 -0.2021 -0.0399 -0.3212
  162MOL   C24245644   6.400   0.762   0.805  0.2533  0.0090  0.1460
  162MOL   C24345645   6.299   0.672   0.835 -0.5479  0.0333 -0.9023
  162MOL   C24445646   6.172   0.689   0.765 -0.4091 -0.4208 -0.1117
  162MOL   C24545647   6.053   0.626   0.800  0.2119 -0.1703  0.6285
  162MOL   C24645648   6.329   0.567   0.926  0.5801 -0.5613  0.1300
  162MOL   C24745649   6.462   0.555   0.982  0.0541 -0.5297  0.0053
  162MOL   H24845650   6.606   0.822   0.840 -1.1636  1.5136  0.9381
  162MOL   H24945651   6.376   0.841   0.735 -0.7647  0.6178  1.1553
  162MOL   H25045652   6.173   0.754   0.678  0.4736  0.6157  0.6536
  162MOL   H25145653   6.060   0.551   0.878  0.2972 -2.1271 -1.2258
  162MOL   H25245654   6.248   0.501   0.952 -0.5836  1.2644  1.2413
  162MOL   H25345655   6.475   0.468   1.046 -0.8782 -0.9330 -0.3494
  162MOL   C25445656   5.921   0.635   0.737  0.5453 -0.0706 -0.3938
  162MOL   C25545657   5.889   0.721   0.628 -0.2141  0.3028 -0.4950
  162MOL   C25645658   5.761   0.723   0.579  0.5030  0.7309  0.1282
  162MOL   C25745659   5.655   0.646   0.636  0.0404  0.5410  0.7019
  162MOL   C25845660   5.523   0.666   0.589  0.0068  0.5056 -0.4618
  162MOL   C25945661   5.408   0.674   0.662 -0.3978 -1.0066 -0.1872
  162MOL   C26045662   5.687   0.565   0.742 -0.4194 -0.6300 -0.6681
  162MOL   C26145663   5.817   0.565   0.798 -0.3318 -0.3587  0.3128
  162MOL   H26245664   5.960   0.792   0.588  2.1748 -1.4182  0.5241
  162MOL   H26345665   5.751   0.799   0.504 -0.1716  0.7133  0.1980
  162MOL   H26445666   5.515   0.668   0.481 -0.2055 -1.9454 -0.5030
  162MOL   H26545667   5.318   0.685   0.602  0.9486  1.7612 -1.7940
  162MOL   H26645668   5.610   0.505   0.789 -0.1260 -0.5505 -0.0777
  162MOL   H26745669   5.837   0.504   0.885  1.5640  0.4641  0.4807
  162MOL   C26845670   5.388   0.662   0.806 -0.2461  0.1390 -0.5110
  162MOL   C26945671   5.293   0.578   0.869  0.0448 -0.0617  0.5389
  162MOL   C27045672   5.299   0.555   1.010 -0.1116  0.0739 -1.3012
  162MOL   C27145673   5.390   0.621   1.089 -0.0058  0.2759 -0.4339
  162MOL   C27245674   5.395   0.591   1.232  0.7676  0.1207  0.3741
  162MOL   C27345675   5.508   0.553   1.301  0.2795 -0.6838  0.2403
  162MOL   C27445676   5.472   0.710   1.023  0.3316 -0.0634 -0.1768
  162MOL   C27545677   5.481   0.726   0.888 -0.1837  0.0911 -0.2395
  162MOL   H27645678   5.212   0.532   0.815 -1.6934  0.2416  2.7783
  162MOL   H27745679   5.223   0.486   1.042  1.6807 -0.2595  2.4947
  162MOL   H27845680   5.301   0.595   1.285 -1.2292  1.5482 -3.0954
  162MOL   H27945681   5.608   0.553   1.262  1.2144  0.3671  2.5716
  162MOL   H28045682   5.543   0.775   1.073 -2.0209  1.3888  1.3885
  162MOL   H28145683   5.550   0.800   0.849  1.1279 -1.6585 -1.2798
  162MOL   H28245684   5.488   0.525   1.404  2.9173 -0.7233  0.7640
  163MOL     C145685   4.825   0.772   4.264 -0.2633 -0.0130 -1.1357
  163MOL     C245686   4.808   0.695   4.375  0.6674  0.0912  0.1507
  163MOL     C345687   4.907   0.622   4.432 -0.1474 -0.5425 -0.6633
  163MOL     C445688   5.032   0.620   4.375 -0.1661  0.1082 -0.2763
  163MOL     C545689   5.129   0.526   4.424 -1.0579  0.7054 -0.6336
  163MOL     C645690   5.263   0.531   4.403  0.1950 -0.4564  0.8760
  163MOL     C745691   5.059   0.698   4.261 -0.6573 -0.1609 -0.0916
  163MOL     C845692   4.954   0.785   4.210  0.6826  0.7153  0.6196
  163MOL     H945693   4.705   0.680   4.408  0.5799 -0.8574 -0.5370
  163MOL    H1045694   4.908   0.571   4.528 -0.0831 -2.0258 -1.4429
  163MOL    H1145695   5.093   0.450   4.491  0.6092  0.8608  0.4643
  163MOL    H1245696   5.299   0.610   4.339 -1.0695 -0.5262  0.0753
  163MOL    H1345697   5.158   0.709   4.218 -0.7145 -0.2587 -0.2520
  163MOL    H1445698   4.975   0.840   4.120  1.1350  0.5023  0.5900
  163MOL    H1545699   4.738   0.825   4.227  0.1167  0.4046 -1.4292
  163MOL    C1645700   5.349   0.431   4.454 -0.7658  0.3560 -0.1146
  163MOL    C1745701   5.485   0.450   4.420 -0.5555  0.7890  0.8146
  163MOL    C1845702   5.586   0.375   4.478 -0.3614 -0.5194  0.3491
  163MOL    C1945703   5.549   0.267   4.560  0.2762  0.5363  0.1925
  163MOL    C2045704   5.643   0.167   4.634 -0.4445 -0.0076 -0.5601
  163MOL    C2145705   5.773   0.193   4.648 -0.3100 -0.2599  0.3344
  163MOL    C2245706   5.416   0.248   4.601 -0.0080 -0.1452  0.3056
  163MOL    C2345707   5.313   0.329   4.544  0.1432  0.1462  0.3158
  163MOL    H2445708   5.524   0.535   4.367  2.3482 -1.4978 -0.8671
  163MOL    H2545709   5.691   0.391   4.464 -0.1864 -2.4396 -0.7757
  163MOL    H2645710   5.601   0.074   4.670 -1.7270  0.1997 -1.4586
  163MOL    H2745711   5.822   0.282   4.613  3.2988 -2.3221 -0.1935
  163MOL    H2845712   5.388   0.167   4.668  1.1850 -0.2712  0.6612
  163MOL    H2945713   5.212   0.306   4.574 -0.6049 -1.8119 -3.5079
  163MOL    C3045714   5.876   0.112   4.721 -0.1219  0.4765  0.9370
  163MOL    C3145715   5.994   0.171   4.771  0.0675  0.5246 -0.0773
  163MOL    C3245716   6.098   0.104   4.829  0.5773  0.6270 -0.3499
  163MOL    C3345717   6.080   8.114   4.856  0.2359 -0.7291 -0.0746
  163MOL    C3445718   6.182   8.044   4.929 -0.2081  0.6707  0.8022
  163MOL    C3545719   6.316   8.065   4.917  0.6737  0.7703  0.6346
  163MOL    C3645720   5.963   8.047   4.812 -0.0046 -0.3914  0.3041
  163MOL    C3745721   5.856   8.120   4.757 -0.3981  0.2135  0.0986
  163MOL    H3845722   6.012   0.275   4.748  1.7415  0.3696  0.4897
  163MOL    H3945723   6.180   0.161   4.870 -1.4214  0.8301  3.6734
  163MOL    H4045724   6.149   7.966   4.996  1.5447  0.7123  1.7448
  163MOL    H4145725   6.355   8.142   4.851  1.0124  0.6759  0.7256
  163MOL    H4245726   5.956   7.943   4.838 -0.1370 -0.6250 -0.6626
  163MOL    H4345727   5.768   8.067   4.725 -0.5625 -0.2108  1.2400
  163MOL    C4445728   6.419   7.988   4.998 -0.4802  0.2851 -0.0933
  163MOL    C4545729   6.386   7.862   5.053 -0.1448  0.1879  0.8073
  163MOL    C4645730   6.479   7.801   5.136  0.0132 -0.3743 -0.1684
  163MOL    C4745731   6.600   7.860   5.175  0.1450 -0.5008  0.5956
  163MOL    C4845732   6.685   7.803   5.282 -0.6662 -0.1740 -0.2355
  163MOL    C4945733   6.650   7.703   5.365 -0.6813  0.3976  0.2798
  163MOL    C5045734   6.631   7.985   5.119 -0.3161 -0.2230  0.1986
  163MOL    C5145735   6.541   8.049   5.026 -0.2181 -0.4608  0.0867
  163MOL    H5245736   6.297   7.807   5.028  0.4236  0.5907 -2.2952
  163MOL    H5345737   6.441   7.713   5.185 -0.2014  0.4105  1.1032
  163MOL    H5445738   6.783   7.844   5.294 -1.1272  0.9470 -0.2518
  163MOL    H5545739   6.554   7.656   5.353 -1.0068  1.1242  0.0362
  163MOL    H5645740   6.722   8.034   5.151  0.7702 -1.1156 -1.5148
  163MOL    H5745741   6.566   0.002   4.986 -2.3641  0.8781  1.9296
  163MOL    C5845742   6.731   7.659   5.476 -0.6187 -0.4968 -0.7122
  163MOL    C5945743   6.847   7.725   5.525  0.1464 -0.0515 -0.3890
  163MOL    C6045744   6.924   7.678   5.634  0.1683 -0.7444 -0.9417
  163MOL    C6145745   6.882   7.562   5.703 -0.3135 -0.2844 -0.1557
  163MOL    C6245746   6.953   7.504   5.814 -0.8628  0.2021 -0.6984
  163MOL    C6345747   7.075   7.551   5.870  0.0230  0.3433 -0.4749
  163MOL    C6445748   6.770   7.495   5.656 -0.5834 -0.4337 -0.4878
  163MOL    C6545749   6.695   7.538   5.541  0.5358  0.1537  0.5416
  163MOL    H6645750   6.881   7.821   5.489  0.1636 -0.1535 -0.6454
  163MOL    H6745751   7.013   7.730   5.664 -0.3621 -0.6977  0.6289
  163MOL    H6845752   6.906   7.421   5.864  0.4863 -0.6916 -0.9069
  163MOL    H6945753   7.122   7.638   5.826  2.9869 -1.0659 -0.2055
  163MOL    H7045754   6.743   7.401   5.703 -1.3057 -0.7594 -1.5463
  163MOL    H7145755   6.608   7.484   5.506 -0.2376  2.3968 -1.0846
  163MOL    C7245756   7.142   7.482   5.978 -0.0306  0.6051  0.0163
  163MOL    C7345757   7.286   7.473   5.981  0.2350 -0.1194  0.5076
  163MOL    C7445758   7.338   7.374   6.070 -0.4598  0.8471 -0.2852
  163MOL    C7545759   7.262   7.316   6.174 -0.3094 -0.4615 -0.2966
  163MOL    C7645760   7.338   7.235   6.271  0.1634  0.3395 -0.1138
  163MOL    C7745761   7.278   7.157   6.365  0.4487  0.3065  0.5797
  163MOL    C7845762   7.122   7.341   6.180  0.3788 -0.2966  0.3414
  163MOL    C7945763   7.059   7.419   6.076  0.0170  0.1426 -0.5196
  163MOL    H8045764   7.345   7.516   5.902 -1.6963  0.4051 -0.6887
  163MOL    H8145765   7.444   7.356   6.064 -0.8644 -0.9674 -3.1862
  163MOL    H8245766   7.444   7.235   6.252  0.1029 -0.4960 -0.5101
  163MOL    H8345767   7.171   7.146   6.369  0.4506 -0.6638 -1.4032
  163MOL    H8445768   7.067   7.304   6.265  1.7959 -1.0158  0.9564
  163MOL    H8545769   6.953   7.440   6.076 -0.3314 -1.5565 -0.6203
  163MOL    C8645770   7.354   7.063   6.450 -0.5458 -0.4987 -0.0206
  163MOL    C8745771   7.308   7.040   6.578  0.5410  0.2287 -1.1742
  163MOL    C8845772   7.376   6.943   6.663  0.2437  0.0945  0.2568
  163MOL    C8945773   7.496   6.880   6.620  0.0749  0.6013 -0.2423
  163MOL    C9045774   7.562   6.786   6.706 -0.2137  0.3253 -0.2658
  163MOL    C9145775   7.694   6.755   6.696  0.1031  0.2427  0.0684
  163MOL    C9245776   7.553   6.922   6.492  0.2651 -0.6404  0.4234
  163MOL    C9345777   7.481   7.016   6.416  0.5614  0.3713 -0.2411
  163MOL    H9445778   7.214   7.079   6.615  0.7516 -2.6427  2.7343
  163MOL    H9545779   7.341   6.911   6.760  0.4587 -0.5125  0.1386
  163MOL    H9645780   7.501   6.732   6.776  0.5154  1.0780  0.9841
  163MOL    H9745781   7.755   6.789   6.613 -0.1036 -0.3895 -0.3440
  163MOL    H9845782   7.646   6.875   6.463  0.0061 -1.7007  1.2877
  163MOL    H9945783   7.526   7.043   6.321 -0.0667  0.4891 -0.5063
  163MOL   C10045784   7.769   6.664   6.785  0.3978 -0.4794  0.3461
  163MOL   C10145785   7.698   6.587   6.882  0.1402 -0.4747  0.1404
  163MOL   C10245786   7.767   6.509   6.974 -0.5101 -0.1812  0.1866
  163MOL   C10345787   7.905   6.503   6.976 -0.7413  0.3883 -0.1910
  163MOL   C10445788   7.976   6.423   7.080 -0.0545 -0.1301  0.1491
  163MOL   C10545789   8.103   6.384   7.078 -0.2276  0.4451  0.6192
  163MOL   C10645790   7.977   6.584   6.879 -0.1990 -0.1218  0.3717
  163MOL   C10745791   7.909   6.658   6.782  0.7858  0.3255 -0.4193
  163MOL   H10845792   7.591   6.578   6.884  0.3958 -3.4699  2.0459
  163MOL   H10945793   7.722   6.462   7.060 -0.2501  0.5960  0.7493
  163MOL   H11045794   7.906   6.389   7.155 -0.7373 -2.0074 -1.2783
  163MOL   H11145795   0.020   6.414   6.994  1.0977 -0.1870  1.3469
  163MOL   H11245796   8.084   6.599   6.878  0.2815 -3.2797 -1.4126
  163MOL   H11345797   7.972   6.721   6.720  2.3948 -1.3010 -0.4637
  163MOL   C11445798   0.029   6.296   7.172 -0.2870 -0.6835 -0.1961
  163MOL   C11545799   0.171   6.270   7.160  0.4966 -0.7191 -0.0399
  163MOL   C11645800   0.239   6.193   7.256  1.0235 -0.1576 -0.4473
  163MOL   C11745801   0.172   6.144   7.371 -0.3627 -0.9081 -0.6417
  163MOL   C11845802   0.248   6.058   7.463 -0.1634 -0.4938 -0.1638
  163MOL   C11945803   0.190   5.978   7.558  0.1656  0.1494 -0.3396
  163MOL   C12045804   0.029   6.166   7.382 -0.9559 -0.4562 -0.2832
  163MOL   C12145805   8.109   6.245   7.288  0.1146  0.2298  0.1461
  163MOL   H12245806   0.227   6.300   7.072  1.2146 -0.6723  0.4231
  163MOL   H12345807   0.339   6.164   7.228  0.6897 -2.7307  0.8121
  163MOL   H12445808   0.355   6.062   7.456 -0.1682  0.5825  0.3137
  163MOL   H12545809   0.083   5.966   7.566  0.3701 -1.8678 -0.4954
  163MOL   H12645810   8.109   6.122   7.457 -2.5569 -0.0037 -1.3602
  163MOL   H12745811   8.002   6.249   7.307  0.4800 -1.2769  2.7542
  163MOL   C12845812   0.266   5.894   7.654 -0.3709  0.7614 -0.7867
  163MOL   C12945813   0.208   5.858   7.780  0.1219  0.7568  0.4339
  163MOL   C13045814   0.278   5.790   7.881  0.3936 -0.6321  1.1225
  163MOL   C13145815   0.412   5.755   7.854 -0.1364  0.3370  0.3461
  163MOL   C13245816   0.479   5.687   7.965  0.4640  0.5326 -0.3746
  163MOL   C13345817   0.599   5.636   7.954 -0.0043  0.0405 -0.4889
  163MOL   C13445818   0.477   5.786   7.735 -0.1324 -0.4267  0.3199
  163MOL   C13545819   0.406   5.867   7.639  0.3597  0.6802  0.5465
  163MOL   H13645820   0.102   5.872   7.794 -0.0707 -0.0676 -0.1983
  163MOL   H13745821   0.225   5.762   7.971  0.1337 -1.0248  0.8491
  163MOL   H13845822   0.432   5.678   8.062  0.5357  0.2658 -0.3640
  163MOL   H13945823   0.658   5.651   7.865  1.1195 -0.3681  0.1797
  163MOL   H14045824   0.583   5.763   7.729  0.0464  0.6415 -0.7983
  163MOL   H14145825   0.462   5.905   7.555 -0.1847 -1.7628 -0.9578
  163MOL   C14245826   0.662   5.560   8.060 -0.1119  0.4387 -0.2281
  163MOL   C14345827   0.632   5.572   0.052  0.0867  0.0767  0.3221
  163MOL   C14445828   0.682   5.482   0.150  0.3040 -0.4136  0.5491
  163MOL   C14545829   0.776   5.386   0.119 -0.3227  0.8687  0.2511
  163MOL   C14645830   0.832   5.305   0.228 -0.2685  0.6572 -0.7248
  163MOL   C14745831   0.940   5.222   0.215  0.5171 -0.3913  0.1338
  163MOL   C14845832   0.808   5.376   8.127  0.0082  0.7014  0.9123
  163MOL   C14945833   0.740   5.452   8.024  0.0104  0.7970 -0.1732
  163MOL   H15045834   0.564   5.653   0.076  0.4750  0.6430 -0.4398
  163MOL   H15145835   0.661   5.508   0.253 -1.3418 -0.1201  0.1449
  163MOL   H15245836   0.776   5.309   0.321  0.5788 -1.5289 -0.1047
  163MOL   H15345837   0.987   5.209   0.120 -0.2611  0.6480 -0.4048
  163MOL   H15445838   0.874   5.299   8.090  1.8105  2.2871  0.7214
  163MOL   H15545839   0.754   5.418   7.922  0.9225 -1.7866  0.7666
  163MOL   C15645840   1.003   5.140   0.319 -0.0890  0.5450  0.1546
  163MOL   C15745841   1.091   5.038   0.272 -0.0957 -0.3207  0.0442
  163MOL   C15845842   1.158   4.961   0.372  0.2433  0.0717 -0.5468
  163MOL   C15945843   1.146   4.996   0.507 -0.2760  0.0635  0.1286
  163MOL   C16045844   1.232   4.939   0.610  0.4325  0.3810  0.1500
  163MOL   C16145845   1.323   4.842   0.590 -0.6124  0.0060  0.0850
  163MOL   C16245846   1.059   5.096   0.549  0.4992 -0.4361 -0.1774
  163MOL   C16345847   0.981   5.164   0.455  0.6453 -0.0384  0.0831
  163MOL   H16445848   1.105   5.022   0.166 -0.1220  0.5792 -0.1032
  163MOL   H16545849   1.229   4.887   0.339 -0.0356  0.2844 -1.6425
  163MOL   H16645850   1.227   4.992   0.704 -2.1067  0.4318  0.0274
  163MOL   H16745851   1.332   4.786   0.498  0.5095  0.2411  0.0340
  163MOL   H16845852   1.051   5.122   0.654  0.0702  0.5094 -0.4344
  163MOL   H16945853   0.911   5.231   0.504 -0.9382 -2.3192  1.0656
  163MOL   C17045854   1.428   4.816   0.689  0.5937 -0.5794 -0.1709
  163MOL   C17145855   1.489   4.916   0.766  1.2885  1.0880  0.8258
  163MOL   C17245856   1.607   4.877   0.843 -0.4803 -0.4034 -0.4618
  163MOL   C17345857   1.635   4.739   0.863 -0.0779 -0.1259  0.1971
  163MOL   C17445858   1.757   4.688   0.931 -0.7130 -0.5436  0.4782
  163MOL   C17545859   1.867   4.763   0.965  0.0394  0.5565  0.5943
  163MOL   C17645860   1.554   4.641   0.798 -0.1425  0.3187 -1.1021
  163MOL   C17745861   1.455   4.678   0.711 -0.5044  0.5192  0.1268
  163MOL   H17845862   1.476   5.022   0.749 -0.0914  0.5942 -1.3780
  163MOL   H17945863   1.663   4.962   0.879 -1.7994  0.8611 -1.3012
  163MOL   H18045864   1.755   4.584   0.959 -0.7087 -0.3786  1.0989
  163MOL   H18145865   1.876   4.868   0.944  0.0283  0.3596 -0.4213
  163MOL   H18245866   1.580   4.538   0.812  0.8568  0.8005  0.7575
  163MOL   H18345867   1.391   4.604   0.666  0.0323  0.8293 -1.1554
  163MOL   C18445868   1.992   4.708   1.013 -0.0348  0.6891 -0.2274
  163MOL   C18545869   2.011   4.583   1.079 -0.8254  0.0298 -0.6854
  163MOL   C18645870   2.138   4.528   1.087 -0.5579  1.3080  0.0341
  163MOL   C18745871   2.249   4.597   1.033 -0.3027 -0.0457 -0.4543
  163MOL   C18845872   2.379   4.530   1.028 -0.8377  0.4687  0.7550
  163MOL   C18945873   2.503   4.581   1.018  0.1471 -0.1937 -0.6023
  163MOL   C19045874   2.231   4.727   0.992  0.2676  0.0748  0.2792
  163MOL   C19145875   2.107   4.783   0.979 -0.2041 -0.2619 -0.5807
  163MOL   H19245876   1.921   4.534   1.115  1.2034 -1.9449  1.8799
  163MOL   H19345877   2.151   4.438   1.145 -1.7193  2.5288  2.2963
  163MOL   H19445878   2.373   4.423   1.015  0.4345  0.7334 -2.5565
  163MOL   H19545879   2.511   4.689   1.015  2.5220 -0.3029  0.6693
  163MOL   H19645880   2.309   4.793   0.957 -0.2250 -0.2840 -1.5784
  163MOL   H19745881   2.099   4.875   0.923 -1.2227  1.3188  2.0558
  163MOL   C19845882   2.635   4.515   0.987 -0.4701  0.1397  0.4165
  163MOL   C19945883   2.645   4.380   0.965  0.3274 -0.0497 -0.4475
  163MOL   C20045884   2.764   4.324   0.917 -0.4522  0.1091  0.1191
  163MOL   C20145885   2.882   4.403   0.901  0.3373 -0.3932 -0.3771
  163MOL   C20245886   3.009   4.341   0.871 -0.4411 -0.0114 -0.3031
  163MOL   C20345887   3.101   4.401   0.790  0.2795 -0.2684  0.0309
  163MOL   C20445888   2.866   4.544   0.918 -0.1238 -0.3081 -0.1020
  163MOL   C20545889   2.744   4.601   0.955  0.7428 -0.0455  0.6442
  163MOL   H20645890   2.558   4.317   0.976 -1.2728  1.5993 -3.0555
  163MOL   H20745891   2.766   4.219   0.892  1.2728  0.1611 -0.0163
  163MOL   H20845892   3.039   4.249   0.920 -0.2675 -0.4119 -1.1522
  163MOL   H20945893   3.072   4.489   0.734 -0.2235  0.8106  1.9417
  163MOL   H21045894   2.951   4.610   0.925  0.5458 -1.1344 -0.3737
  163MOL   H21145895   2.729   4.707   0.971  1.3624 -0.3546  3.3993
  163MOL   C21245896   3.241   4.352   0.756  0.3235  0.6027  0.1419
  163MOL   C21345897   3.331   4.450   0.725  0.3250  0.2062 -0.3827
  163MOL   C21445898   3.468   4.419   0.700  0.3215 -0.1980 -0.2346
  163MOL   C21545899   3.517   4.287   0.707  0.5812 -0.1139  0.2011
  163MOL   C21645900   3.663   4.268   0.677 -0.0426  0.0152  0.5216
  163MOL   C21745901   3.725   4.151   0.670  0.4420  0.8626 -0.2652
  163MOL   C21845902   3.430   4.181   0.756  0.0767  0.0625 -0.2059
  163MOL   C21945903   3.290   4.215   0.774 -0.2672  0.3625  0.1821
  163MOL   H22045904   3.296   4.552   0.718  2.6010  1.0739  0.3506
  163MOL   H22145905   3.534   4.491   0.655 -0.6567  0.8181 -0.0495
  163MOL   H22245906   3.716   4.361   0.663  1.0860 -0.8704 -1.2089
  163MOL   H22345907   3.668   4.060   0.679  1.0760  0.2651 -1.9350
  163MOL   H22445908   3.460   4.081   0.782 -0.6990 -0.2644 -0.5400
  163MOL   H22545909   3.212   4.144   0.800  0.5958  0.2185  2.5614
  163MOL   C22645910   3.871   4.128   0.642  0.0111 -0.2766 -0.6939
  163MOL   C22745911   3.964   4.231   0.662  0.2158  0.6544  0.0378
  163MOL   C22845912   4.100   4.210   0.632 -0.2372  0.0509  0.2516
  163MOL   C22945913   4.144   4.081   0.583  0.4845 -0.2935  0.0147
  163MOL   C23045914   4.282   4.060   0.527  0.0726 -0.2027 -0.0993
  163MOL   C23145915   4.334   3.964   0.451  0.5233  0.7736  0.4836
  163MOL   C23245916   4.042   3.986   0.557  0.0417 -0.5847  0.3614
  163MOL   C23345917   3.906   4.006   0.579  0.2355 -0.0122 -0.2131
  163MOL   H23445918   3.933   4.326   0.703  0.6574  1.2319 -0.9570
  163MOL   H23545919   4.179   4.282   0.641  0.9664 -1.1842 -0.3432
  163MOL   H23645920   4.343   4.143   0.559 -1.0139  0.8082 -0.5992
  163MOL   H23745921   4.267   3.883   0.424  0.1397  1.4974 -0.7793
  163MOL   H23845922   4.069   3.888   0.520 -0.9187 -1.0547  0.8998
  163MOL   H23945923   3.834   3.933   0.548 -1.7486  2.7339 -2.2923
  163MOL   C24045924   4.472   3.953   0.411 -0.9068 -0.0601 -0.6619
  163MOL   C24145925   4.505   3.865   0.308 -0.3145 -0.1430 -0.1662
  163MOL   C24245926   4.641   3.857   0.268 -0.7964 -0.7465  0.0388
  163MOL   C24345927   4.741   3.935   0.322 -0.0936  0.4397  0.5412
  163MOL   C24445928   4.875   3.938   0.264  0.0275  0.2471  0.1470
  163MOL   C24545929   4.956   4.042   0.249  0.4803  0.2289  0.5085
  163MOL   C24645930   4.703   4.027   0.429  0.4599 -0.4281  0.0989
  163MOL   C24745931   4.569   4.030   0.472 -0.0954 -0.2950 -0.4066
  163MOL   H24845932   4.440   3.795   0.258  2.2107 -1.3129 -1.8712
  163MOL   H24945933   4.671   3.793   0.186 -0.8057  0.0934 -0.6262
  163MOL   H25045934   4.916   3.845   0.230 -1.0261 -0.4339  0.7122
  163MOL   H25145935   4.919   4.137   0.285  1.2427  0.8620 -0.3525
  163MOL   H25245936   4.785   4.088   0.466 -1.2204  1.2880  1.0539
  163MOL   H25345937   4.548   4.108   0.544 -0.0544  0.7675 -1.5227
  163MOL   C25445938   5.094   4.042   0.195  0.8088  0.0085  0.7208
  163MOL   C25545939   5.151   3.923   0.141  0.3100  0.1382 -0.5894
  163MOL   C25645940   5.284   3.930   0.100 -0.3337  0.8942  0.2389
  163MOL   C25745941   5.364   4.042   0.126  0.1526  1.0136 -0.5195
  163MOL   C25845942   5.513   4.038   0.105  0.5865 -0.0818  0.4641
  163MOL   C25945943   5.589   3.953   0.031 -0.0974  0.0725 -0.7052
  163MOL   C26045944   5.305   4.155   0.181 -0.0077 -0.4363  0.3607
  163MOL   C26145945   5.168   4.159   0.208 -0.3246  0.0548 -0.6238
  163MOL   H26245946   5.101   3.827   0.133 -0.8081  0.8112 -1.7751
  163MOL   H26345947   5.321   3.836   0.062 -1.8335 -0.6389  2.4646
  163MOL   H26445948   5.571   4.117   0.150  0.1674  0.3843  0.1916
  163MOL   H26545949   5.695   3.970   0.025  0.3024 -1.1190  2.2223
  163MOL   H26645950   5.375   4.231   0.211 -0.9250 -0.1322  1.7972
  163MOL   H26745951   5.121   4.243   0.259 -2.2333 -0.7968 -0.9361
  163MOL   C26845952   5.551   3.843   8.079  0.4234  0.4911  0.2613
  163MOL   C26945953   5.451   3.853   7.978  0.1815 -0.7071  0.5538
  163MOL   C27045954   5.426   3.748   7.887 -0.7240 -0.7058  0.0041
  163MOL   C27145955   5.494   3.624   7.907  0.8617 -0.1705  0.7992
  163MOL   C27245956   5.474   3.505   7.820  0.7180 -0.1659 -0.4415
  163MOL   C27345957   5.391   3.495   7.715  0.2896 -0.1600 -0.1906
  163MOL   C27445958   5.595   3.612   8.010 -0.6968  0.5477  0.2646
  163MOL   C27545959   5.619   3.725   8.088 -0.5126  0.0860 -0.3919
  163MOL   H27645960   5.395   3.945   7.979  0.5284 -0.4813 -0.9952
  163MOL   H27745961   5.348   3.773   7.816 -1.4258  1.6006  1.5289
  163MOL   H27845962   5.529   3.419   7.857 -1.4456 -0.8729  1.2740
  163MOL   H27945963   5.325   3.569   7.671 -0.2601 -1.3071 -1.3107
  163MOL   H28045964   5.643   3.517   8.030 -0.3889  0.6112 -0.1888
  163MOL   H28145965   5.685   3.720   0.029 -0.9892  2.3791  0.1314
  163MOL   H28245966   5.381   3.401   7.663  0.5534 -0.0894 -0.3667
  164MOL     C145967   0.246   4.078   0.060 -0.4279 -0.1627 -0.7655
  164MOL     C245968   0.165   4.066   0.175 -0.2342 -0.1578  0.5845
  164MOL     C345969   0.037   4.125   0.182 -0.1255 -0.7808 -0.4181
  164MOL     C445970   8.138   4.212   0.078  0.3922 -0.6017 -0.4355
  164MOL     C545971   8.003   4.266   0.093 -0.6023 -0.1027  0.3501
  164MOL     C645972   7.937   4.356   0.011 -0.2798 -0.0057 -0.3687
  164MOL     C745973   0.085   4.234   8.113 -0.9031 -0.8492 -0.3636
  164MOL     C845974   0.202   4.156   8.098 -0.4797 -0.2604 -0.3844
  164MOL     H945975   0.205   4.014   0.261  1.7772  0.7158  0.2011
  164MOL    H1045976   8.125   4.120   0.274 -1.2260 -1.8242 -1.1287
  164MOL    H1145977   7.945   4.226   0.175 -0.1783 -2.0696 -0.2739
  164MOL    H1245978   7.991   4.391   8.069 -0.8311  1.1892 -0.2289
  164MOL    H1345979   0.049   4.299   8.035 -2.9964 -1.6639 -0.0952
  164MOL    H1445980   0.265   4.162   8.010 -0.5080 -0.1708 -0.3993
  164MOL    H1545981   0.338   4.021   0.064 -0.4770 -0.1584  0.5812
  164MOL    C1645982   7.802   4.408   0.020 -0.1298 -0.3330 -0.0276
  164MOL    C1745983   7.708   4.356   0.110 -0.3652 -0.7561 -0.4923
  164MOL    C1845984   7.579   4.402   0.121 -0.1769 -0.2856 -0.1639
  164MOL    C1945985   7.551   4.514   0.047 -0.1188 -0.1174 -0.2020
  164MOL    C2045986   7.416   4.573   0.063  0.0537 -0.0957 -0.1273
  164MOL    C2145987   7.357   4.673   8.131  0.3551 -0.3107  0.0842
  164MOL    C2245988   7.650   4.579   8.113  0.1114 -0.2832  0.5156
  164MOL    C2345989   7.777   4.527   8.101 -0.9614  0.1553 -0.2096
  164MOL    H2445990   7.728   4.271   0.173 -3.0142  1.2806  3.3209
  164MOL    H2545991   7.505   4.358   0.185  0.3405  1.6972  1.8625
  164MOL    H2645992   7.368   4.528   0.149 -1.1497 -0.1790 -0.8406
  164MOL    H2745993   7.407   4.720   8.048  0.3340 -0.1773  0.1471
  164MOL    H2845994   7.634   4.674   8.063 -1.7847 -0.1917  1.2363
  164MOL    H2945995   7.859   4.578   8.052 -0.1157  0.1253  1.1256
  164MOL    C3045996   7.220   4.728   0.018  0.0329  0.4827  0.3479
  164MOL    C3145997   7.196   4.865   8.116 -0.1045 -0.2285 -0.0160
  164MOL    C3245998   7.084   4.939   0.007 -0.2452  0.1357 -0.0313
  164MOL    C3345999   6.984   4.880   0.087 -1.0931 -0.1563 -0.7692
  164MOL    C3446000   6.866   4.961   0.122  0.1634 -0.3245 -0.7194
  164MOL    C3546001   6.764   4.931   0.201 -0.5451 -0.5890 -0.3787
  164MOL    C3646002   7.002   4.744   0.128 -0.1060 -0.7179  0.2320
  164MOL    C3746003   7.117   4.669   0.097 -0.4315  0.3657 -1.0690
  164MOL    H3846004   7.262   4.909   8.043 -0.3602  1.6906  0.8952
  164MOL    H3946005   7.085   5.043   8.123  1.0666  0.5998  1.6343
  164MOL    H4046006   6.851   5.056   0.073 -3.2441 -0.4099  0.0255
  164MOL    H4146007   6.774   4.844   0.265 -1.4072 -2.0218 -2.1376
  164MOL    H4246008   6.933   4.697   0.195 -1.2384 -0.0823 -0.4755
  164MOL    H4346009   7.134   4.578   0.153 -0.6040  0.9639 -0.0185
  164MOL    C4446010   6.651   5.019   0.227 -0.3129 -0.1061 -0.0381
  164MOL    C4546011   6.530   4.964   0.267  0.2645  0.0413 -0.6661
  164MOL    C4646012   6.417   5.031   0.305  0.2043  0.1051  0.1872
  164MOL    C4746013   6.420   5.173   0.300 -0.9256  0.3459 -0.1771
  164MOL    C4846014   6.304   5.253   0.350 -0.1426 -0.3284  0.2908
  164MOL    C4946015   6.187   5.209   0.402  0.0139 -0.1168  0.0165
  164MOL    C5046016   6.536   5.237   0.251 -0.6262 -0.2154 -0.2101
  164MOL    C5146017   6.652   5.165   0.219  0.1230  0.3474 -1.1028
  164MOL    H5246018   6.523   4.856   0.269 -0.4770  0.0896 -0.5249
  164MOL    H5346019   6.329   4.975   0.333 -0.4090  0.4994 -0.9244
  164MOL    H5446020   6.325   5.357   0.327  2.4277 -1.1973 -1.6417
  164MOL    H5546021   6.174   5.105   0.427 -2.6210 -0.2559 -1.6990
  164MOL    H5646022   6.545   5.344   0.265 -0.9558 -0.3463  1.0489
  164MOL    H5746023   6.743   5.216   0.192 -0.2066  0.4043 -2.1066
  164MOL    C5846024   6.064   5.295   0.432 -0.7719  0.0570  0.2011
  164MOL    C5946025   5.948   5.236   0.481 -0.0511 -0.6019  0.0987
  164MOL    C6046026   5.840   5.314   0.523 -0.3848 -0.1071 -0.0001
  164MOL    C6146027   5.840   5.453   0.518  0.0953  0.3571 -0.4634
  164MOL    C6246028   5.722   5.539   0.541 -0.3048 -0.2037  0.2728
  164MOL    C6346029   5.600   5.499   0.585  1.2216  0.0651 -0.8342
  164MOL    C6446030   5.955   5.516   0.464  0.5413  0.0247 -0.6540
  164MOL    C6546031   6.066   5.435   0.426 -0.3109 -0.3615 -0.4063
  164MOL    H6646032   5.936   5.131   0.503  1.1418 -0.5046  1.2995
  164MOL    H6746033   5.759   5.257   0.566  1.2495 -1.5910  1.2022
  164MOL    H6846034   5.740   5.645   0.530 -1.7497  0.1027  0.6765
  164MOL    H6946035   5.587   5.396   0.616 -1.6803  0.2920 -1.1535
  164MOL    H7046036   5.966   5.622   0.450  1.2118  0.0615  0.1788
  164MOL    H7146037   6.157   5.485   0.392 -1.4492  2.0457 -0.0346
  164MOL    C7246038   5.480   5.588   0.611  0.5925  0.0886  0.4724
  164MOL    C7346039   5.478   5.728   0.580  0.3607 -0.0371  0.1740
  164MOL    C7446040   5.366   5.808   0.608 -0.1677  0.0231  0.1701
  164MOL    C7546041   5.250   5.745   0.654 -0.2709 -0.7067 -0.2100
  164MOL    C7646042   5.131   5.829   0.678  0.6660 -1.1236  0.0106
  164MOL    C7746043   5.001   5.802   0.662  0.2893  0.7002  0.1367
  164MOL    C7846044   5.243   5.602   0.669  0.3095 -0.5044  0.0730
  164MOL    C7946045   5.361   5.526   0.653  0.9073  0.5760  0.1415
  164MOL    H8046046   5.564   5.784   0.544  0.1134  1.7829  2.2732
  164MOL    H8146047   5.361   5.912   0.578  1.7958  0.1502  0.1965
  164MOL    H8246048   5.139   5.926   0.723 -0.3851 -1.4297  0.8787
  164MOL    H8346049   4.964   5.710   0.619  2.5808 -0.7878  1.2281
  164MOL    H8446050   5.158   5.547   0.705 -0.8014  0.1065 -1.5893
  164MOL    H8546051   5.356   5.418   0.661  4.6221  0.4288  1.6029
  164MOL    C8646052   4.889   5.892   0.691  0.5061 -0.5859 -0.5068
  164MOL    C8746053   4.906   6.024   0.743 -0.7392 -0.0392 -0.3950
  164MOL    C8846054   4.791   6.103   0.778 -0.2802  0.5066  0.3411
  164MOL    C8946055   4.662   6.056   0.759  0.4193 -0.0376  0.9924
  164MOL    C9046056   4.563   6.153   0.782 -0.0067 -0.2815 -0.3633
  164MOL    C9146057   4.430   6.145   0.750 -0.1233 -0.4092 -0.1695
  164MOL    C9246058   4.640   5.926   0.717  0.4446 -0.0853  0.0018
  164MOL    C9346059   4.752   5.852   0.676  0.5708 -1.0600  0.1738
  164MOL    H9446060   5.003   6.072   0.749  0.4451 -2.3963 -0.0641
  164MOL    H9546061   4.810   6.204   0.810 -0.3742  0.7866 -0.4764
  164MOL    H9646062   4.600   6.245   0.824 -0.5049  0.5419 -1.6924
  164MOL    H9746063   4.397   6.061   0.690  0.0198  0.6597 -1.7760
  164MOL    H9846064   4.542   5.881   0.711  1.1747 -1.7994  0.6239
  164MOL    H9946065   4.726   5.750   0.650  2.5579 -1.6809  0.5106
  164MOL   C10046066   4.327   6.242   0.785 -0.8184  0.1146 -0.0466
  164MOL   C10146067   4.200   6.218   0.723  0.4067 -0.0634 -0.2859
  164MOL   C10246068   4.088   6.303   0.734 -0.5028 -0.5311 -0.5363
  164MOL   C10346069   4.092   6.400   0.839  0.1016  0.3493  0.6168
  164MOL   C10446070   3.968   6.473   0.874  0.0748  0.6063  0.3131
  164MOL   C10546071   3.842   6.441   0.840  0.4391  0.1393 -0.7531
  164MOL   C10646072   4.216   6.424   0.913 -0.2798  0.4764  0.1430
  164MOL   C10746073   4.333   6.348   0.880 -0.2757 -0.1166  0.2147
  164MOL   H10846074   4.188   6.130   0.662  2.0368 -0.5324  0.0445
  164MOL   H10946075   4.002   6.282   0.672 -0.3222 -1.5340 -0.4435
  164MOL   H11046076   3.984   6.566   0.925 -0.5917  1.6768 -1.3776
  164MOL   H11146077   3.827   6.349   0.787 -1.3405  0.5250 -0.9618
  164MOL   H11246078   4.215   6.501   0.988 -0.7494  2.8016 -2.1432
  164MOL   H11346079   4.431   6.366   0.920 -0.9883 -0.5768  2.2371
  164MOL   C11446080   3.723   6.529   0.876  0.4738 -0.0755 -0.3116
  164MOL   C11546081   3.730   6.636   0.966  0.2009 -0.6109 -0.1013
  164MOL   C11646082   3.611   6.708   1.000  0.0531  0.7204 -0.3398
  164MOL   C11746083   3.482   6.685   0.938 -0.5001 -0.5261  0.3864
  164MOL   C11846084   3.362   6.762   0.958 -0.0658 -0.1981 -0.1548
  164MOL   C11946085   3.347   6.854   1.060  0.6811 -0.2351 -0.2919
  164MOL   C12046086   3.484   6.585   0.835  0.9701  0.1817 -0.4171
  164MOL   C12146087   3.595   6.502   0.814  0.4633 -0.4320  0.3871
  164MOL   H12246088   3.827   6.659   1.008  1.3206 -0.1124 -2.8689
  164MOL   H12346089   3.617   6.787   1.073 -1.4270  0.8114 -0.2975
  164MOL   H12446090   3.284   6.745   0.886 -0.0181  0.4993 -0.3789
  164MOL   H12546091   3.419   6.873   1.138  0.8687 -0.0063 -0.5200
  164MOL   H12646092   3.394   6.574   0.776  0.2412  0.6598  0.5938
  164MOL   H12746093   3.592   6.425   0.738  2.3899  0.0661 -0.2272
  164MOL   C12846094   3.229   6.946   1.070 -0.5333  0.1367 -0.7381
  164MOL   C12946095   3.132   6.968   0.969 -0.2611 -0.1186  1.3542
  164MOL   C13046096   3.023   7.063   0.982 -0.3323 -0.2697  0.4405
  164MOL   C13146097   3.002   7.121   1.111 -0.1039  0.3174  0.3060
  164MOL   C13246098   2.887   7.213   1.126  0.5045  0.6477  0.0434
  164MOL   C13346099   2.821   7.282   1.033 -0.3265  0.8847  0.2305
  164MOL   C13446100   3.091   7.094   1.212 -0.3086 -0.2849  0.3321
  164MOL   C13546101   3.208   7.014   1.194 -0.3004 -0.0685 -0.4518
  164MOL   H13646102   3.151   6.906   0.882 -1.8660 -1.8882  2.2388
  164MOL   H13746103   2.974   7.092   0.891  0.0830 -1.1402 -0.0626
  164MOL   H13846104   2.852   7.218   1.228 -1.8891  0.4030 -0.7293
  164MOL   H13946105   2.853   7.267   0.931 -2.4042 -1.5014 -0.1250
  164MOL   H14046106   3.087   7.149   1.305  0.1484  0.4244 -0.0638
  164MOL   H14146107   3.274   6.991   1.276 -0.0246  0.6241 -0.4804
  164MOL   C14246108   2.699   7.364   1.051  0.0965 -0.9784 -0.3587
  164MOL   C14346109   2.636   7.386   1.178  0.8197 -0.4598  0.5946
  164MOL   C14446110   2.515   7.458   1.197  0.3917 -0.0304 -0.1368
  164MOL   C14546111   2.454   7.512   1.084  0.2590 -0.5568  0.1466
  164MOL   C14646112   2.333   7.590   1.098  0.3393 -0.9827 -1.0332
  164MOL   C14746113   2.268   7.632   1.215 -0.2432  0.5212  0.2077
  164MOL   C14846114   2.517   7.508   0.959  0.3276 -0.4770 -0.1809
  164MOL   C14946115   2.642   7.440   0.944  0.6548  0.0678  0.3300
  164MOL   H15046116   2.686   7.345   1.265 -0.7351 -3.4073  0.1488
  164MOL   H15146117   2.483   7.470   1.299  3.2648 -1.7085  1.0437
  164MOL   H15246118   2.282   7.625   1.009 -3.4779  0.5273  1.6129
  164MOL   H15346119   2.314   7.604   1.308  2.0695  0.1481 -1.0100
  164MOL   H15446120   2.481   7.560   0.872  0.0635 -0.0372  0.1853
  164MOL   H15546121   2.703   7.458   0.857  0.4893  1.8359  0.5594
  164MOL   C15646122   2.139   7.697   1.220  0.6132 -0.3907 -0.4121
  164MOL   C15746123   2.047   7.682   1.114 -0.1618 -0.8939  0.2385
  164MOL   C15846124   1.920   7.739   1.126 -0.0783  0.0982 -0.3797
  164MOL   C15946125   1.881   7.809   1.242 -0.1987  0.4115 -0.3617
  164MOL   C16046126   1.749   7.875   1.253 -0.8345 -0.1386  0.1300
  164MOL   C16146127   1.660   7.907   1.159 -0.2556  0.2573  0.5733
  164MOL   C16246128   1.975   7.828   1.344 -0.2094 -0.5742  0.5243
  164MOL   C16346129   2.106   7.770   1.334 -0.0306 -0.3709 -0.0345
  164MOL   H16446130   2.065   7.627   1.023 -1.4983 -0.1185 -0.4951
  164MOL   H16546131   1.837   7.734   1.056 -1.1943 -1.1099  0.9967
  164MOL   H16646132   1.717   7.899   1.354  1.3822  1.8651  0.3941
  164MOL   H16746133   1.687   7.891   1.056  2.0056 -1.6949  1.4055
  164MOL   H16846134   1.950   7.887   1.432 -0.6116  2.5180 -1.5867
  164MOL   H16946135   2.181   7.783   1.410 -0.8923 -1.7485  1.0772
  164MOL   C17046136   1.534   7.969   1.181 -0.0499  0.3653 -0.4029
  164MOL   C17146137   1.460   8.005   1.065  0.1634  0.4551 -0.1983
  164MOL   C17246138   1.336   8.057   1.085 -0.3030 -0.0591 -0.0499
  164MOL   C17346139   1.278   8.090   1.210 -0.5860  0.2399  0.5176
  164MOL   C17446140   1.141   8.141   1.222 -0.2422 -0.5514  0.3318
  164MOL   C17546141   1.073   0.015   1.335  0.0534 -0.4306 -0.1026
  164MOL   C17646142   1.352   8.055   1.322 -0.7454  0.2351  0.0687
  164MOL   C17746143   1.482   7.997   1.309 -0.0012 -0.5098  0.5699
  164MOL   H17846144   1.495   7.979   0.967  0.0146  0.5059 -0.2640
  164MOL   H17946145   1.272   8.094   1.007 -0.0361 -0.8807 -0.6698
  164MOL   H18046146   1.089   0.039   1.137 -1.0918  2.2768  2.1684
  164MOL   H18146147   1.106   8.119   1.430 -0.6607  1.6349  1.0530
  164MOL   H18246148   1.324   8.090   1.420  0.3772 -2.1189  1.2791
  164MOL   H18346149   1.533   7.971   1.400  0.2710  2.1600  1.2155
  164MOL   C18446150   0.937   0.074   1.337  0.9771  0.1150 -0.1410
  164MOL   C18546151   0.829   0.020   1.419  0.3380  0.3581  0.8630
  164MOL   C18646152   0.694   0.061   1.414 -0.2538 -0.2033  0.1586
  164MOL   C18746153   0.660   0.162   1.322 -0.3846  0.3805  0.5175
  164MOL   C18846154   0.530   0.216   1.299 -0.8589 -0.1179 -0.3729
  164MOL   C18946155   0.419   0.204   1.373 -0.0158  0.1196  0.6903
  164MOL   C19046156   0.765   0.234   1.258  0.1970 -0.1605 -0.0963
  164MOL   C19146157   0.898   0.188   1.264  0.1113  0.1031 -0.0743
  164MOL   H19246158   0.849   8.085   1.488  0.5352 -1.1487 -0.8945
  164MOL   H19346159   0.611   0.015   1.466  0.6398  0.7282  2.4802
  164MOL   H19446160   0.513   0.281   1.214  1.2243  1.4380  0.3797
  164MOL   H19546161   0.426   0.143   1.461  1.7685 -3.0350 -1.5251
  164MOL   H19646162   0.736   0.313   1.191  0.0414 -1.3555 -1.4677
  164MOL   H19746163   0.966   0.236   1.195 -0.4959 -0.2998 -0.9616
  164MOL   C19846164   0.289   0.260   1.336 -0.3667 -0.2255  0.8134
  164MOL   C19946165   0.178   0.198   1.395 -0.0078 -0.5072 -0.2588
  164MOL   C20046166   0.045   0.233   1.354 -0.2021 -0.2299 -0.8467
  164MOL   C20146167   0.025   0.320   1.243 -0.6471  0.7989  0.4844
  164MOL   C20246168   8.031   0.346   1.198 -0.3463  1.1249  0.2776
  164MOL   C20346169   7.997   0.400   1.078 -0.5340 -0.5117  0.1980
  164MOL   C20446170   0.137   0.377   1.183 -0.1604 -0.0298  0.0284
  164MOL   C20546171   0.270   0.351   1.231 -0.8003  0.6980  0.4897
  164MOL   H20646172   0.189   0.143   1.487  0.6169  2.5667  1.5868
  164MOL   H20746173   8.109   0.202   1.420  0.8915 -0.2290  0.5136
  164MOL   H20846174   7.952   0.323   1.268 -0.3432  0.9376  0.2184
  164MOL   H20946175   8.077   0.425   1.010 -1.4015 -0.8453 -0.9765
  164MOL   H21046176   0.119   0.439   1.097 -0.8106 -1.1468 -0.6528
  164MOL   H21146177   0.360   0.379   1.180  0.2207  2.0586  2.9691
  164MOL   C21246178   7.859   0.432   1.038  0.2424  0.7833  0.8935
  164MOL   C21346179   7.832   0.523   0.938 -0.2212 -0.7770 -0.4805
  164MOL   C21446180   7.693   0.541   0.892  0.1963  0.5059 -0.0178
  164MOL   C21546181   7.589   0.471   0.954  0.3341  0.3394 -0.0957
  164MOL   C21646182   7.449   0.485   0.915  0.2959 -0.4605 -0.1419
  164MOL   C21746183   7.390   0.568   0.829  0.0766  0.1381  0.5199
  164MOL   C21846184   7.616   0.382   1.053  0.0403  0.1848  0.2096
  164MOL   C21946185   7.749   0.366   1.095 -0.8253  0.1226  0.3759
  164MOL   H22046186   7.911   0.571   0.883 -0.2646 -0.5433 -0.3397
  164MOL   H22146187   7.673   0.606   0.809 -1.4714 -0.9509 -0.7801
  164MOL   H22246188   7.389   0.404   0.954  0.2355 -0.2407  0.2258
  164MOL   H22346189   7.452   0.642   0.781 -0.7001 -0.6441 -1.7686
  164MOL   H22446190   7.537   0.331   1.107  0.1555  0.0296  0.2323
  164MOL   H22546191   7.770   0.297   1.175  0.8200  1.5260  1.1765
  164MOL   C22646192   7.249   0.567   0.797  0.5571 -0.7984  0.3724
  164MOL   C22746193   7.205   0.664   0.707  0.0221  0.0267  0.2118
  164MOL   C22846194   7.070   0.672   0.664 -0.6271  0.6196 -0.2671
  164MOL   C22946195   6.978   0.577   0.718 -0.2071 -0.3317 -0.5674
  164MOL   C23046196   6.839   0.574   0.676  0.0941  0.1650  0.2009
  164MOL   C23146197   6.782   0.667   0.591 -0.5718  0.6536  0.8297
  164MOL   C23246198   7.023   0.481   0.809  0.5305  0.4079  0.4537
  164MOL   C23346199   7.156   0.470   0.851  0.0947 -0.7015 -0.3799
  164MOL   H23446200   7.277   0.730   0.661  0.1939  0.5172  1.1702
  164MOL   H23546201   7.054   0.748   0.590 -1.7256  0.2558 -0.4076
  164MOL   H23646202   6.766   0.503   0.712  1.5270 -0.9097  1.0158
  164MOL   H23746203   6.843   0.745   0.547  1.1875 -0.8971  0.4265
  164MOL   H23846204   6.959   0.400   0.842 -1.4364  0.6146 -2.6705
  164MOL   H23946205   7.180   0.395   0.925  1.0150 -0.1245 -0.0930
  164MOL   C24046206   6.647   0.665   0.542  0.2052  0.1048 -0.0887
  164MOL   C24146207   6.578   0.545   0.532 -0.9739  0.2163 -0.7100
  164MOL   C24246208   6.447   0.539   0.473  0.6121 -0.4707 -0.0158
  164MOL   C24346209   6.379   0.657   0.438 -0.8449 -0.2783  0.0006
  164MOL   C24446210   6.244   0.652   0.383  0.0384  0.0215  0.1604
  164MOL   C24546211   6.165   0.746   0.333  0.3173 -0.6179  0.2639
  164MOL   C24646212   6.444   0.781   0.461 -0.2144  0.0883 -0.1766
  164MOL   C24746213   6.576   0.784   0.511 -0.1435  0.3108  1.0246
  164MOL   H24846214   6.630   0.451   0.542 -2.5117 -0.5703 -0.1067
  164MOL   H24946215   6.407   0.443   0.443  0.1494 -0.6655  1.2045
  164MOL   H25046216   6.197   0.556   0.400 -0.8227  0.5466  0.8009
  164MOL   H25146217   6.208   0.843   0.313  1.5779 -1.2455 -0.1260
  164MOL   H25246218   6.386   0.871   0.442  1.0002  1.3659  1.8896
  164MOL   H25346219   6.625   0.880   0.522  1.1823 -0.0340 -1.4620
  164MOL   C25446220   6.017   0.729   0.307 -0.0127  0.4383 -0.6344
  164MOL   C25546221   5.956   0.605   0.319  0.3357 -0.0791  0.7049
  164MOL   C25646222   5.821   0.591   0.285  0.2651  0.4465  0.2695
  164MOL   C25746223   5.750   0.703   0.224  0.1666 -0.1659 -0.6079
  164MOL   C25846224   5.618   0.692   0.173 -0.1055  0.1911 -0.7371
  164MOL   C25946225   5.563   0.589   0.100  0.2471  0.0626  0.8802
  164MOL   C26046226   5.812   0.828   0.231 -0.2840 -0.3382  0.1032
  164MOL   C26146227   5.947   0.842   0.269  0.2100 -0.4251  0.3164
  164MOL   H26246228   6.003   0.519   0.365  0.4507 -0.4057 -0.0127
  164MOL   H26346229   5.773   0.494   0.290 -1.3380  1.2907  1.7829
  164MOL   H26446230   5.552   0.774   0.196 -2.0351 -1.2720 -0.9572
  164MOL   H26546231   5.456   0.590   0.088  0.3089 -1.7497 -0.0336
  164MOL   H26646232   5.753   0.907   0.187  0.5028  0.3008  0.1589
  164MOL   H26746233   5.996   0.938   0.263 -1.3342  0.3537 -0.1236
  164MOL   C26846234   5.623   0.469   0.051 -0.2004  0.9109  0.3473
  164MOL   C26946235   5.752   0.470   0.008 -0.3416  0.0821  0.2468
  164MOL   C27046236   5.814   0.353   8.099 -0.5107  0.0332  0.0989
  164MOL   C27146237   5.732   0.237   8.083 -0.4476 -0.4924 -0.0251
  164MOL   C27246238   5.766   0.118   7.998 -0.9496  0.1279  0.1888
  164MOL   C27346239   5.872   0.116   7.911  1.0289  0.1398  0.9671
  164MOL   C27446240   5.602   0.235   8.141 -0.4595  0.0163 -1.0084
  164MOL   C27546241   5.550   0.349   0.058  0.0296 -0.0001  0.3205
  164MOL   H27646242   5.811   0.560   0.008 -0.1991 -0.0055 -0.3381
  164MOL   H27746243   5.913   0.359   8.055  0.1895  2.9242  1.8790
  164MOL   H27846244   5.709   0.027   8.008 -2.6949  1.2419  0.4650
  164MOL   H27946245   5.936   0.202   7.900  0.7038  0.2887  0.1951
  164MOL   H28046246   5.548   0.141   0.004  0.0648 -0.3499 -1.6979
  164MOL   H28146247   5.452   0.342   0.102 -1.2050  0.5586 -2.2719
  164MOL   H28246248   5.899   0.027   7.855  0.6640  0.4796  0.2445
  165MOL     C146249   0.308   3.609   7.062  0.1504  0.0225 -0.1010
  165MOL     C246250   0.369   3.643   6.942 -0.2510 -0.0285 -0.1370
  165MOL     C346251   0.438   3.763   6.928 -0.0207 -0.1110 -0.5105
  165MOL     C446252   0.436   3.864   7.021  0.1161  0.4537  0.1411
  165MOL     C546253   0.512   3.989   7.009 -0.4208  0.4841  0.1452
  165MOL     C646254   0.575   4.037   6.901  0.4582  0.1920 -0.5918
  165MOL     C746255   0.367   3.838   7.139  0.5958 -0.4859 -0.1402
  165MOL     C846256   0.312   3.711   7.160  0.2795 -0.4735  0.1824
  165MOL     H946257   0.362   3.572   6.861 -2.8583  0.3646 -0.2891
  165MOL    H1046258   0.491   3.776   6.835  0.8344 -2.4143 -0.3705
  165MOL    H1146259   0.525   4.051   7.097 -1.4756  0.9866 -0.0431
  165MOL    H1246260   0.567   3.989   6.804 -1.8520  1.3105 -1.0031
  165MOL    H1346261   0.352   3.916   7.213 -0.6685 -0.1897 -0.7000
  165MOL    H1446262   0.270   3.700   7.259 -0.4993 -0.6808 -0.1666
  165MOL    H1546263   0.260   3.514   7.082 -2.1488  0.7730 -1.8677
  165MOL    C1646264   0.651   4.159   6.897  0.6047  0.4009  0.8847
  165MOL    C1746265   0.601   4.278   6.956 -0.2935 -0.9398  0.9587
  165MOL    C1846266   0.680   4.392   6.968 -0.0743 -0.0531 -0.0749
  165MOL    C1946267   0.804   4.391   6.906 -0.6868 -0.5345  0.1100
  165MOL    C2046268   0.881   4.518   6.915  0.4797  0.0088 -0.2283
  165MOL    C2146269   1.006   4.533   6.874  0.6271 -0.1274  0.0633
  165MOL    C2246270   0.856   4.274   6.841  0.5162 -0.9944  0.3837
  165MOL    C2346271   0.775   4.158   6.834 -0.2647 -0.0941 -0.5884
  165MOL    H2446272   0.500   4.272   6.993 -2.0680 -2.6509 -3.8357
  165MOL    H2546273   0.641   4.484   7.007 -1.7548 -0.3560 -1.0040
  165MOL    H2646274   0.823   4.598   6.959  0.3480 -0.2793  0.1276
  165MOL    H2746275   1.056   4.444   6.839  1.2013 -1.0169  2.9708
  165MOL    H2846276   0.954   4.259   6.798  0.8652  0.4792  0.6360
  165MOL    H2946277   0.820   4.071   6.788 -0.6583 -0.3397 -0.5127
  165MOL    C3046278   1.083   4.662   6.883  0.1381  0.1286  0.0298
  165MOL    C3146279   1.024   4.788   6.918  0.6472  0.0705 -0.0278
  165MOL    C3246280   1.102   4.904   6.927  0.0821 -0.1610 -0.3322
  165MOL    C3346281   1.242   4.890   6.915  0.4444  0.8079 -0.5450
  165MOL    C3446282   1.332   5.004   6.939 -0.2174 -0.3006  0.4578
  165MOL    C3546283   1.295   5.132   6.939 -0.3268  0.6075 -0.3184
  165MOL    C3646284   1.301   4.766   6.886 -0.2353 -0.4928  0.0271
  165MOL    C3746285   1.223   4.651   6.866  0.2221 -0.7069 -0.2628
  165MOL    H3846286   0.918   4.800   6.932  0.4539 -1.1881 -0.3684
  165MOL    H3946287   1.060   5.003   6.940  1.3860  0.2440  0.8976
  165MOL    H4046288   1.435   4.983   6.960  0.4656  2.1447 -0.2499
  165MOL    H4146289   1.191   5.152   6.917 -1.3448 -2.9597  0.9022
  165MOL    H4246290   1.409   4.759   6.879 -0.4566 -2.0103 -2.3406
  165MOL    H4346291   1.262   4.552   6.850 -1.4830 -1.6342  1.1601
  165MOL    C4446292   1.385   5.248   6.975 -0.1100  0.4212  0.4505
  165MOL    C4546293   1.522   5.227   6.993  0.7391  0.0588  0.1868
  165MOL    C4646294   1.598   5.343   7.020 -1.1126 -0.0781 -0.5354
  165MOL    C4746295   1.542   5.469   7.020  0.7459 -0.4289 -0.1636
  165MOL    C4846296   1.636   5.577   7.037 -0.6331  0.7949 -0.2121
  165MOL    C4946297   1.617   5.708   7.013  0.2563 -0.2775  0.0048
  165MOL    C5046298   1.406   5.485   6.994  0.6196 -0.4672  0.0435
  165MOL    C5146299   1.325   5.375   6.965 -0.9078  0.2778 -0.0237
  165MOL    H5246300   1.568   5.130   6.995 -2.9692 -1.7548  1.4504
  165MOL    H5346301   1.704   5.329   7.033 -1.3311 -0.2878  1.2394
  165MOL    H5446302   1.732   5.541   7.070 -0.8184 -0.2058 -0.7350
  165MOL    H5546303   1.526   5.742   6.966  0.1897 -1.2595 -0.6019
  165MOL    H5646304   1.365   5.584   7.005  3.5572  1.0391 -2.0813
  165MOL    H5746305   1.219   5.390   6.951 -0.5771  0.8901 -2.0691
  165MOL    C5846306   1.707   5.821   7.022 -0.4534 -0.3496 -0.0306
  165MOL    C5946307   1.650   5.951   7.015 -0.2829  0.4774 -0.0338
  165MOL    C6046308   1.731   6.051   7.064 -0.2500 -0.6114 -0.4481
  165MOL    C6146309   1.862   6.033   7.104  0.5624 -0.0163  0.0598
  165MOL    C6246310   1.954   6.142   7.148 -0.3383 -0.1652  0.3838
  165MOL    C6346311   1.933   6.273   7.163  0.1331 -0.4516  0.2727
  165MOL    C6446312   1.913   5.908   7.097 -0.3978  0.6109 -0.0501
  165MOL    C6546313   1.838   5.799   7.057 -0.2588  0.2178 -0.4302
  165MOL    H6646314   1.546   5.973   6.999 -0.0454  3.0856  1.6611
  165MOL    H6746315   1.685   6.148   7.079 -0.2462 -0.9836  2.2360
  165MOL    H6846316   2.053   6.108   7.175 -0.2073  1.0162  1.3964
  165MOL    H6946317   1.831   6.301   7.142  0.2089  0.2495  0.8287
  165MOL    H7046318   2.013   5.877   7.124 -0.2527 -0.5056 -1.7890
  165MOL    H7146319   1.889   5.705   7.070  0.4708  0.8181  1.3398
  165MOL    C7246320   2.024   6.376   7.217 -0.0555 -0.1799  0.3555
  165MOL    C7346321   2.143   6.356   7.282 -0.1899  0.2667  0.6955
  165MOL    C7446322   2.238   6.461   7.309  0.3450  0.0468 -0.0807
  165MOL    C7546323   2.203   6.594   7.272  0.3453 -0.4104  0.1358
  165MOL    C7646324   2.295   6.705   7.310  0.2544  0.4815 -0.1918
  165MOL    C7746325   2.267   6.836   7.304  0.5333 -0.1142  0.0554
  165MOL    C7846326   2.078   6.615   7.211  0.4567  0.2574 -0.2316
  165MOL    C7946327   1.986   6.512   7.181 -0.0923  0.0681 -0.0291
  165MOL    H8046328   2.171   6.255   7.308  0.1080  0.0173 -0.5559
  165MOL    H8146329   2.335   6.457   7.357 -0.3342  1.7755  1.4970
  165MOL    H8246330   2.392   6.675   7.346  0.5566 -1.5486 -2.5414
  165MOL    H8346331   2.169   6.864   7.268  1.7054  1.4171 -2.0538
  165MOL    H8446332   2.038   6.713   7.190 -2.0778 -0.6765  0.0638
  165MOL    H8546333   1.889   6.541   7.142  0.6271  0.2054 -1.7842
  165MOL    C8646334   2.347   6.956   7.330 -0.2325 -0.4525 -0.3769
  165MOL    C8746335   2.287   7.081   7.350 -0.6539 -0.5029 -0.0567
  165MOL    C8846336   2.364   7.196   7.396 -0.3950 -0.6748 -0.7396
  165MOL    C8946337   2.503   7.185   7.412  0.0300  0.1881  0.6391
  165MOL    C9046338   2.599   7.286   7.434 -0.1183 -0.8684 -0.4571
  165MOL    C9146339   2.579   7.402   7.494  0.5429  0.6652  0.1888
  165MOL    C9246340   2.559   7.056   7.397 -0.1212  0.0873 -0.5480
  165MOL    C9346341   2.483   6.944   7.351  0.1901 -0.0118 -0.0556
  165MOL    H9446342   2.182   7.093   7.332 -0.6765 -1.0488 -0.2717
  165MOL    H9546343   2.316   7.290   7.420 -2.1030 -1.3881 -1.2799
  165MOL    H9646344   2.692   7.261   7.384 -0.6018 -0.6282 -1.4878
  165MOL    H9746345   2.485   7.430   7.539  0.0090 -1.1232  0.2449
  165MOL    H9846346   2.666   7.038   7.399 -0.5396 -2.4661  1.7400
  165MOL    H9946347   2.544   6.856   7.336 -0.0104 -0.0602 -0.5750
  165MOL   C10046348   2.684   7.496   7.503  0.2888  0.2210 -0.3426
  165MOL   C10146349   2.700   7.584   7.614  0.5606  0.1484 -0.2537
  165MOL   C10246350   2.825   7.649   7.629 -0.4977  0.2887 -0.1531
  165MOL   C10346351   2.930   7.635   7.539 -0.7338 -0.2515 -0.5261
  165MOL   C10446352   3.070   7.692   7.568 -0.4009 -0.7381 -0.6536
  165MOL   C10546353   3.175   7.687   7.487 -0.2055  0.2176  0.6222
  165MOL   C10646354   2.913   7.563   7.423  0.3848 -0.1402 -0.7408
  165MOL   C10746355   2.794   7.494   7.409 -0.2065  0.1768 -0.0835
  165MOL   H10846356   2.631   7.596   7.696  0.8510 -2.0866  0.3457
  165MOL   H10946357   2.838   7.708   7.718 -0.3463  1.7445 -1.1238
  165MOL   H11046358   3.081   7.732   7.668  1.1422 -1.2087 -0.6209
  165MOL   H11146359   3.178   7.645   7.387  2.9842  1.5690  0.0790
  165MOL   H11246360   2.990   7.540   7.351 -0.0884 -3.2212 -0.3533
  165MOL   H11346361   2.807   7.432   7.321  0.8837 -0.5872  0.5984
  165MOL   C11446362   3.306   7.744   7.513 -0.3692 -0.4722  0.1109
  165MOL   C11546363   3.329   7.847   7.609  0.1113  0.7811  0.2568
  165MOL   C11646364   3.462   7.888   7.636  0.1742 -0.1220  0.3324
  165MOL   C11746365   3.573   7.831   7.562  0.0659 -0.1169  0.2065
  165MOL   C11846366   3.715   7.880   7.578 -0.2423 -0.7270 -0.4782
  165MOL   C11946367   3.762   7.966   7.672  0.5231 -0.4176 -0.1248
  165MOL   C12046368   3.542   7.739   7.466  0.3466 -0.2250 -0.9189
  165MOL   C12146369   3.415   7.686   7.445  0.3206  0.4807 -0.2092
  165MOL   H12246370   3.243   7.892   7.655  0.1671 -0.2805  1.4199
  165MOL   H12346371   3.474   7.967   7.709 -1.5589  0.4105  0.0590
  165MOL   H12446372   3.786   7.840   7.506 -2.3351 -3.9309 -0.8781
  165MOL   H12546373   3.684   7.999   7.740  1.5273  1.3099  0.2293
  165MOL   H12646374   3.627   7.698   7.412  0.3818  0.9420 -1.7795
  165MOL   H12746375   3.399   7.606   7.375  1.0808 -0.9632  1.2346
  165MOL   C12846376   3.890   8.021   7.699 -0.5308  0.6491  0.1721
  165MOL   C12946377   4.003   7.975   7.625 -0.8301 -0.5139 -0.0758
  165MOL   C13046378   4.127   8.041   7.641 -0.0670  0.1128  0.1924
  165MOL   C13146379   4.143   0.003   7.735 -0.0059 -0.0651  0.0767
  165MOL   C13246380   4.268   0.076   7.765 -0.7356 -0.5624  0.5594
  165MOL   C13346381   4.398   0.048   7.729 -0.0839  0.0419  0.1694
  165MOL   C13446382   4.023   0.049   7.800 -0.1158  0.4515  0.1514
  165MOL   C13546383   3.902   8.134   7.784 -0.9706 -0.1960 -0.4124
  165MOL   H13646384   3.996   7.901   7.546  0.3792  0.2777 -0.9517
  165MOL   H13746385   4.206   8.022   7.570  1.5122  1.6624  1.4969
  165MOL   H13846386   4.259   0.171   7.816 -0.8209  0.2079 -0.8578
  165MOL   H13946387   4.400   8.100   7.674 -0.4680 -0.3371  0.7816
  165MOL   H14046388   4.031   0.118   7.883  1.2785 -0.1767  0.5578
  165MOL   H14146389   3.817   0.028   7.838 -0.8788 -2.9247  1.7607
  165MOL   C14246390   4.517   0.129   7.753  1.0787 -0.1353  0.1162
  165MOL   C14346391   4.627   0.108   7.665 -0.2370  0.9087 -0.1081
  165MOL   C14446392   4.745   0.184   7.683  0.2169 -0.1581  0.4100
  165MOL   C14546393   4.751   0.276   7.791 -0.2787  0.0471 -0.2353
  165MOL   C14646394   4.885   0.339   7.821  0.0229 -0.1484  0.7206
  165MOL   C14746395   4.914   0.418   7.921  0.0129  0.4022 -0.2078
  165MOL   C14846396   4.638   0.303   7.875 -0.2882 -1.2090 -0.5041
  165MOL   C14946397   4.521   0.233   7.851  0.0693  0.7172 -0.0679
  165MOL   H15046398   4.622   0.030   7.591  2.7021  1.2924 -0.7891
  165MOL   H15146399   4.827   0.181   7.613  0.9071  0.4727  1.1808
  165MOL   H15246400   4.954   0.324   7.739  1.8796  1.9836  1.8533
  165MOL   H15346401   4.848   0.437   8.004 -0.7571  0.9835 -0.9317
  165MOL   H15446402   4.637   0.379   7.953 -0.6587 -1.8585  0.1280
  165MOL   H15546403   4.430   0.243   7.909 -0.0990 -0.9851 -0.0012
  165MOL   C15646404   5.042   0.499   7.932  0.2255 -0.3996  0.4201
  165MOL   C15746405   5.044   0.627   7.989  0.4793  0.4163  0.4781
  165MOL   C15846406   5.160   0.700   7.999 -0.1069 -0.1486 -0.1995
  165MOL   C15946407   5.282   0.642   7.959  0.4951  0.1856  0.3461
  165MOL   C16046408   5.412   0.714   7.961 -0.8700 -0.2875 -0.2539
  165MOL   C16146409   5.428   0.844   7.993  0.2131  0.1943 -0.2995
  165MOL   C16246410   5.280   0.516   7.897 -0.1232  0.0225  0.9446
  165MOL   C16346411   5.162   0.443   7.883 -0.7060  0.3169  0.1804
  165MOL   H16446412   4.954   0.671   8.029  1.6210  2.9110  0.3463
  165MOL   H16546413   5.158   0.798   8.045  0.1540 -0.5981  0.7926
  165MOL   H16646414   5.501   0.654   7.950 -0.5539  0.3373 -1.1871
  165MOL   H16746415   5.339   0.902   8.012  1.6573  2.6465 -0.8389
  165MOL   H16846416   5.373   0.476   7.858 -0.2205  0.2817  0.4513
  165MOL   H16946417   5.161   0.357   7.818  1.7062  1.7082 -1.7780
  165MOL   C17046418   5.557   0.911   8.010 -1.0386 -0.2984 -0.2076
  165MOL   C17146419   5.555   1.054   8.005 -0.8275  0.0054 -0.0106
  165MOL   C17246420   5.668   1.130   8.048  0.6009 -0.1478 -0.5084
  165MOL   C17346421   5.785   1.063   8.073  0.7160 -0.9416  0.6361
  165MOL   C17446422   5.904   1.147   8.095 -1.2220 -0.0711 -0.2101
  165MOL   C17546423   6.027   1.123   8.045  0.1074 -0.0286 -0.1263
  165MOL   C17646424   5.799   0.926   8.053 -1.1916  0.4196 -0.8684
  165MOL   C17746425   5.683   0.850   8.025 -0.7825  0.1033 -0.3334
  165MOL   H17846426   5.457   1.101   8.006 -1.2626 -0.8909  0.0297
  165MOL   H17946427   5.666   1.238   8.055  1.4991 -0.2862  2.2921
  165MOL   H18046428   5.888   1.231   0.017 -3.4044  1.6106 -2.7788
  165MOL   H18146429   6.037   1.031   7.988 -0.2030 -0.0337 -0.1751
  165MOL   H18246430   5.893   0.881   8.082 -2.0111  0.2262  1.5444
  165MOL   H18346431   5.685   0.742   8.025  0.6843  0.1267 -0.0687
  165MOL   C18446432   6.148   1.195   8.063 -0.1857 -0.1833 -0.3295
  165MOL   C18546433   6.256   1.167   7.982  0.0243 -0.2138 -0.5334
  165MOL   C18646434   6.368   1.242   7.989  0.3649 -0.3087 -0.1645
  165MOL   C18746435   6.378   1.344   8.087 -0.6280 -0.7745 -0.3374
  165MOL   C18846436   6.504   1.412   8.105 -0.2837  0.4161 -1.0492
  165MOL   C18946437   6.615   1.409   8.028  0.2302 -0.1745  0.4718
  165MOL   C19046438   6.268   1.374   0.021 -0.3382  0.3234 -1.0676
  165MOL   C19146439   6.150   1.298   0.017 -1.1006 -0.2370  0.0548
  165MOL   H19246440   6.251   1.081   7.917  0.2139 -2.0710  1.8420
  165MOL   H19346441   6.456   1.211   7.935 -0.4430  0.1423 -1.7594
  165MOL   H19446442   6.512   1.469   0.052  3.1851 -1.6762  0.0759
  165MOL   H19546443   6.608   1.348   7.939 -0.0911  1.0162 -0.3318
  165MOL   H19646444   6.279   1.441   0.105  0.4829  0.5485 -1.3550
  165MOL   H19746445   6.075   1.308   0.093 -1.0443  1.6419 -0.1116
  165MOL   C19846446   6.740   1.483   8.051 -0.2286  0.0005  0.0757
  165MOL   C19946447   6.824   1.515   7.939 -0.5223 -0.7066  0.3981
  165MOL   C20046448   6.941   1.592   7.967 -0.1086 -0.3174 -0.4321
  165MOL   C20146449   6.979   1.626   8.099 -0.3135  0.3635  0.1669
  165MOL   C20246450   7.109   1.698   8.109 -0.5291 -0.1757 -0.5498
  165MOL   C20346451   7.175   1.717   0.083 -0.0208 -0.3624 -0.2975
  165MOL   C20446452   6.896   1.582   0.064 -0.1396 -0.4160  0.3442
  165MOL   C20546453   6.778   1.515   0.034  0.0980  0.1805  0.4319
  165MOL   H20646454   6.798   1.500   7.835 -2.3820 -2.1020  1.0245
  165MOL   H20746455   7.001   1.621   7.883  1.4471 -0.5836  0.5760
  165MOL   H20846456   7.156   1.741   8.022  1.3806  0.1288  0.5898
  165MOL   H20946457   7.128   1.670   0.168  1.2634  0.2331  0.7536
  165MOL   H21046458   6.918   1.611   0.165 -0.2311 -0.1717  0.2947
  165MOL   H21146459   6.717   1.493   0.121  0.6012  2.6054  1.4484
  165MOL   C21246460   7.296   1.795   0.101 -0.2031 -0.4287  0.6711
  165MOL   C21346461   7.327   1.900   0.008  0.5277  0.2666 -0.3676
  165MOL   C21446462   7.444   1.977   0.023 -0.4462  0.4231  0.1466
  165MOL   C21546463   7.530   1.955   0.128  0.4415  0.5955  0.2581
  165MOL   C21646464   7.650   2.035   0.156  0.4805  0.0482 -0.6027
  165MOL   C21746465   7.752   2.025   0.255 -0.3847  0.0665 -0.6148
  165MOL   C21846466   7.501   1.848   0.214  0.6279  0.3145  0.3841
  165MOL   C21946467   7.386   1.769   0.200  0.1535  0.0701  0.1388
  165MOL   H22046468   7.257   1.929   8.075  0.6558 -2.8762 -1.7601
  165MOL   H22146469   7.457   2.066   8.107 -1.2300  0.2052 -0.3479
  165MOL   H22246470   7.662   2.116   0.086  1.7419  1.1138  0.7935
  165MOL   H22346471   7.744   1.948   0.331 -2.4747 -0.6185 -1.5015
  165MOL   H22446472   7.569   1.810   0.290  1.2089 -1.4231 -0.9532
  165MOL   H22546473   7.366   1.689   0.270 -0.3299 -2.5940 -2.9064
  165MOL   C22646474   7.874   2.106   0.270  0.0641 -0.3566 -0.1630
  165MOL   C22746475   7.888   2.229   0.209  0.4755 -0.2759 -0.1651
  165MOL   C22846476   8.002   2.308   0.241 -1.3410 -0.4287  0.2947
  165MOL   C22946477   8.106   2.254   0.318 -0.5334  0.6654 -0.2749
  165MOL   C23046478   0.087   2.326   0.321 -0.0456  0.1724  0.6379
  165MOL   C23146479   0.208   2.282   0.368  0.3946  0.1139  1.3634
  165MOL   C23246480   8.093   2.126   0.376  0.6251 -0.1558 -0.5379
  165MOL   C23346481   7.975   2.054   0.352 -0.9528 -0.5866 -0.3986
  165MOL   H23446482   7.817   2.261   0.134  1.6775  1.9902 -0.4057
  165MOL   H23546483   8.023   2.396   0.183 -0.5820 -0.7281  0.1081
  165MOL   H23646484   0.090   2.426   0.281  0.4676 -1.3786 -3.5433
  165MOL   H23746485   0.224   2.178   0.393  1.1905 -0.5793 -1.7805
  165MOL   H23846486   0.028   2.081   0.435 -1.9495 -1.1701  2.2950
  165MOL   H23946487   7.962   1.956   0.397  3.3584 -0.4972  1.2152
  165MOL   C24046488   0.323   2.374   0.374  0.3904 -0.6603  0.4829
  165MOL   C24146489   0.305   2.515   0.380 -0.3404  0.2160  0.7825
  165MOL   C24246490   0.418   2.595   0.375 -0.1884 -0.1304 -0.6699
  165MOL   C24346491   0.549   2.544   0.375  0.3973 -0.2860 -0.1680
  165MOL   C24446492   0.661   2.636   0.371  0.5215 -0.0848  0.0874
  165MOL   C24546493   0.668   2.770   0.378  0.0869  0.1095  0.5407
  165MOL   C24646494   0.567   2.405   0.370 -0.1432 -0.1749 -0.1765
  165MOL   C24746495   0.455   2.322   0.365  0.3386 -0.5056 -0.3197
  165MOL   H24846496   0.206   2.556   0.396  0.3586  1.6529  1.4538
  165MOL   H24946497   0.401   2.701   0.376 -1.1151 -0.2563  2.2339
  165MOL   H25046498   0.753   2.583   0.353  1.6287  2.1118 -0.8263
  165MOL   H25146499   0.575   2.823   0.398 -0.1452 -0.4988  1.0886
  165MOL   H25246500   0.665   2.361   0.363 -0.3469 -0.3959 -1.7700
  165MOL   H25346501   0.458   2.215   0.351  1.1576 -0.6705  1.0036
  165MOL   C25446502   0.789   2.854   0.386  0.3528  0.0158 -0.1043
  165MOL   C25546503   0.788   2.984   0.341  0.6126 -0.4583  0.1347
  165MOL   C25646504   0.892   3.077   0.366 -0.4990 -0.2925 -0.0410
  165MOL   C25746505   1.009   3.028   0.433  0.2441 -0.1672 -0.3116
  165MOL   C25846506   1.124   3.119   0.449 -0.1605 -0.5539 -0.5504
  165MOL   C25946507   1.150   3.181   0.567 -0.4454 -0.3826 -0.7060
  165MOL   C26046508   1.013   2.894   0.480 -0.1592 -0.7566 -0.4259
  165MOL   C26146509   0.903   2.806   0.452  0.1983  0.2225 -0.1906
  165MOL   H26246510   0.697   3.019   0.293  0.9433 -2.2735 -1.8859
  165MOL   H26346511   0.884   3.181   0.337 -0.4917 -1.3224 -4.0402
  165MOL   H26446512   1.187   3.132   0.362  3.0043 -0.5356  1.6337
  165MOL   H26546513   1.233   3.250   0.568 -2.7370  2.4510 -0.5115
  165MOL   H26646514   1.097   2.851   0.533 -1.2340 -0.8967  1.1934
  165MOL   H26746515   0.899   2.702   0.482 -0.7692  0.6307  1.1654
  165MOL   C26846516   1.073   3.172   0.693 -0.0769  0.1020  0.2505
  165MOL   C26946517   0.932   3.169   0.694 -0.1605 -1.1605  0.1033
  165MOL   C27046518   0.868   3.158   0.819 -0.2012  0.3349  0.0734
  165MOL   C27146519   0.934   3.147   0.939 -0.3577 -0.0851  0.0313
  165MOL   C27246520   0.858   3.153   1.071  0.1796 -0.3532 -0.3507
  165MOL   C27346521   0.911   3.173   1.195 -0.2277  0.2740 -0.1673
  165MOL   C27446522   1.075   3.146   0.934  0.2495 -0.7008  0.0868
  165MOL   C27546523   1.147   3.161   0.813  0.3307 -0.8828 -0.0232
  165MOL   H27646524   0.878   3.182   0.602  1.5302  1.4670 -0.5770
  165MOL   H27746525   0.760   3.163   0.816 -0.1946  1.1836  1.2155
  165MOL   H27846526   0.755   3.123   1.066 -0.1234  0.3194  1.5915
  165MOL   H27946527   1.012   3.211   1.193 -0.9388  2.2579  0.9673
  165MOL   H28046528   1.136   3.157   1.023  0.1310 -0.6970  0.1689
  165MOL   H28146529   1.253   3.147   0.821  0.1790 -2.0928  0.0386
  165MOL   H28246530   0.846   3.164   1.280 -0.7168  0.2279 -0.5459
  166MOL     C146531   0.271   6.481   4.198  0.1409  0.3595 -0.0660
  166MOL     C246532   0.360   6.494   4.307  0.3868 -0.6009 -0.2611
  166MOL     C346533   0.500   6.473   4.295  0.2222 -0.0033 -0.5350
  166MOL     C446534   0.554   6.437   4.166 -0.3562  0.1456 -0.5056
  166MOL     C546535   0.696   6.388   4.150  0.4055 -0.2527  0.9695
  166MOL     C646536   0.783   6.366   4.250  0.8877  0.2160 -0.8275
  166MOL     C746537   0.465   6.438   4.058 -0.7717  0.1802  0.0047
  166MOL     C846538   0.328   6.461   4.074  0.2154 -0.4636  0.1131
  166MOL     H946539   0.328   6.518   4.408  3.1739 -0.9964  0.7776
  166MOL    H1046540   0.555   6.484   4.387 -2.1472  0.8956  0.8178
  166MOL    H1146541   0.740   6.377   4.052 -1.1932  1.4870  0.0253
  166MOL    H1246542   0.746   6.375   4.351 -0.1077 -0.7908 -1.0965
  166MOL    H1346543   0.519   6.405   3.970  1.9828  0.9978  1.3395
  166MOL    H1446544   0.266   6.455   3.986 -0.2353 -0.2240  0.4106
  166MOL    H1546545   0.167   6.502   4.218 -0.3895  0.1459 -2.3590
  166MOL    C1646546   0.925   6.328   4.224  0.5518 -0.9191 -0.4568
  166MOL    C1746547   0.997   6.349   4.102  0.1712 -0.2710  0.1985
  166MOL    C1846548   1.119   6.285   4.072 -0.4897  0.5874 -0.4443
  166MOL    C1946549   1.186   6.218   4.174 -0.1726 -0.0944 -0.2135
  166MOL    C2046550   1.320   6.157   4.169 -0.1429  0.8913  0.2595
  166MOL    C2146551   1.402   6.147   4.057  0.7469 -0.5722  0.6620
  166MOL    C2246552   1.119   6.207   4.300  0.6596  0.0724 -0.2717
  166MOL    C2346553   0.991   6.259   4.326 -0.1002  0.0398  0.1141
  166MOL    H2446554   0.951   6.386   4.012  0.3748  0.7228  0.4955
  166MOL    H2546555   1.166   6.312   3.979  1.1823  0.3809  0.3176
  166MOL    H2646556   1.350   6.114   4.263 -1.9083  2.6670  1.7027
  166MOL    H2746557   1.371   6.180   3.960  0.9696 -0.3363  0.6724
  166MOL    H2846558   1.184   6.168   4.376  1.0859  2.0860  0.4290
  166MOL    H2946559   0.969   6.250   4.431  0.4021 -1.6189  0.0845
  166MOL    C3046560   1.532   6.078   4.056 -0.3576  0.1506  0.9571
  166MOL    C3146561   1.597   6.022   4.168  0.2939 -0.3141 -0.0083
  166MOL    C3246562   1.704   5.936   4.166 -0.0316  0.5287  1.0518
  166MOL    C3346563   1.772   5.919   4.048 -0.0415 -0.0705 -0.3893
  166MOL    C3446564   1.893   5.837   4.035  0.1299  0.2787 -0.0461
  166MOL    C3546565   1.964   5.776   4.135  0.1254 -0.0481 -0.0349
  166MOL    C3646566   1.719   5.979   3.930 -0.3009 -0.0595 -0.4707
  166MOL    C3746567   1.599   6.053   3.931  0.3828 -0.5116 -0.0719
  166MOL    H3846568   1.549   6.035   4.263 -0.4117 -0.0119 -0.4005
  166MOL    H3946569   1.743   5.902   4.261  0.9906 -0.7354  0.2020
  166MOL    H4046570   1.939   5.831   3.938  1.7009  0.1305  0.6962
  166MOL    H4146571   1.928   5.781   4.237  0.0906  3.1774 -0.1487
  166MOL    H4246572   1.769   5.959   3.836 -2.1849 -2.1079 -1.0826
  166MOL    H4346573   1.562   6.084   3.834  0.8825  1.4854  0.3519
  166MOL    C4446574   2.093   5.706   4.107  0.1716  0.4646  0.1512
  166MOL    C4546575   2.149   5.681   3.978 -0.1683 -0.0013 -0.0814
  166MOL    C4646576   2.273   5.622   3.960  0.0661  1.1276  0.7666
  166MOL    C4746577   2.350   5.577   4.071  0.2085 -0.3498 -0.1711
  166MOL    C4846578   2.476   5.504   4.047  0.3249  0.4464  0.1001
  166MOL    C4946579   2.552   5.434   4.133 -0.2776 -0.6146 -0.1231
  166MOL    C5046580   2.294   5.597   4.201  0.2695 -0.0882  0.0315
  166MOL    C5146581   2.168   5.655   4.216 -0.2216  0.3731 -0.3928
  166MOL    H5246582   2.095   5.702   3.887  0.0154 -1.8993 -0.6502
  166MOL    H5346583   2.309   5.609   3.859  0.0441 -0.4078  0.9477
  166MOL    H5446584   2.508   5.501   3.944  0.1368  0.8661  0.0291
  166MOL    H5546585   2.531   5.425   4.239  0.9790  1.7470  0.3510
  166MOL    H5646586   2.354   5.558   4.283  0.6860 -0.4445 -0.4381
  166MOL    H5746587   2.132   5.668   4.317  2.1636  1.4888  0.3364
  166MOL    C5846588   2.670   5.359   4.093 -0.6671  0.1780  0.2132
  166MOL    C5946589   2.723   5.274   4.197 -0.3275  0.0651  0.2634
  166MOL    C6046590   2.835   5.194   4.165 -0.0995 -0.4692 -0.4735
  166MOL    C6146591   2.898   5.202   4.040  0.1746 -0.2591  0.0892
  166MOL    C6246592   3.019   5.123   4.009 -0.2568 -0.4733 -0.3012
  166MOL    C6346593   3.059   5.097   3.884  0.3646  0.1248 -0.0712
  166MOL    C6446594   2.835   5.277   3.936 -0.4544  0.0132  0.4177
  166MOL    C6546595   2.728   5.360   3.966  0.8962  0.3251 -0.4950
  166MOL    H6646596   2.691   5.265   4.300  0.2769  1.4030  0.5715
  166MOL    H6746597   2.883   5.123   4.231  0.8749 -0.5656 -1.2615
  166MOL    H6846598   3.082   5.084   4.087 -1.3927 -0.2779  0.7259
  166MOL    H6946599   3.001   5.140   3.803 -1.3090 -0.4723  0.7755
  166MOL    H7046600   2.874   5.280   3.836 -1.6937  0.4551 -0.0677
  166MOL    H7146601   2.710   5.434   3.889 -3.2771  0.8450  0.8617
  166MOL    C7246602   3.166   5.017   3.836  0.1099 -1.0837  0.2068
  166MOL    C7346603   3.241   4.934   3.917  0.2725  0.8120  0.0057
  166MOL    C7446604   3.330   4.837   3.862  0.0347  0.4313  0.4117
  166MOL    C7546605   3.360   4.832   3.723 -0.7384  0.3612 -0.8801
  166MOL    C7646606   3.443   4.719   3.669 -0.2273  0.1264  0.8036
  166MOL    C7746607   3.515   4.724   3.556 -0.5871  0.0682  0.7466
  166MOL    C7846608   3.289   4.921   3.646  1.0734 -0.2122 -0.6619
  166MOL    C7946609   3.188   5.010   3.696 -0.1228  1.0792 -0.5612
  166MOL    H8046610   3.215   4.930   4.021  0.0845  2.7170  0.0409
  166MOL    H8146611   3.375   4.762   3.926  1.1550  0.8417  0.1146
  166MOL    H8246612   3.446   4.632   3.733 -0.9960 -0.3285  0.2374
  166MOL    H8346613   3.520   4.817   3.501  1.4791 -1.5880 -2.0030
  166MOL    H8446614   3.308   4.937   3.541 -0.8902 -0.5547 -1.0970
  166MOL    H8546615   3.138   5.075   3.626 -0.6082  0.1773 -1.0699
  166MOL    C8646616   3.588   4.602   3.503  0.6338 -0.9411  0.3618
  166MOL    C8746617   3.584   4.475   3.569  0.1725  0.6437  0.1252
  166MOL    C8846618   3.625   4.354   3.508  0.1765 -0.9707  0.3727
  166MOL    C8946619   3.680   4.361   3.381  0.3277 -0.4656  0.1506
  166MOL    C9046620   3.692   4.241   3.309  0.4167 -0.1520 -0.0919
  166MOL    C9146621   3.680   4.239   3.173 -0.1256  0.2054 -0.2080
  166MOL    C9246622   3.697   4.485   3.321 -0.6153 -0.4159  0.4720
  166MOL    C9346623   3.650   4.605   3.384 -0.2849 -0.0958  0.8059
  166MOL    H9446624   3.526   4.458   3.659  1.9016  1.0669  1.3478
  166MOL    H9546625   3.598   4.268   3.567 -3.1719 -0.6029 -0.5382
  166MOL    H9646626   3.696   4.154   3.372  1.2231 -1.0145 -1.3189
  166MOL    H9746627   3.671   4.334   3.122  0.1848 -1.5139 -3.5867
  166MOL    H9846628   3.745   4.495   3.225  0.5915 -0.9063  1.0161
  166MOL    H9946629   3.639   4.698   3.332 -1.4776 -0.8683 -0.3636
  166MOL   C10046630   3.665   4.112   3.096  0.3553  0.2812 -0.9335
  166MOL   C10146631   3.610   4.124   2.967  0.0431 -0.3199 -0.4208
  166MOL   C10246632   3.574   4.005   2.897  0.2580 -0.0917 -0.1328
  166MOL   C10346633   3.585   3.883   2.959  0.3291  0.2758  0.2848
  166MOL   C10446634   3.526   3.766   2.891 -0.5620  0.4236  0.2318
  166MOL   C10546635   3.403   3.772   2.831 -0.3682 -0.2653  0.5286
  166MOL   C10646636   3.637   3.875   3.094 -0.0837  0.1981  0.1979
  166MOL   C10746637   3.685   3.991   3.162  0.9688  0.5999 -0.6670
  166MOL   H10846638   3.590   4.222   2.924 -1.5216 -0.2062  0.5280
  166MOL   H10946639   3.534   4.006   2.796 -1.3055  0.2202  0.4655
  166MOL   H11046640   3.585   3.676   2.887 -1.8690 -0.3702 -2.3785
  166MOL   H11146641   3.344   3.863   2.836 -1.5662 -1.0566  1.0699
  166MOL   H11246642   3.646   3.777   3.139  1.4104  0.9442  1.5829
  166MOL   H11346643   3.735   3.979   3.257 -0.1075  0.4107 -0.1243
  166MOL   C11446644   3.320   3.671   2.765 -0.3749  0.0544 -0.5352
  166MOL   C11546645   3.356   3.539   2.747 -0.1806  0.0768  0.3853
  166MOL   C11646646   3.281   3.447   2.670 -0.1729  0.1431  0.7388
  166MOL   C11746647   3.155   3.487   2.613  0.2175  0.1910  0.1942
  166MOL   C11846648   3.070   3.397   2.533  0.0973 -0.1274 -0.9349
  166MOL   C11946649   2.946   3.424   2.492 -0.6207 -0.4565  0.2169
  166MOL   C12046650   3.114   3.615   2.648  0.6678  0.0557 -0.2933
  166MOL   C12146651   3.192   3.707   2.720 -0.1314  0.3224 -0.3848
  166MOL   H12246652   3.450   3.498   2.779 -0.2771 -0.5168 -0.0768
  166MOL   H12346653   3.312   3.343   2.668 -3.0147 -0.7389 -2.4588
  166MOL   H12446654   3.114   3.301   2.511  1.3249 -0.1968  1.6424
  166MOL   H12546655   2.899   3.520   2.509 -0.6718 -0.7420  1.7176
  166MOL   H12646656   3.027   3.664   2.607  1.3435  2.4814  1.0626
  166MOL   H12746657   3.158   3.808   2.736  0.4947  0.1314  2.5266
  166MOL   C12846658   2.859   3.333   2.420  0.4826 -0.2334  0.0529
  166MOL   C12946659   2.716   3.365   2.405  0.4372 -0.1428  0.1779
  166MOL   C13046660   2.629   3.265   2.358  0.1919  0.3075 -0.7918
  166MOL   C13146661   2.674   3.140   2.309  0.1240 -0.0136  0.0147
  166MOL   C13246662   2.570   3.053   2.249 -0.0246  0.0068 -0.3011
  166MOL   C13346663   2.586   2.935   2.185  0.2697 -0.5552 -0.0454
  166MOL   C13446664   2.807   3.107   2.323  0.2620 -0.1680 -0.5188
  166MOL   C13546665   2.897   3.204   2.381  0.4379  0.5319  0.1580
  166MOL   H13646666   2.666   3.450   2.449 -0.6089 -0.6475 -0.0196
  166MOL   H13746667   2.523   3.281   2.369  0.4177  0.5583  1.2216
  166MOL   H13846668   2.470   3.093   2.249  0.3031  0.8357 -1.0805
  166MOL   H13946669   2.684   2.892   2.170  1.0413  0.5214  1.6800
  166MOL   H14046670   2.846   3.016   2.281  0.4192 -0.2389 -0.2220
  166MOL   H14146671   2.997   3.170   2.403 -0.4193 -1.9622  0.3671
  166MOL   C14246672   2.475   2.858   2.120 -0.6262 -0.0783 -1.0419
  166MOL   C14346673   2.517   2.749   2.033 -0.4224 -0.3991  0.5490
  166MOL   C14446674   2.419   2.691   1.949  0.0255 -0.7722  0.3394
  166MOL   C14546675   2.281   2.724   1.963  0.0203  0.1753  0.7072
  166MOL   C14646676   2.167   2.678   1.879  0.5849  0.2016 -0.3786
  166MOL   C14746677   2.164   2.591   1.778  0.5850  0.6558  0.4353
  166MOL   C14846678   2.243   2.813   2.068 -0.1787 -0.3937  0.3882
  166MOL   C14946679   2.339   2.888   2.136 -0.1991  0.0538  0.7603
  166MOL   H15046680   2.622   2.726   2.023 -0.7169 -1.3589 -0.3644
  166MOL   H15146681   2.453   2.614   1.881  0.1948  0.0376 -0.5027
  166MOL   H15246682   2.073   2.715   1.918 -0.2749  1.8168 -3.8170
  166MOL   H15346683   2.263   2.559   1.751  1.2723  1.4517  1.9174
  166MOL   H15446684   2.145   2.854   2.090  1.1740  2.3452  1.4908
  166MOL   H15546685   2.303   2.965   2.203 -0.0603 -0.9722  2.0413
  166MOL   C15646686   2.035   2.558   1.713 -0.5341  0.4428  0.5302
  166MOL   C15746687   1.908   2.590   1.770 -0.6941  0.2637 -0.4538
  166MOL   C15846688   1.786   2.550   1.713 -0.3119 -0.0850 -0.9521
  166MOL   C15946689   1.789   2.493   1.585 -0.5027  0.1051 -0.3274
  166MOL   C16046690   1.655   2.472   1.529  0.4703  0.1242 -0.1316
  166MOL   C16146691   1.625   2.375   1.436 -0.1409 -0.1505 -0.1443
  166MOL   C16246692   1.911   2.462   1.524 -1.1103 -0.5428  0.7894
  166MOL   C16346693   2.033   2.491   1.593 -0.3977  0.2329 -0.1591
  166MOL   H16446694   1.897   2.639   1.866  0.1974  1.0377 -0.7487
  166MOL   H16546695   1.694   2.564   1.767 -0.0032  0.3298 -0.5232
  166MOL   H16646696   1.573   2.531   1.566 -0.5010 -2.5062  2.1017
  166MOL   H16746697   1.699   2.302   1.406  1.3377  1.7359 -1.2663
  166MOL   H16846698   1.917   2.402   1.435 -0.4658  1.9521 -0.9119
  166MOL   H16946699   2.128   2.458   1.554  0.2753  1.3835  0.4926
  166MOL   C17046700   1.487   2.366   1.372 -0.5564 -0.5298 -0.1360
  166MOL   C17146701   1.454   2.262   1.283  0.2462 -0.7139  0.4973
  166MOL   C17246702   1.322   2.250   1.229 -0.0233 -0.5261  0.2043
  166MOL   C17346703   1.227   2.354   1.244 -0.6935  0.4955  0.7909
  166MOL   C17446704   1.099   2.333   1.176  0.0079 -0.0732 -0.3184
  166MOL   C17546705   0.987   2.409   1.184 -0.7836 -0.1504 -0.2862
  166MOL   C17646706   1.264   2.460   1.331  0.6150 -0.0203  0.5586
  166MOL   C17746707   1.387   2.463   1.396 -0.2996 -0.1402 -0.1972
  166MOL   H17846708   1.525   2.183   1.263  3.6891  2.2364  0.4896
  166MOL   H17946709   1.299   2.162   1.170 -3.1133  1.4298 -1.6655
  166MOL   H18046710   1.093   2.251   1.106  0.5220 -0.1288 -0.3013
  166MOL   H18146711   0.981   2.492   1.253 -1.8788 -0.2920 -0.1871
  166MOL   H18246712   1.194   2.542   1.346  2.3824  1.9914 -1.7794
  166MOL   H18346713   1.409   2.551   1.455  0.0612 -0.3575 -0.0044
  166MOL   C18446714   0.863   2.388   1.101 -0.7445  0.1236 -0.2241
  166MOL   C18546715   0.850   2.312   0.981  0.6812  0.0504 -0.4871
  166MOL   C18646716   0.724   2.294   0.918  0.3132 -0.4247 -0.5476
  166MOL   C18746717   0.608   2.353   0.974  0.3649  0.2592 -1.0001
  166MOL   C18846718   0.476   2.332   0.911  0.4221  0.5332  0.1861
  166MOL   C18946719   0.359   2.364   0.968 -0.5777 -0.1975  0.3011
  166MOL   C19046720   0.624   2.420   1.098  0.0151 -0.8968 -0.7257
  166MOL   C19146721   0.749   2.435   1.161 -0.2747  0.0260  0.0614
  166MOL   H19246722   0.938   2.270   0.935  0.4216 -3.7471  2.3008
  166MOL   H19346723   0.729   2.246   0.821  1.1512  1.4810 -1.4800
  166MOL   H19446724   0.478   2.294   0.810  0.9236  0.8584  0.0736
  166MOL   H19546725   0.356   2.407   1.067 -1.8581  1.2556 -0.3484
  166MOL   H19646726   0.536   2.447   1.154  0.3870  1.8330 -1.3567
  166MOL   H19746727   0.750   2.479   1.260 -1.3485 -1.1316  0.6088
  166MOL   C19846728   0.228   2.342   0.903  0.0013  0.2242  0.2323
  166MOL   C19946729   0.214   2.298   0.773  0.4017  0.1591 -0.2079
  166MOL   C20046730   0.085   2.271   0.719 -0.3740  0.0871 -0.1865
  166MOL   C20146731   8.115   2.293   0.797 -0.6765  0.4164 -0.4799
  166MOL   C20246732   7.987   2.268   0.739  0.4575  0.6689 -0.5070
  166MOL   C20346733   7.859   2.298   0.787 -0.5966 -0.1186  0.1595
  166MOL   C20446734   8.131   2.338   0.927 -0.1103 -0.6646  0.2977
  166MOL   C20546735   0.114   2.361   0.979 -0.7143 -0.0404 -0.0976
  166MOL   H20646736   0.298   2.264   0.714 -0.1360 -0.3804 -0.6685
  166MOL   H20746737   0.094   2.239   0.616  0.8425 -2.3517  0.6479
  166MOL   H20846738   7.982   2.217   0.644  0.7425  0.4566 -0.4080
  166MOL   H20946739   7.844   2.347   0.882 -0.5016 -0.0573  0.1428
  166MOL   H21046740   8.043   2.361   0.984 -1.0879 -2.2292 -0.5429
  166MOL   H21146741   0.131   2.392   1.081  0.1996  0.0593 -0.2770
  166MOL   C21246742   7.729   2.276   0.718  0.1061  0.4750 -0.3576
  166MOL   C21346743   7.615   2.285   0.793  0.2043 -1.0197 -0.3963
  166MOL   C21446744   7.486   2.268   0.738 -0.1664  0.2637 -0.1204
  166MOL   C21546745   7.473   2.234   0.606  0.0937 -0.6108 -0.3741
  166MOL   C21646746   7.338   2.193   0.558 -0.6313  0.0179  0.4102
  166MOL   C21746747   7.311   2.152   0.440 -0.5685 -0.1005 -0.1972
  166MOL   C21846748   7.583   2.231   0.520  0.2367 -0.7042 -0.4645
  166MOL   C21946749   7.716   2.249   0.579 -0.2065  0.1023 -0.4681
  166MOL   H22046750   7.621   2.308   0.898  1.2597  3.2943 -1.2747
  166MOL   H22146751   7.400   2.284   0.801 -1.4652 -0.5128 -1.6707
  166MOL   H22246752   7.258   2.212   0.628  0.0726  1.2406  0.9208
  166MOL   H22346753   7.385   2.129   0.364  1.3089  2.2709  0.8715
  166MOL   H22446754   7.564   2.211   0.416 -0.4611  1.3772 -0.7597
  166MOL   H22546755   7.805   2.245   0.518  1.1877  0.7664  1.4695
  166MOL   C22646756   7.172   2.119   0.392 -0.4495  1.0605 -0.3752
  166MOL   C22746757   7.157   2.078   0.250 -0.8566 -0.2046  0.0330
  166MOL   C22846758   7.038   2.024   0.204  1.1830 -0.1456  0.1900
  166MOL   C22946759   6.929   2.026   0.292 -0.1553  0.7614  0.4846
  166MOL   C23046760   6.798   1.985   0.241 -0.0325  0.3893  1.0187
  166MOL   C23146761   6.687   1.958   0.308  0.2888 -0.9068  0.3906
  166MOL   C23246762   6.937   2.076   0.423  0.3645 -0.5815 -0.8259
  166MOL   C23346763   7.059   2.125   0.472  0.8605  0.2285  0.1074
  166MOL   H23446764   7.247   2.089   0.192  0.0529  1.0981  1.6569
  166MOL   H23546765   7.014   1.989   0.105  0.6056  2.7869 -0.7702
  166MOL   H23646766   6.788   1.977   0.134 -2.4120  0.7124  1.1840
  166MOL   H23746767   6.681   1.963   0.416  0.3086  1.7941  0.2935
  166MOL   H23846768   6.847   2.075   0.483  1.6957  1.3759  1.3198
  166MOL   H23946769   7.053   2.156   0.575  0.8154 -0.5619  0.3390
  166MOL   C24046770   6.562   1.914   0.240 -0.3470 -0.5531  0.2636
  166MOL   C24146771   6.552   1.851   0.113  0.0450  0.4729 -0.0546
  166MOL   C24246772   6.427   1.844   0.050  0.4400  0.4869  0.2451
  166MOL   C24346773   6.309   1.888   0.113  0.5733 -0.8979 -0.7882
  166MOL   C24446774   6.185   1.902   0.030  0.1709  0.2210 -0.4943
  166MOL   C24546775   6.067   1.938   0.082 -0.2382  0.1524  0.3463
  166MOL   C24646776   6.319   1.939   0.245  0.7964 -0.7901  0.2477
  166MOL   C24746777   6.445   1.964   0.300 -0.1616  0.4784  0.3405
  166MOL   H24846778   6.636   1.826   0.050  0.4565  1.5950  0.0454
  166MOL   H24946779   6.425   1.805   8.094  0.0263  1.2657 -0.0551
  166MOL   H25046780   6.202   1.882   8.070  0.2227 -2.5591  0.0242
  166MOL   H25146781   6.065   1.967   0.186 -0.8034  1.4091 -0.0007
  166MOL   H25246782   6.233   1.977   0.299  1.0404 -1.6550  1.2584
  166MOL   H25346783   6.443   2.019   0.393 -2.9019 -1.1178  1.2936
  166MOL   C25446784   5.939   1.957   0.007 -0.0920  0.6379  0.3437
  166MOL   C25546785   5.825   1.978   0.083  0.8261  1.4331 -0.9034
  166MOL   C25646786   5.702   1.995   0.023  0.5600 -0.0785  0.3774
  166MOL   C25746787   5.687   1.979   8.025  0.7943 -0.2648  1.1811
  166MOL   C25846788   5.548   1.977   7.973 -0.2167  0.0151 -0.1089
  166MOL   C25946789   5.500   2.060   7.871  0.6096  0.3755 -0.6515
  166MOL   C26046790   5.800   1.945   7.949 -0.3195  0.0433  0.0550
  166MOL   C26146791   5.925   1.938   8.012  0.1712 -0.2923 -0.0425
  166MOL   H26246792   5.826   1.991   0.190 -1.0265  0.3202 -0.7403
  166MOL   H26346793   5.614   2.020   0.080  0.0707  0.1244 -0.4488
  166MOL   H26446794   5.483   1.912   8.028 -1.8886  0.7924 -1.1165
  166MOL   H26546795   5.396   2.051   7.843  0.9999  1.1133 -2.4026
  166MOL   H26646796   5.791   1.928   7.843  1.3941  0.4503 -0.1670
  166MOL   H26746797   6.012   1.914   7.951  2.0344  0.4985  2.2230
  166MOL   C26846798   5.574   2.169   7.799 -0.2932  0.0935 -0.4310
  166MOL   C26946799   5.677   2.245   7.853  0.1456  0.6677  0.3974
  166MOL   C27046800   5.741   2.351   7.781  0.1370 -0.5467 -0.2449
  166MOL   C27146801   5.697   2.386   7.652  0.7616 -0.3824  0.0730
  166MOL   C27246802   5.759   2.487   7.573  0.1858 -0.1067 -0.2452
  166MOL   C27346803   5.878   2.541   7.579 -0.2881 -0.4560  0.2661
  166MOL   C27446804   5.590   2.308   7.600 -0.4244 -0.0997  0.8175
  166MOL   C27546805   5.529   2.200   7.670 -0.3493 -0.1827  0.6023
  166MOL   H27646806   5.703   2.236   7.957  1.5545  0.8637  0.0707
  166MOL   H27746807   5.823   2.403   7.828  1.0857 -0.1565 -2.2910
  166MOL   H27846808   5.699   2.524   7.491  1.1399 -0.8604 -1.2941
  166MOL   H27946809   5.952   2.514   7.653 -0.8097 -0.4251  0.7997
  166MOL   H28046810   5.559   2.334   7.500  1.2665  0.9834  0.5666
  166MOL   H28146811   5.453   2.147   7.616  2.2153 -1.2044 -2.1240
  166MOL   H28246812   5.908   2.619   7.510  0.4393  0.0021  1.0837
  167MOL     C146813   3.359   4.329   5.773 -0.7830 -0.4908 -0.3929
  167MOL     C246814   3.388   4.211   5.703  0.0249  0.1732  0.6621
  167MOL     C346815   3.282   4.127   5.666  0.0474  0.1366  0.9047
  167MOL     C446816   3.147   4.159   5.699  0.5490 -0.0126  0.3546
  167MOL     C546817   3.035   4.071   5.680 -0.2685  0.3286  0.3789
  167MOL     C646818   3.035   3.952   5.619 -0.0402  0.1779  0.5206
  167MOL     C746819   3.124   4.283   5.765  0.1606 -0.1989 -1.1881
  167MOL     C846820   3.227   4.361   5.808 -0.2251 -0.3268  0.0125
  167MOL     H946821   3.485   4.186   5.664  0.6370  1.6333  1.1951
  167MOL    H1046822   3.310   4.036   5.615 -0.3213  1.0862 -1.0643
  167MOL    H1146823   2.940   4.105   5.717 -0.9615  0.4429 -1.4495
  167MOL    H1246824   3.131   3.917   5.586  1.0758  1.4602  2.2773
  167MOL    H1346825   3.022   4.316   5.784 -0.1932 -0.7425 -2.1111
  167MOL    H1446826   3.206   4.452   5.862 -0.6339  0.9890 -2.3069
  167MOL    H1546827   3.437   4.398   5.802 -1.0209 -0.2379 -0.3551
  167MOL    C1646828   2.922   3.856   5.598  0.0059  0.1042  0.1780
  167MOL    C1746829   2.789   3.895   5.623  0.8438  0.4173  0.8064
  167MOL    C1846830   2.688   3.793   5.617 -0.1747  0.9576 -0.0194
  167MOL    C1946831   2.720   3.658   5.589  0.6078  0.2160  0.2348
  167MOL    C2046832   2.619   3.553   5.581  0.3699  0.5132  0.2477
  167MOL    C2146833   2.483   3.562   5.575  0.0821  0.2491  0.3553
  167MOL    C2246834   2.851   3.616   5.570 -0.5218 -0.3124  0.6277
  167MOL    C2346835   2.950   3.714   5.571  0.2049 -0.0032 -0.0200
  167MOL    H2446836   2.759   3.995   5.649  0.7861  0.2885  1.2289
  167MOL    H2546837   2.587   3.821   5.643  0.1651  1.2808  0.9762
  167MOL    H2646838   2.660   3.453   5.578 -2.5359 -0.7285  0.1946
  167MOL    H2746839   2.437   3.659   5.579  2.0150  1.1686  0.8382
  167MOL    H2846840   2.876   3.514   5.544 -1.2683  0.0989 -1.8725
  167MOL    H2946841   3.053   3.685   5.555  0.2918  0.5163 -0.4504
  167MOL    C3046842   2.391   3.437   5.569  0.1354 -0.2392 -0.8266
  167MOL    C3146843   2.435   3.313   5.619 -0.3536 -0.0218 -0.5572
  167MOL    C3246844   2.357   3.201   5.599  0.2296 -0.3246  0.2374
  167MOL    C3346845   2.230   3.209   5.538 -0.1638  0.0638  0.3147
  167MOL    C3446846   2.148   3.090   5.512  0.4908 -0.0324  0.0113
  167MOL    C3546847   2.181   2.958   5.519  0.2870 -0.7158 -0.5552
  167MOL    C3646848   2.185   3.337   5.501  0.5955 -0.6327  0.5277
  167MOL    C3746849   2.261   3.451   5.513  0.9110  1.0517 -0.2342
  167MOL    H3846850   2.534   3.303   5.659 -1.2359  0.0646  1.7079
  167MOL    H3946851   2.400   3.107   5.629 -1.7958 -1.8343 -1.4678
  167MOL    H4046852   2.045   3.111   5.486  0.7707  2.3352  0.6856
  167MOL    H4146853   2.281   2.932   5.550  0.5384 -1.0191 -1.6059
  167MOL    H4246854   2.091   3.353   5.451  0.7702  1.7361  0.9045
  167MOL    H4346855   2.234   3.547   5.471 -1.5833 -0.4521 -2.2290
  167MOL    C4446856   2.087   2.849   5.505  0.1553  0.1237 -0.3022
  167MOL    C4546857   2.139   2.727   5.459 -0.5859 -0.2137  0.5808
  167MOL    C4646858   2.060   2.612   5.459 -0.1241  0.7621  0.2619
  167MOL    C4746859   1.920   2.618   5.509  0.0018 -0.8130  0.5620
  167MOL    C4846860   1.837   2.500   5.509 -0.3616  0.5264  0.2098
  167MOL    C4946861   1.704   2.497   5.508  0.0645  0.1998 -0.0146
  167MOL    C5046862   1.865   2.745   5.532 -0.9754 -0.6242  0.4826
  167MOL    C5146863   1.945   2.861   5.540 -0.3013  1.4267  0.5054
  167MOL    H5246864   2.245   2.732   5.440 -0.2094 -1.0989  2.4251
  167MOL    H5346865   2.105   2.525   5.413 -0.6745  1.4431 -1.5913
  167MOL    H5446866   1.896   2.410   5.504 -2.6862 -0.9471 -1.4283
  167MOL    H5546867   1.650   2.590   5.517 -1.1319 -0.5914  1.0640
  167MOL    H5646868   1.762   2.763   5.558 -1.0967 -1.8893  0.9138
  167MOL    H5746869   1.899   2.958   5.551 -2.6992  0.1707  1.8000
  167MOL    C5846870   1.627   2.371   5.530  1.2027  0.2676 -0.3283
  167MOL    C5946871   1.483   2.374   5.537  0.7846 -0.5538 -0.5693
  167MOL    C6046872   1.407   2.262   5.567 -0.3389 -0.2342 -0.1352
  167MOL    C6146873   1.464   2.138   5.602 -0.4687  0.1884  0.1004
  167MOL    C6246874   1.382   2.025   5.648 -1.0087 -0.3916 -0.8760
  167MOL    C6346875   1.251   2.028   5.647  0.6047 -0.0872  0.4902
  167MOL    C6446876   1.605   2.131   5.587 -0.5578 -0.2171 -0.4003
  167MOL    C6546877   1.683   2.239   5.545 -0.2466 -0.5489  0.5193
  167MOL    H6646878   1.432   2.469   5.530 -1.1911 -1.6040 -0.8628
  167MOL    H6746879   1.303   2.288   5.579 -1.0803 -2.4441 -1.5067
  167MOL    H6846880   1.433   1.940   5.691 -1.8885 -0.3718  0.2281
  167MOL    H6946881   1.189   2.104   5.603 -0.4268 -1.3479 -0.2468
  167MOL    H7046882   1.652   2.041   5.625 -1.1381  0.3453  1.6938
  167MOL    H7146883   1.789   2.221   5.533 -0.1526  0.3505 -0.0066
  167MOL    C7246884   1.170   1.915   5.690 -0.1547 -0.4555  0.3008
  167MOL    C7346885   1.207   1.819   5.784 -0.6641 -0.1158  0.2084
  167MOL    C7446886   1.112   1.731   5.838 -0.1215 -0.0041  0.1684
  167MOL    C7546887   0.987   1.711   5.781 -0.3911 -0.0650 -0.2559
  167MOL    C7646888   0.898   1.600   5.825  0.1469 -0.4040 -0.5067
  167MOL    C7746889   0.799   1.548   5.753 -0.1987 -0.0120 -0.2741
  167MOL    C7846890   0.947   1.807   5.682  0.7746  0.0755 -0.6791
  167MOL    C7946891   1.038   1.909   5.645 -0.2595  0.4553 -0.0836
  167MOL    H8046892   1.308   1.815   5.819 -1.5526  1.9960  3.1771
  167MOL    H8146893   1.149   1.669   5.919 -0.6562  1.7184  1.7715
  167MOL    H8246894   0.913   1.566   5.926  0.9236  0.7258 -0.2340
  167MOL    H8346895   0.776   1.591   5.657 -0.5082  1.5951  0.5037
  167MOL    H8446896   0.844   1.811   5.651  0.1108 -1.5851  1.1958
  167MOL    H8546897   1.014   1.991   5.578  0.7895  0.5795 -0.3321
  167MOL    C8646898   0.717   1.437   5.795 -0.2020  0.2110  0.1720
  167MOL    C8746899   0.757   1.348   5.899  0.9827  0.3803 -0.0000
  167MOL    C8846900   0.683   1.232   5.927  0.6123  0.4327  0.1538
  167MOL    C8946901   0.564   1.202   5.856  0.5324 -0.4998  0.5408
  167MOL    C9046902   0.504   1.077   5.883 -0.6290  0.5208 -0.1857
  167MOL    C9146903   0.418   1.011   5.806 -0.5810 -0.3429 -0.4268
  167MOL    C9246904   0.527   1.284   5.751 -0.5688 -0.7449  0.2782
  167MOL    C9346905   0.596   1.401   5.723 -0.6887 -0.4206  0.1804
  167MOL    H9446906   0.843   1.379   5.956 -0.5297  2.2222  1.3681
  167MOL    H9546907   0.719   1.157   5.995  2.9815  0.5160 -0.9646
  167MOL    H9646908   0.540   1.030   5.973  0.5213  1.6723 -0.0155
  167MOL    H9746909   0.389   1.051   5.710  1.0874  0.0591 -0.7709
  167MOL    H9846910   0.434   1.275   5.695  1.2925 -0.9198 -2.9013
  167MOL    H9946911   0.560   1.456   5.637  0.1159  0.3315  0.3141
  167MOL   C10046912   0.361   0.875   5.844  0.0227  0.6010  0.1450
  167MOL   C10146913   0.393   0.801   5.957  0.2131 -0.3855 -0.5801
  167MOL   C10246914   0.341   0.677   5.986  0.3852  0.5288  0.3125
  167MOL   C10346915   0.243   0.625   5.908 -0.2190 -0.9182 -0.2177
  167MOL   C10446916   0.159   0.503   5.931  0.1864  0.2487  0.2417
  167MOL   C10546917   0.143   0.450   6.058  0.1185 -1.2134  0.5465
  167MOL   C10646918   0.210   0.693   5.792 -0.2992  0.0438  0.3721
  167MOL   C10746919   0.269   0.819   5.757  0.2890  0.4102  0.0237
  167MOL   H10846920   0.464   0.838   6.028 -2.0628  0.0097  1.5571
  167MOL   H10946921   0.371   0.632   6.080 -2.0664  2.8551  2.2786
  167MOL   H11046922   0.119   0.456   5.842  1.2303  1.0527 -0.6762
  167MOL   H11146923   0.183   0.502   6.144  0.5580  2.1379 -1.6229
  167MOL   H11246924   0.129   0.657   5.732 -0.7507  1.9124 -0.1880
  167MOL   H11346925   0.236   0.876   5.671 -1.9089  1.9328  1.8243
  167MOL   C11446926   0.086   0.316   6.087 -0.0236 -0.1515 -0.2290
  167MOL   C11546927   0.085   0.215   5.990 -0.0803 -0.8789  0.5959
  167MOL   C11646928   0.035   0.082   6.017 -1.0500  0.7314  0.0219
  167MOL   C11746929   8.136   0.052   6.146 -0.1507 -0.4168  0.0286
  167MOL   C11846930   8.101   8.063   6.184  0.7502  0.4629  0.8222
  167MOL   C11946931   8.084   7.954   6.105 -1.0074 -0.4334 -0.3776
  167MOL   C12046932   8.125   0.155   6.244  0.3880  0.8909  0.7554
  167MOL   C12146933   0.032   0.285   6.213  0.7954  1.0825  0.0436
  167MOL   H12246934   0.122   0.242   5.892 -1.0067  0.3994  0.5692
  167MOL   H12346935   0.042   0.008   5.938  0.0580 -0.6776  1.4187
  167MOL   H12446936   8.094   8.054   6.291 -1.9437 -0.2819  0.6256
  167MOL   H12546937   8.106   7.961   5.999  0.4459  1.2831  0.0138
  167MOL   H12646938   8.080   0.123   6.337  1.0643  1.7184  1.3758
  167MOL   H12746939   0.033   0.356   6.294  1.2954 -0.6060  1.5795
  167MOL   C12846940   8.050   7.827   6.160  0.6180 -0.4616 -0.2337
  167MOL   C12946941   8.066   7.717   6.077  0.5843 -0.0542 -0.0388
  167MOL   C13046942   8.064   7.584   6.121  0.0025 -0.7243  0.2012
  167MOL   C13146943   8.051   7.555   6.256  0.7487  0.0592 -0.1260
  167MOL   C13246944   8.059   7.420   6.316  0.0443  0.8062 -0.9565
  167MOL   C13346945   8.058   7.303   6.245  0.1000 -0.1396 -0.0242
  167MOL   C13446946   8.024   7.663   6.339  0.6783 -0.1719 -0.3600
  167MOL   C13546947   8.025   7.801   6.295  0.7321 -0.8093 -0.1652
  167MOL   H13646948   8.101   7.731   5.976 -0.2316 -0.9277 -0.4533
  167MOL   H13746949   8.090   7.508   6.049 -2.1930  0.1743 -1.5987
  167MOL   H13846950   8.079   7.422   6.423  0.9666 -0.9079 -1.0854
  167MOL   H13946951   8.053   7.318   6.138 -4.0456  3.4615  0.5666
  167MOL   H14046952   8.021   7.646   6.445  1.2121  0.2966 -0.2701
  167MOL   H14146953   8.033   7.876   6.372  0.9616 -1.4190  0.4096
  167MOL   C14246954   8.078   7.167   6.303 -0.0285 -0.4037  0.2651
  167MOL   C14346955   8.072   7.143   6.442 -0.3581  0.0277  0.2970
  167MOL   C14446956   8.093   7.012   6.494 -0.4605 -0.2874  0.4996
  167MOL   C14546957   8.138   6.909   6.415 -0.0996 -0.3811  0.3033
  167MOL   C14646958   0.034   6.776   6.472  0.0262  0.3648  0.0404
  167MOL   C14746959   0.072   6.665   6.404 -0.0718 -0.3267 -0.2217
  167MOL   C14846960   8.139   6.933   6.274  0.3272 -0.3246 -0.1272
  167MOL   C14946961   8.109   7.056   6.220  0.7791 -0.6475  0.3019
  167MOL   H15046962   8.033   7.222   6.504  0.3202 -1.0848  2.1590
  167MOL   H15146963   8.078   6.997   6.600 -0.8797 -0.5403  0.4050
  167MOL   H15246964   0.034   6.768   6.580 -1.1774 -1.4175 -0.0765
  167MOL   H15346965   0.069   6.658   6.297  0.8075  1.8680 -0.4226
  167MOL   H15446966   0.035   6.858   6.209  0.0460  0.8259 -1.6480
  167MOL   H15546967   8.110   7.056   6.112 -1.1676 -0.8146  0.2673
  167MOL   C15646968   0.123   6.545   6.475 -0.5626 -0.6144 -0.0976
  167MOL   C15746969   0.205   6.557   6.594  0.5481  0.0714  0.6654
  167MOL   C15846970   0.247   6.448   6.675 -0.4112 -1.1268  0.8235
  167MOL   C15946971   0.201   6.320   6.643 -0.2644  0.5846  0.4786
  167MOL   C16046972   0.234   6.198   6.723  0.0106  0.1729  0.3450
  167MOL   C16146973   0.341   6.188   6.811 -0.2949 -0.4778  0.1847
  167MOL   C16246974   0.130   6.308   6.521 -0.3378 -0.3081 -0.6493
  167MOL   C16346975   0.089   6.419   6.442  0.0162  0.8771 -0.4677
  167MOL   H16446976   0.234   6.652   6.637 -1.2605 -0.1249  2.3882
  167MOL   H16546977   0.322   6.470   6.749  1.3753  2.4298 -1.8263
  167MOL   H16646978   0.165   6.116   6.707 -0.2912  0.3394  0.7973
  167MOL   H16746979   0.411   6.269   6.827 -1.2581  0.7447 -1.5771
  167MOL   H16846980   0.088   6.214   6.488  2.7085 -1.0335 -2.6507
  167MOL   H16946981   0.027   6.398   6.356  1.5695 -2.6938 -0.7765
  167MOL   C17046982   0.378   6.069   6.888 -0.4409  0.5570 -0.2221
  167MOL   C17146983   0.466   6.086   7.000 -0.1456 -0.2571  0.4007
  167MOL   C17246984   0.489   5.971   7.086  0.0529 -0.3112 -0.6415
  167MOL   C17346985   0.410   5.853   7.073  0.7060 -0.2340  1.1876
  167MOL   C17446986   0.436   5.727   7.157  0.3880  0.7481 -0.1867
  167MOL   C17546987   0.544   5.703   7.230 -0.6167  0.1848  0.2938
  167MOL   C17646988   0.312   5.842   6.973 -0.4820 -0.2745 -0.3071
  167MOL   C17746989   0.305   5.951   6.877  0.5646 -0.3959 -0.2950
  167MOL   H17846990   0.514   6.178   7.030  1.3261 -1.4958  1.9473
  167MOL   H17946991   0.561   5.973   7.167  1.6678  0.2306 -2.0723
  167MOL   H18046992   0.350   5.662   7.168  1.0514 -0.5257 -2.1850
  167MOL   H18146993   0.628   5.770   7.216  1.7997 -2.7333  0.1541
  167MOL   H18246994   0.244   5.758   6.977  2.1759 -2.5144 -0.9361
  167MOL   H18346995   0.221   5.944   6.810 -1.2216 -3.2418  2.1159
  167MOL   C18446996   0.572   5.588   7.319  1.0610  0.4149  0.6444
  167MOL   C18546997   0.496   5.474   7.325 -0.4682  1.0682  0.4399
  167MOL   C18646998   0.526   5.368   7.414  0.4703 -0.1386 -0.1504
  167MOL   C18746999   0.632   5.379   7.501 -0.6270 -0.2005 -0.5926
  167MOL   C18847000   0.658   5.263   7.582  0.4367 -0.2062  0.9421
  167MOL   C18947001   0.768   5.254   7.654 -0.5242  0.0410 -1.1042
  167MOL   C19047002   0.707   5.502   7.505  0.0664  0.6544  0.3300
  167MOL   C19147003   0.668   5.612   7.417 -0.0450 -0.3289  0.7200
  167MOL   H19247004   0.410   5.458   7.261 -2.1940  0.8654  2.7328
  167MOL   H19347005   0.455   5.286   7.406  1.0060 -0.7966  1.7081
  167MOL   H19447006   0.588   5.180   7.586  1.0065 -0.6593  1.6118
  167MOL   H19547007   0.844   5.330   7.646 -0.4940 -0.0497 -1.7237
  167MOL   H19647008   0.786   5.525   7.574  3.4065 -0.4192 -2.9835
  167MOL   H19747009   0.732   5.699   7.422  1.1893 -1.1800  0.0352
  167MOL   C19847010   0.806   5.153   7.757  0.2686  0.5368 -0.1284
  167MOL   C19947011   0.918   5.173   7.843  0.0189  0.5293 -0.6919
  167MOL   C20047012   0.956   5.071   7.936  0.2181  0.1137  0.4177
  167MOL   C20147013   0.893   4.946   7.936  0.5780  0.0890 -0.0144
  167MOL   C20247014   0.936   4.842   8.034 -0.1211 -0.5913  0.5379
  167MOL   C20347015   1.065   4.833   8.081  0.8079  0.3599 -0.2806
  167MOL   C20447016   0.781   4.927   7.851  0.2685  0.0205  0.4240
  167MOL   C20547017   0.745   5.022   7.757 -0.0167  0.0613 -0.0724
  167MOL   H20647018   0.975   5.265   7.843 -0.1398  0.6495  0.9173
  167MOL   H20747019   1.041   5.083   8.002  0.5634 -1.0328  0.2035
  167MOL   H20847020   0.855   4.776   8.063 -2.0195  1.2030 -0.5468
  167MOL   H20947021   1.140   4.901   8.043  0.8034  0.6490  0.2234
  167MOL   H21047022   0.735   4.829   7.851 -0.5816  0.4083 -0.4289
  167MOL   H21147023   0.670   5.001   7.682 -1.7999 -1.7040  2.1260
  167MOL   C21247024   1.119   4.755   0.052 -0.5086  0.5080  0.4816
  167MOL   C21347025   1.023   4.693   0.137  0.6677  0.5004  0.0665
  167MOL   C21447026   1.067   4.596   0.231 -0.1643  0.4902  0.4884
  167MOL   C21547027   1.207   4.569   0.241  0.4917  0.6408  0.1927
  167MOL   C21647028   1.246   4.465   0.342 -0.2458 -0.5198 -0.0465
  167MOL   C21747029   1.183   4.439   0.455  0.2440 -0.2423  0.0571
  167MOL   C21847030   1.300   4.637   0.160 -0.0992  0.4172  0.2280
  167MOL   C21947031   1.253   4.727   0.061 -0.5176 -0.1472  0.0726
  167MOL   H22047032   0.919   4.717   0.122  0.1300 -1.6655  0.2699
  167MOL   H22147033   0.995   4.533   0.281 -0.9470 -0.2394 -1.5013
  167MOL   H22247034   1.342   4.422   0.318 -0.9944 -1.8778 -0.6440
  167MOL   H22347035   1.087   4.483   0.477  0.3484 -0.1708  0.3748
  167MOL   H22447036   1.406   4.627   0.173 -0.3972  0.0418  2.6171
  167MOL   H22547037   1.326   4.775   8.142  0.6186  0.9722  2.1894
  167MOL   C22647038   1.227   4.351   0.565 -0.6539 -0.0932 -0.6803
  167MOL   C22747039   1.361   4.298   0.560 -0.1106  0.3915 -0.3174
  167MOL   C22847040   1.410   4.203   0.651  0.0125 -0.1455  0.3096
  167MOL   C22947041   1.325   4.158   0.754 -0.7782  0.7805  0.4253
  167MOL   C23047042   1.369   4.055   0.852 -0.7131 -0.0123  0.0459
  167MOL   C23147043   1.462   3.958   0.826  0.2044 -0.9307  0.5469
  167MOL   C23247044   1.197   4.219   0.771 -0.0835  0.4470 -0.6869
  167MOL   C23347045   1.144   4.306   0.673 -0.2065 -0.1595  0.6916
  167MOL   H23447046   1.428   4.320   0.478 -0.7100 -0.7344 -1.1212
  167MOL   H23547047   1.511   4.164   0.650  1.1241  2.5409  2.0564
  167MOL   H23647048   1.326   4.066   0.951  0.8619 -0.8665  0.8410
  167MOL   H23747049   1.512   3.947   0.731  0.8018  1.3241  0.5699
  167MOL   H23847050   1.127   4.196   0.850  1.5859  3.2070  1.6849
  167MOL   H23947051   1.042   4.342   0.678 -0.5625 -1.3542  2.4173
  167MOL   C24047052   1.515   3.873   0.939  0.2723 -0.1925 -0.3586
  167MOL   C24147053   1.450   3.854   1.063 -0.3779 -0.2465 -0.7732
  167MOL   C24247054   1.526   3.796   1.173  0.4165 -0.1718 -0.1148
  167MOL   C24347055   1.661   3.752   1.152 -0.5042  0.6191 -0.6599
  167MOL   C24447056   1.755   3.710   1.267 -0.7539 -0.4894  0.1408
  167MOL   C24547057   1.749   3.747   1.394  0.4886  0.5373  0.2704
  167MOL   C24647058   1.709   3.761   1.025 -0.4185  0.4733  0.5508
  167MOL   C24747059   1.642   3.820   0.919 -0.0103 -0.1871 -0.2760
  167MOL   H24847060   1.352   3.893   1.083 -0.2759  0.0436 -0.8266
  167MOL   H24947061   1.485   3.784   1.272  1.2071 -1.4516  0.0717
  167MOL   H25047062   1.837   3.648   1.235 -0.2765  0.4119 -0.4076
  167MOL   H25147063   1.675   3.813   1.436 -3.5106 -2.9968 -0.7674
  167MOL   H25247064   1.804   3.714   1.001 -0.7828 -2.1727  3.9017
  167MOL   H25347065   1.695   3.833   0.825  1.0717 -1.6061  0.1170
  167MOL   C25447066   1.854   3.706   1.492  0.5516 -0.2308 -0.0831
  167MOL   C25547067   1.819   3.722   1.623  0.8280 -0.0673  0.1756
  167MOL   C25647068   1.912   3.687   1.727 -0.3135  0.4767 -0.0919
  167MOL   C25747069   2.036   3.632   1.697  0.6712  0.4821 -0.2016
  167MOL   C25847070   2.134   3.596   1.805 -0.1076  0.9083 -1.2056
  167MOL   C25947071   2.106   3.551   1.931  0.2268 -0.2032  0.2875
  167MOL   C26047072   2.069   3.611   1.564 -0.0842 -0.2346 -0.1253
  167MOL   C26147073   1.980   3.650   1.458  0.6105 -0.2003  0.2269
  167MOL   H26247074   1.725   3.764   1.658  1.7023  0.9851  1.3188
  167MOL   H26347075   1.876   3.698   1.828 -1.1652  0.4469 -0.3881
  167MOL   H26447076   2.240   3.611   1.791  0.2903  0.7283  1.3773
  167MOL   H26547077   2.184   3.538   2.004 -2.1601 -3.2789  2.4300
  167MOL   H26647078   2.165   3.564   1.550 -0.9658 -1.8973 -0.7545
  167MOL   H26747079   2.013   3.634   1.357  2.0656 -0.3359  0.7027
  167MOL   C26847080   1.975   3.513   1.999 -1.0441 -0.3290 -0.1982
  167MOL   C26947081   1.882   3.426   1.939 -0.1672  0.8553  0.1255
  167MOL   C27047082   1.758   3.401   1.998 -0.1935 -0.1209 -1.0247
  167MOL   C27147083   1.724   3.470   2.118  0.2031  0.9135 -0.0395
  167MOL   C27247084   1.595   3.433   2.177 -0.5089 -0.0004 -0.0552
  167MOL   C27347085   1.529   3.517   2.256 -0.1858 -0.4765  0.0298
  167MOL   C27447086   1.814   3.563   2.174 -0.5517 -0.3396  0.3229
  167MOL   C27547087   1.938   3.581   2.118 -0.0819  0.5679  0.4849
  167MOL   H27647088   1.917   3.386   1.845 -0.9981  1.8289 -0.6032
  167MOL   H27747089   1.680   3.338   1.958  1.3321 -1.7852 -1.4151
  167MOL   H27847090   1.561   3.333   2.152 -1.8385  0.3674  0.2249
  167MOL   H27947091   1.570   3.616   2.260 -0.1376 -0.4461 -1.2120
  167MOL   H28047092   1.799   3.603   2.273  0.4027  1.1685 -0.1197
  167MOL   H28147093   1.997   3.646   2.181 -0.9377  0.9005  0.9458
  167MOL   H28247094   1.438   3.492   2.309 -1.3061  1.2881 -1.0418
  168MOL     C147095   7.969   3.340   0.936  0.9149  0.4963 -0.8231
  168MOL     C247096   7.974   3.480   0.918 -0.3152 -0.1309 -0.2640
  168MOL     C347097   7.858   3.562   0.950 -0.0757 -0.4150  0.3591
  168MOL     C447098   7.738   3.509   0.997 -0.2397  0.2279  0.2058
  168MOL     C547099   7.618   3.595   1.014 -0.1135  0.4812  0.2202
  168MOL     C647100   7.493   3.547   1.040  0.4171  0.2707  0.3079
  168MOL     C747101   7.741   3.370   1.033 -0.2018  0.4079  0.1305
  168MOL     C847102   7.851   3.290   0.995 -0.0110  0.3352 -0.0666
  168MOL     H947103   8.062   3.517   0.868 -0.5490  1.3343  0.3841
  168MOL    H1047104   7.869   3.669   0.943  1.7797 -0.7345 -2.1310
  168MOL    H1147105   7.625   3.702   1.006 -0.0699  0.6029  1.7886
  168MOL    H1247106   7.476   3.440   1.043 -0.9103  0.3179 -3.5777
  168MOL    H1347107   7.651   3.322   1.066 -1.3919  1.8297 -0.9567
  168MOL    H1447108   7.843   3.184   1.013 -0.0427  0.3826  0.1883
  168MOL    H1547109   8.049   3.273   0.907  0.1149 -0.6691 -0.4012
  168MOL    C1647110   7.380   3.637   1.054 -0.2049 -0.0789  0.0261
  168MOL    C1747111   7.250   3.575   1.034 -0.4401  0.1548 -1.1780
  168MOL    C1847112   7.140   3.655   1.057  0.1502  0.6191  0.2961
  168MOL    C1947113   7.137   3.793   1.087  0.3816  0.6494 -0.7706
  168MOL    C2047114   7.023   3.883   1.120  0.0249  0.4273 -0.0342
  168MOL    C2147115   6.897   3.836   1.116  0.5690 -0.3647 -0.3692
  168MOL    C2247116   7.266   3.850   1.094 -0.6345  1.0253  0.1409
  168MOL    C2347117   7.387   3.778   1.087  0.3343  0.0286  0.2330
  168MOL    H2447118   7.241   3.470   1.009 -0.1800  0.4304 -2.4688
  168MOL    H2547119   7.046   3.602   1.046  0.0695  0.5451  1.3502
  168MOL    H2647120   7.036   3.988   1.139  0.6871 -0.0231  2.0369
  168MOL    H2747121   6.875   3.733   1.091 -1.1298  0.0450 -0.6274
  168MOL    H2847122   7.282   3.952   1.123  2.0451 -0.0079  2.5708
  168MOL    H2947123   7.480   3.832   1.097  0.3678 -0.1549  0.9556
  168MOL    C3047124   6.773   3.924   1.135 -0.0691  0.3034 -0.1771
  168MOL    C3147125   6.649   3.857   1.131  0.0845  0.2769  0.7852
  168MOL    C3247126   6.525   3.927   1.138  0.6208 -0.6289  0.6677
  168MOL    C3347127   6.532   4.068   1.151 -0.7156  0.2420 -0.2391
  168MOL    C3447128   6.404   4.136   1.162 -0.1100 -0.1281  0.8742
  168MOL    C3547129   6.382   4.272   1.146 -0.1883 -0.0226 -0.6872
  168MOL    C3647130   6.658   4.132   1.162 -0.5821  0.2697  0.0408
  168MOL    C3747131   6.780   4.064   1.144 -0.4272  0.7366  0.0226
  168MOL    H3847132   6.661   3.751   1.122  1.7481  0.3508  1.8014
  168MOL    H3947133   6.431   3.874   1.131 -1.1408  2.5330 -0.4777
  168MOL    H4047134   6.322   4.067   1.175 -0.2060 -0.2124 -0.1313
  168MOL    H4147135   6.470   4.329   1.120  0.8627 -2.9884 -4.1435
  168MOL    H4247136   6.673   4.238   1.174  0.7150  0.1720 -0.5461
  168MOL    H4347137   6.868   4.126   1.140 -0.1615  0.3057 -0.7766
  168MOL    C4447138   6.253   4.348   1.151 -0.1181 -0.5298  0.9969
  168MOL    C4547139   6.259   4.485   1.151  0.6786 -0.0376 -0.8720
  168MOL    C4647140   6.141   4.562   1.145  0.2918 -0.1211  0.0937
  168MOL    C4747141   6.017   4.500   1.144  0.0262 -0.0666 -0.0594
  168MOL    C4847142   5.894   4.588   1.140 -0.5477  0.3943 -0.1266
  168MOL    C4947143   5.767   4.542   1.124 -0.5360  0.5053 -0.1250
  168MOL    C5047144   6.006   4.358   1.148 -0.0049 -0.8384  0.6942
  168MOL    C5147145   6.126   4.287   1.147  0.2136  0.8590 -0.2780
  168MOL    H5247146   6.349   4.544   1.152  0.6032  0.0682  0.7509
  168MOL    H5347147   6.134   4.669   1.151 -1.9603 -0.2218 -0.1005
  168MOL    H5447148   5.919   4.692   1.153  1.7299  0.0623 -1.5643
  168MOL    H5547149   5.748   4.437   1.109  1.6882 -0.0858  0.9791
  168MOL    H5647150   5.910   4.311   1.164 -1.0357  1.3120  1.0054
  168MOL    H5747151   6.125   4.179   1.149 -0.1553  0.7833 -2.6883
  168MOL    C5847152   5.648   4.628   1.130 -0.0076 -0.2129  0.0832
  168MOL    C5947153   5.527   4.568   1.121 -0.4320  0.3685  0.1436
  168MOL    C6047154   5.411   4.647   1.128 -0.4786 -0.6179 -0.7541
  168MOL    C6147155   5.409   4.785   1.148 -0.4163  0.0787 -0.6998
  168MOL    C6247156   5.287   4.866   1.148 -0.3169  0.0145  0.6759
  168MOL    C6347157   5.170   4.828   1.101  0.5263 -0.0582 -0.2567
  168MOL    C6447158   5.535   4.844   1.165 -0.5816  0.5049 -0.7908
  168MOL    C6547159   5.650   4.764   1.155  0.1820  0.6711  0.3454
  168MOL    H6647160   5.514   4.461   1.106  1.8184  0.4159 -2.5131
  168MOL    H6747161   5.318   4.594   1.114  0.0867 -0.8512 -4.0833
  168MOL    H6847162   5.314   4.964   1.186 -0.1882  1.0323 -1.9299
  168MOL    H6947163   5.151   4.730   1.062 -0.3849 -0.2773  0.7097
  168MOL    H7047164   5.533   4.951   1.176 -2.5172  0.7138 -2.6376
  168MOL    H7147165   5.743   4.816   1.169  0.5129  1.1809 -3.1336
  168MOL    C7247166   5.045   4.909   1.121 -0.0624  0.0352  0.2387
  168MOL    C7347167   5.059   5.048   1.148  0.4809 -0.0895  0.1539
  168MOL    C7447168   4.945   5.128   1.162  0.2701 -0.3221  0.0986
  168MOL    C7547169   4.815   5.067   1.149 -0.3164  0.3148  0.3279
  168MOL    C7647170   4.700   5.157   1.153  0.2528 -0.0480 -0.2026
  168MOL    C7747171   4.568   5.128   1.140 -0.1212 -0.3744  0.4775
  168MOL    C7847172   4.802   4.929   1.114  0.6834  0.5290 -0.6464
  168MOL    C7947173   4.917   4.849   1.098  0.2400 -0.3623 -0.5601
  168MOL    H8047174   5.154   5.099   1.154 -0.6992  2.0572  1.1273
  168MOL    H8147175   4.963   5.233   1.177 -1.3304 -0.3550  2.5719
  168MOL    H8247176   4.721   5.262   1.173 -2.0958  1.1361 -3.5705
  168MOL    H8347177   4.535   5.026   1.126  0.5417 -0.2202 -2.5627
  168MOL    H8447178   4.702   4.892   1.097  0.1725  1.1648  0.8771
  168MOL    H8547179   4.915   4.746   1.066  2.1926  0.1581 -2.4698
  168MOL    C8647180   4.458   5.223   1.137  0.3360 -0.3435  0.5446
  168MOL    C8747181   4.324   5.181   1.148  0.4642 -0.1168  0.4086
  168MOL    C8847182   4.219   5.273   1.154 -0.2324 -0.4655  0.7749
  168MOL    C8947183   4.242   5.414   1.147  0.5336 -0.0107  0.4027
  168MOL    C9047184   4.133   5.513   1.145 -0.0616 -0.1431 -0.0335
  168MOL    C9147185   4.006   5.486   1.181  0.2636 -0.1769  0.1384
  168MOL    C9247186   4.378   5.460   1.133  1.0168  0.5023  0.3692
  168MOL    C9347187   4.480   5.364   1.132  0.1230 -0.3643  0.5904
  168MOL    H9447188   4.302   5.076   1.164 -1.0074  0.5055  2.9149
  168MOL    H9547189   4.117   5.240   1.146 -1.0632  1.7323  1.7913
  168MOL    H9647190   4.164   5.606   1.099  1.5908 -0.8872 -0.4534
  168MOL    H9747191   3.985   5.390   1.224  1.7461 -1.2120 -1.3693
  168MOL    H9847192   4.403   5.564   1.119  2.2213  0.0630 -0.8346
  168MOL    H9947193   4.577   5.409   1.116  0.2592 -0.0996  2.0870
  168MOL   C10047194   3.893   5.585   1.160  0.5481  1.3877  0.8028
  168MOL   C10147195   3.908   5.720   1.155 -0.2779 -0.0135 -0.0845
  168MOL   C10247196   3.796   5.807   1.132  0.4598  0.7045  0.4304
  168MOL   C10347197   3.667   5.749   1.110 -0.0903 -0.2818  0.2823
  168MOL   C10447198   3.554   5.825   1.063  0.3517 -0.4086  0.5158
  168MOL   C10547199   3.523   5.953   1.098 -0.0532 -0.3720  0.5782
  168MOL   C10647200   3.654   5.610   1.122 -0.3508  0.0516  0.4436
  168MOL   C10747201   3.764   5.531   1.145  0.3913 -0.2702 -0.3569
  168MOL   H10847202   4.006   5.765   1.152 -0.5439  0.5516 -0.3017
  168MOL   H10947203   3.812   5.913   1.119  0.1849  0.7065  0.0919
  168MOL   H11047204   3.490   5.763   1.002  0.6196 -2.0675  1.8844
  168MOL   H11147205   3.598   5.991   1.166  2.2719  1.2756 -2.7843
  168MOL   H11247206   3.557   5.565   1.104 -0.0583 -0.3957 -0.0085
  168MOL   H11347207   3.757   5.424   1.146  1.3094 -0.3328  0.6319
  168MOL   C11447208   3.399   6.036   1.073 -0.2914 -0.3942 -0.0384
  168MOL   C11547209   3.374   6.155   1.143  0.7123  0.5393 -0.3164
  168MOL   C11647210   3.243   6.207   1.126 -0.4230 -0.5130 -0.4254
  168MOL   C11747211   3.137   6.150   1.048  0.2123 -0.8680 -0.1991
  168MOL   C11847212   3.006   6.200   1.023  0.1522 -0.4910 -0.5956
  168MOL   C11947213   2.944   6.313   1.065 -0.8868  0.2940 -0.5454
  168MOL   C12047214   3.172   6.035   0.973  0.2745 -1.1408 -0.3204
  168MOL   C12147215   3.298   5.978   0.993 -0.1201  1.1982  0.2275
  168MOL   H12247216   3.446   6.199   1.211  0.8476 -1.4314  0.8522
  168MOL   H12347217   3.224   6.296   1.185  0.0654 -1.8893  1.8782
  168MOL   H12447218   2.957   6.135   0.952  2.5250 -0.0857 -2.7062
  168MOL   H12547219   3.004   6.371   1.133 -1.4387 -0.0725  0.2558
  168MOL   H12647220   3.098   5.990   0.909  0.3836 -0.6629 -0.7829
  168MOL   H12747221   3.315   5.883   0.944 -1.4076  1.3189 -0.4693
  168MOL   C12847222   2.814   6.364   1.022  0.6647 -0.1395 -0.1911
  168MOL   C12947223   2.738   6.304   0.917  0.3057 -0.6309  0.4782
  168MOL   C13047224   2.611   6.357   0.889 -0.2382 -0.1052 -0.3097
  168MOL   C13147225   2.566   6.479   0.947  1.0992 -0.0414 -0.1158
  168MOL   C13247226   2.437   6.535   0.900  0.6957 -0.5246  0.4488
  168MOL   C13347227   2.377   6.642   0.954 -0.0501  0.0506 -0.0174
  168MOL   C13447228   2.651   6.552   1.036  0.6106 -0.4604  0.0822
  168MOL   C13547229   2.766   6.488   1.079  1.1593  0.2170 -0.4823
  168MOL   H13647230   2.764   6.213   0.865 -2.1592 -0.2089 -1.6271
  168MOL   H13747231   2.551   6.304   0.817 -3.6957  2.9951  0.1185
  168MOL   H13847232   2.382   6.488   0.820 -3.6397  2.7711  1.2884
  168MOL   H13947233   2.430   6.709   1.019  1.6521  0.0497 -1.3843
  168MOL   H14047234   2.631   6.647   1.083 -0.5885 -0.0374 -1.2125
  168MOL   H14147235   2.818   6.533   1.162 -0.9382 -1.2617  1.6956
  168MOL   C14247236   2.242   6.694   0.924 -1.1598  0.6499  0.8724
  168MOL   C14347237   2.157   6.625   0.834 -0.4463  1.0348 -0.0488
  168MOL   C14447238   2.037   6.684   0.801 -0.1024  0.2870  0.0193
  168MOL   C14547239   1.991   6.802   0.861  0.3623  0.7708  0.5164
  168MOL   C14647240   1.857   6.850   0.819 -0.2776  0.6466 -0.4079
  168MOL   C14747241   1.808   6.976   0.827 -0.6001 -0.1089 -0.3990
  168MOL   C14847242   2.078   6.870   0.957  0.3424  0.1868  0.1718
  168MOL   C14947243   2.203   6.814   0.985 -0.5693 -0.8405 -0.6964
  168MOL   H15047244   2.183   6.529   0.791 -0.5677 -0.4411  2.9983
  168MOL   H15147245   1.978   6.631   0.727 -0.3406  0.2487  0.2332
  168MOL   H15247246   1.800   6.772   0.771  0.6086 -0.4944  0.3807
  168MOL   H15347247   1.869   7.051   0.875  0.3433 -0.6251 -0.7579
  168MOL   H15447248   2.054   6.962   1.008 -0.6228  0.0321  0.0189
  168MOL   H15547249   2.261   6.857   1.065 -1.5506  0.3556 -0.6133
  168MOL   C15647250   1.674   7.024   0.788  0.6959 -0.3304 -1.2751
  168MOL   C15747251   1.612   7.132   0.855 -0.5590  0.4220 -0.5445
  168MOL   C15847252   1.482   7.179   0.818 -0.3487 -0.4407  0.1011
  168MOL   C15947253   1.404   7.105   0.725 -0.2392  0.5461 -0.0358
  168MOL   C16047254   1.265   7.129   0.678 -0.0273 -0.6791 -0.0293
  168MOL   C16147255   1.196   7.242   0.687 -0.9587  0.5522 -0.5651
  168MOL   C16247256   1.460   6.987   0.676  0.6935 -0.2028  0.1011
  168MOL   C16347257   1.597   6.953   0.697 -0.7719  0.1376  0.4938
  168MOL   H16447258   1.674   7.193   0.919  0.2070 -1.0418  0.1379
  168MOL   H16547259   1.449   7.274   0.856  1.6011  0.5057 -0.4755
  168MOL   H16647260   1.223   7.042   0.629 -0.5414 -1.1248  1.1930
  168MOL   H16747261   1.247   7.328   0.728 -1.2410  0.0958  0.7841
  168MOL   H16847262   1.399   6.927   0.610 -0.0861  0.7239 -0.0190
  168MOL   H16947263   1.641   6.862   0.657 -1.2286  0.3567 -0.5129
  168MOL   C17047264   1.057   7.260   0.642 -0.0446  0.0864 -0.1407
  168MOL   C17147265   0.981   7.164   0.571  0.1777  0.2289 -0.5170
  168MOL   C17247266   0.845   7.183   0.550 -0.9200 -0.5177 -0.1198
  168MOL   C17347267   0.789   7.310   0.571 -0.4900 -0.7044 -0.2288
  168MOL   C17447268   0.655   7.331   0.519 -0.2089  0.7054 -0.3292
  168MOL   C17547269   0.597   7.450   0.507 -0.4348 -0.4915 -0.1420
  168MOL   C17647270   0.857   7.406   0.651  0.1755 -0.0786 -0.3716
  168MOL   C17747271   0.989   7.373   0.690 -1.0505  0.2666  0.3715
  168MOL   H17847272   1.031   7.078   0.528  1.5676 -0.4718  2.3367
  168MOL   H17947273   0.785   7.117   0.490 -2.1331  0.5550 -0.0923
  168MOL   H18047274   0.606   7.244   0.479  0.7077 -0.0980  0.2977
  168MOL   H18147275   0.651   7.541   0.530 -1.1622 -0.6087  2.1869
  168MOL   H18247276   0.812   7.502   0.672 -0.7285 -0.5542 -0.0866
  168MOL   H18347277   1.040   7.454   0.740 -0.3058  0.2533 -0.3456
  168MOL   C18447278   0.462   7.476   0.466 -0.0900  0.0037 -0.3272
  168MOL   C18547279   0.390   7.589   0.516 -0.7491 -0.1968 -0.1692
  168MOL   C18647280   0.258   7.616   0.480 -0.2138  0.6544  0.3335
  168MOL   C18747281   0.190   7.531   0.393 -0.1953  0.4522 -0.1497
  168MOL   C18847282   0.054   7.554   0.344  0.2960  0.0715 -0.5643
  168MOL   C18947283   8.128   7.671   0.346 -0.5754  0.0252  0.3070
  168MOL   C19047284   0.260   7.418   0.350  0.1337  0.8879  0.2495
  168MOL   C19147285   0.393   7.388   0.378 -0.6306 -0.6247  0.3981
  168MOL   H19247286   0.450   7.661   0.571  1.0620 -0.5294 -1.6608
  168MOL   H19347287   0.216   7.700   0.534 -0.4541  0.1455  0.9441
  168MOL   H19447288   0.006   7.464   0.308  1.4257 -0.7732 -0.0085
  168MOL   H19547289   0.035   7.758   0.383  1.1550 -0.6744 -0.3719
  168MOL   H19647290   0.214   7.342   0.288  3.6331 -1.9170  0.9343
  168MOL   H19747291   0.442   7.298   0.342 -0.4378 -0.1483 -0.5596
  168MOL   C19847292   7.997   7.688   0.292 -0.0090  0.1325 -0.4995
  168MOL   C19947293   7.939   7.811   0.265 -0.1188 -0.1003  1.1299
  168MOL   C20047294   7.812   7.830   0.205  0.8968  0.6248  0.8366
  168MOL   C20147295   7.741   7.717   0.153  0.2208 -1.1116  0.6805
  168MOL   C20247296   7.615   7.729   0.079 -0.1488  0.0681 -0.5455
  168MOL   C20347297   7.580   7.645   8.125 -0.9860 -0.8571  0.2749
  168MOL   C20447298   7.800   7.588   0.180 -0.6572  0.5539  0.0335
  168MOL   C20547299   7.920   7.578   0.246  0.3894  0.1308  0.2364
  168MOL   H20647300   7.990   7.899   0.301 -3.2504  1.8605  0.9197
  168MOL   H20747301   7.777   7.929   0.182  3.6825  1.4964  0.0465
  168MOL   H20847302   7.536   7.798   0.105 -0.0637  1.1076 -2.9806
  168MOL   H20947303   7.646   7.564   8.097 -0.2946 -0.6249  1.2260
  168MOL   H21047304   7.743   7.499   0.156  0.4906 -0.3022  0.4557
  168MOL   H21147305   7.952   7.477   0.268 -0.3204  0.1256  1.2949
  168MOL   C21247306   7.455   7.651   8.053 -0.1017 -0.4943 -0.2655
  168MOL   C21347307   7.338   7.710   8.103 -0.3911 -0.3899  0.1269
  168MOL   C21447308   7.214   7.711   8.025  0.0501  0.2284  0.5612
  168MOL   C21547309   7.219   7.655   7.895 -0.1228  0.2009  0.7381
  168MOL   C21647310   7.107   7.661   7.799 -0.6331 -0.2116  0.1218
  168MOL   C21747311   7.110   7.657   7.667 -0.0076  0.0378  0.0292
  168MOL   C21847312   7.341   7.596   7.850  0.0992 -0.0482  0.0086
  168MOL   C21947313   7.453   7.592   7.929 -0.4004  0.1533  0.6339
  168MOL   H22047314   7.336   7.748   0.060 -3.1584 -1.9938  0.7151
  168MOL   H22147315   7.118   7.753   8.052 -0.6118 -0.8077 -0.1785
  168MOL   H22247316   7.009   7.676   7.843  0.6429  2.5558  2.2210
  168MOL   H22347317   7.208   7.646   7.622 -0.3826  1.2959 -1.1296
  168MOL   H22447318   7.351   7.560   7.749  1.0415 -0.5097  0.2667
  168MOL   H22547319   7.538   7.539   7.889 -1.6223 -1.5164  0.1973
  168MOL   C22647320   6.998   7.665   7.581  0.4134 -0.2983  0.5667
  168MOL   C22747321   7.036   7.667   7.446 -0.6229 -0.2964  1.0234
  168MOL   C22847322   6.935   7.659   7.342  0.0216 -0.4069  0.7574
  168MOL   C22947323   6.795   7.666   7.373  0.3338 -0.5831 -0.4142
  168MOL   C23047324   6.694   7.673   7.270  0.1773  0.6313  0.0882
  168MOL   C23147325   6.723   7.691   7.141 -0.3941  0.6423 -0.3853
  168MOL   C23247326   6.762   7.671   7.509  0.5727 -0.1939 -0.3639
  168MOL   C23347327   6.859   7.674   7.611 -0.3827 -0.0396 -0.0867
  168MOL   H23447328   7.141   7.668   7.422 -1.2837  0.1325 -2.0485
  168MOL   H23547329   6.970   7.653   7.240  1.5783  2.6787  1.0624
  168MOL   H23647330   6.593   7.649   7.300  0.2362 -0.8896 -0.8521
  168MOL   H23747331   6.821   7.718   7.103  0.4791 -2.0743 -0.1639
  168MOL   H23847332   6.660   7.674   7.543  1.4406 -1.6217  2.5441
  168MOL   H23947333   6.838   7.689   7.716  3.0861  1.2696  0.4841
  168MOL   C24047334   6.630   7.676   7.021 -0.8480  0.1502 -0.2115
  168MOL   C24147335   6.656   7.757   6.907 -0.3445 -0.1819  0.0512
  168MOL   C24247336   6.570   7.753   6.796 -0.2758  0.1102 -0.2631
  168MOL   C24347337   6.458   7.660   6.791  0.6513  0.4641 -0.0582
  168MOL   C24447338   6.384   7.639   6.669  0.4377 -0.6610  0.4976
  168MOL   C24547339   6.426   7.676   6.549 -0.4936 -0.2420 -0.0653
  168MOL   C24647340   6.439   7.583   6.910  0.5220 -0.3696 -0.7149
  168MOL   C24747341   6.521   7.590   7.029  0.4896 -0.3332  0.5590
  168MOL   H24847342   6.735   7.831   6.915 -1.8062  1.3357  0.6856
  168MOL   H24947343   6.605   7.816   6.716 -0.0432  1.1357  0.6351
  168MOL   H25047344   6.288   7.590   6.677 -0.7747  1.7671  1.3665
  168MOL   H25147345   6.525   7.719   6.541 -0.5230  0.4229  2.7529
  168MOL   H25247346   6.360   7.509   6.904  0.3526 -0.2410 -0.0799
  168MOL   H25347347   6.498   7.528   7.114 -0.6362 -1.8322 -0.8085
  168MOL   C25447348   6.342   7.674   6.425 -0.2641 -0.5405  0.7946
  168MOL   C25547349   6.215   7.620   6.417  1.4508  0.3006 -0.3125
  168MOL   C25647350   6.142   7.637   6.300 -0.5003  0.6659  0.3141
  168MOL   C25747351   6.202   7.694   6.189 -0.2046 -0.2114  0.2262
  168MOL   C25847352   6.118   7.711   6.062 -0.7522  0.8267  0.4495
  168MOL   C25947353   6.129   7.798   5.963 -0.1389  0.3561 -0.6480
  168MOL   C26047354   6.331   7.747   6.198 -0.7382  0.1539 -0.1004
  168MOL   C26147355   6.404   7.745   6.317  0.0010  0.2341 -0.4158
  168MOL   H26247356   6.162   7.566   6.495 -0.5056  1.0629 -1.0934
  168MOL   H26347357   6.039   7.605   6.298 -0.4768  0.5866  0.3748
  168MOL   H26447358   6.050   7.629   6.044  1.4762 -1.0268  0.2015
  168MOL   H26547359   6.062   7.770   5.883 -0.8655 -2.9207  1.0058
  168MOL   H26647360   6.382   7.788   6.113  0.9164  0.1735  0.8847
  168MOL   H26747361   6.506   7.780   6.324  0.2153 -0.6104  0.8556
  168MOL   C26847362   6.204   7.917   5.955  0.7111 -0.2712 -0.4953
  168MOL   C26947363   6.259   7.964   5.837  0.5573 -0.0291  0.1596
  168MOL   C27047364   6.318   8.088   5.829  0.0990  0.0084  0.2804
  168MOL   C27147365   6.342   0.019   5.947 -0.3851  0.5138  0.0113
  168MOL   C27247366   6.416   0.150   5.945 -0.1388  0.7817  0.0699
  168MOL   C27347367   6.464   0.212   6.050  0.2667  0.2043 -0.3910
  168MOL   C27447368   6.294   8.117   6.068 -0.0334  0.2654 -0.3952
  168MOL   C27547369   6.224   7.997   6.069 -0.1934 -0.1678 -0.1631
  168MOL   H27647370   6.260   7.908   5.744  1.8387 -1.3506  0.9563
  168MOL   H27747371   6.343   8.117   5.728  0.2756  1.6736  0.7979
  168MOL   H27847372   6.444   0.187   5.847  0.0820  2.0923  0.6237
  168MOL   H27947373   6.442   0.186   6.153 -2.4950 -1.9556 -1.4888
  168MOL   H28047374   6.305   0.022   6.163 -2.5002 -0.5816  0.3545
  168MOL   H28147375   6.170   7.970   6.159 -0.3984  0.5698 -0.0662
  168MOL   H28247376   6.522   0.303   6.041  2.4390 -1.3496 -2.9998
  169MOL     C147377   7.549   3.029   4.068  0.2615  0.6678 -0.6491
  169MOL     C247378   7.496   3.091   3.957  0.2318 -0.0335  0.3751
  169MOL     C347379   7.363   3.128   3.943  0.6169 -0.3993  0.4945
  169MOL     C447380   7.274   3.102   4.056 -0.3534 -0.6890  0.3289
  169MOL     C547381   7.126   3.121   4.047 -0.8259 -0.2458 -0.1998
  169MOL     C647382   7.057   3.182   3.953 -0.1975  0.1287 -0.3187
  169MOL     C747383   7.329   3.045   4.174  0.4668 -0.2458 -0.1869
  169MOL     C847384   7.464   3.011   4.172 -0.7419  0.2459  0.0736
  169MOL     H947385   7.566   3.120   3.880 -0.7475  0.5841 -0.2899
  169MOL    H1047386   7.328   3.174   3.852  0.9837 -1.0409  0.0257
  169MOL    H1147387   7.077   3.072   4.129 -3.0835 -0.9531 -1.9249
  169MOL    H1247388   7.102   3.225   3.864  2.1824  0.8245  1.1934
  169MOL    H1347389   7.261   3.020   4.254 -0.8725  1.1070 -0.8818
  169MOL    H1447390   7.502   2.950   4.254 -0.1952  1.9986  1.1454
  169MOL    H1547391   7.652   3.000   4.083 -0.5613 -1.1709  1.7927
  169MOL    C1647392   6.910   3.173   3.942 -0.0498  0.2231  0.0181
  169MOL    C1747393   6.843   3.072   4.007  1.0173 -0.1325  0.4548
  169MOL    C1847394   6.702   3.077   4.016 -0.1829  0.0773 -0.0426
  169MOL    C1947395   6.628   3.174   3.943  0.0332 -0.5477  0.5140
  169MOL    C2047396   6.479   3.171   3.946  0.5991 -0.4628  0.0299
  169MOL    C2147397   6.392   3.263   3.897 -0.0906 -0.0435 -0.5080
  169MOL    C2247398   6.699   3.273   3.879  0.5812  0.5014  0.3643
  169MOL    C2347399   6.837   3.274   3.884  0.2287 -0.3515 -0.0302
  169MOL    H2447400   6.895   2.993   4.060  1.1609 -0.7959 -0.6499
  169MOL    H2547401   6.649   3.002   4.074  0.1282 -0.0071  0.1405
  169MOL    H2647402   6.442   3.076   3.983 -0.1562 -0.3095 -0.3280
  169MOL    H2747403   6.432   3.356   3.858 -0.2979 -0.2105 -1.1325
  169MOL    H2847404   6.648   3.347   3.819 -1.6578  0.1187  1.7287
  169MOL    H2947405   6.898   3.352   3.840 -0.9797  1.8172  2.0069
  169MOL    C3047406   6.250   3.244   3.886  0.6824  0.2543 -0.0668
  169MOL    C3147407   6.194   3.113   3.882 -0.0311 -0.1951 -0.2622
  169MOL    C3247408   6.055   3.091   3.861  0.0948  0.8635 -0.6442
  169MOL    C3347409   5.972   3.206   3.862 -0.1328  0.0483  0.0824
  169MOL    C3447410   5.826   3.202   3.851 -0.6065 -0.5138  0.3654
  169MOL    C3547411   5.753   3.084   3.843 -0.1602  0.0845 -0.7213
  169MOL    C3647412   6.025   3.333   3.880  0.7890 -0.4949  0.0631
  169MOL    C3747413   6.162   3.350   3.885  0.0306  0.4854 -0.4256
  169MOL    H3847414   6.256   3.026   3.865 -0.0425 -0.4217  0.8175
  169MOL    H3947415   6.016   2.991   3.847  0.0595  1.1305 -2.7453
  169MOL    H4047416   5.780   3.299   3.850 -0.7834 -0.6006 -0.3952
  169MOL    H4147417   5.806   2.990   3.852  1.8215  1.2521  0.3388
  169MOL    H4247418   5.971   3.427   3.872  2.2223  0.3088 -0.3573
  169MOL    H4347419   6.199   3.451   3.887 -0.5132  0.7521 -2.3496
  169MOL    C4447420   5.611   3.064   3.807 -0.0724 -0.5800  0.2218
  169MOL    C4547421   5.551   2.940   3.839  0.1544  0.8525  0.2310
  169MOL    C4647422   5.419   2.915   3.815 -0.0116 -0.8259 -0.0702
  169MOL    C4747423   5.337   3.019   3.765 -0.0772  0.4573 -0.6539
  169MOL    C4847424   5.195   3.012   3.754  0.2744  0.0551  0.1892
  169MOL    C4947425   5.115   2.906   3.772 -0.3520  0.3526  0.0113
  169MOL    C5047426   5.389   3.146   3.733  0.2091 -0.5596  0.2933
  169MOL    C5147427   5.523   3.167   3.759 -0.3885 -0.0817  0.5763
  169MOL    H5247428   5.616   2.862   3.875 -1.6738 -0.3931  0.8673
  169MOL    H5347429   5.376   2.818   3.839  0.7383 -0.8934  0.9873
  169MOL    H5447430   5.151   3.105   3.720 -1.6959 -1.2835 -0.9878
  169MOL    H5547431   5.163   2.811   3.789  2.0237  1.3314 -0.9997
  169MOL    H5647432   5.341   3.233   3.691 -0.9481  0.2633  3.1953
  169MOL    H5747433   5.569   3.262   3.734 -0.2075 -1.0989 -3.1795
  169MOL    C5847434   4.969   2.894   3.752 -0.0263  0.0228  0.3358
  169MOL    C5947435   4.900   2.773   3.753 -0.1197  0.3602  0.3232
  169MOL    C6047436   4.764   2.760   3.732 -0.5866 -0.0353 -0.6489
  169MOL    C6147437   4.692   2.877   3.697  0.1290  0.5477  0.1090
  169MOL    C6247438   4.551   2.866   3.665 -0.1474  0.1039 -0.4008
  169MOL    C6347439   4.487   2.753   3.641  0.4965  0.0872  0.1361
  169MOL    C6447440   4.761   3.005   3.700  0.6926 -0.0854 -0.0609
  169MOL    C6547441   4.896   3.015   3.734 -0.2283 -0.2640  0.0485
  169MOL    H6647442   4.958   2.683   3.768  0.9133  0.4413 -2.8167
  169MOL    H6747443   4.736   2.657   3.719  0.0949 -0.3655  0.4431
  169MOL    H6847444   4.495   2.957   3.655  1.9607  1.2197 -2.3402
  169MOL    H6947445   4.538   2.658   3.646 -1.1897 -0.8158  0.8768
  169MOL    H7047446   4.709   3.098   3.681 -0.1642 -1.2490 -3.7524
  169MOL    H7147447   4.936   3.115   3.733 -1.0632  0.0724 -0.4773
  169MOL    C7247448   4.346   2.746   3.596 -0.0058  0.2797 -0.3605
  169MOL    C7347449   4.280   2.623   3.598 -0.1387  0.4126  0.0848
  169MOL    C7447450   4.141   2.617   3.562 -0.0659  0.3066 -0.1147
  169MOL    C7547451   4.064   2.724   3.525 -0.0238  0.2207 -0.2280
  169MOL    C7647452   3.922   2.717   3.496 -0.1093  0.6625 -0.5879
  169MOL    C7747453   3.853   2.606   3.478  0.6399 -0.1441  0.2457
  169MOL    C7847454   4.130   2.848   3.522  0.4511  0.2011  0.2707
  169MOL    C7947455   4.269   2.862   3.561 -0.1945  0.0512 -0.1895
  169MOL    H8047456   4.322   2.533   3.639 -0.0930  0.8827  1.0894
  169MOL    H8147457   4.095   2.520   3.566  2.7792 -1.0860  0.1390
  169MOL    H8247458   3.876   2.815   3.491 -0.4773  0.4453 -1.6009
  169MOL    H8347459   3.914   2.517   3.473  0.9327  0.1572 -3.9263
  169MOL    H8447460   4.075   2.932   3.482  1.1696  0.1657 -0.8121
  169MOL    H8547461   4.316   2.959   3.560  1.5204 -0.7486 -0.3740
  169MOL    C8647462   3.707   2.591   3.446 -1.0257 -0.4175 -0.7501
  169MOL    C8747463   3.636   2.712   3.434 -0.0832 -0.0637  0.4455
  169MOL    C8847464   3.501   2.693   3.385 -0.3173 -0.2949 -0.0529
  169MOL    C8947465   3.440   2.564   3.361 -0.2067 -0.3190 -0.3249
  169MOL    C9047466   3.302   2.542   3.319  0.7973 -0.6165  0.1842
  169MOL    C9147467   3.202   2.637   3.312 -0.3785 -0.5213 -0.5448
  169MOL    C9247468   3.517   2.452   3.384 -0.5364 -0.2071 -0.0814
  169MOL    C9347469   3.650   2.465   3.432  0.2494  0.0299 -0.2242
  169MOL    H9447470   3.673   2.811   3.455 -1.2430  0.6527 -0.7736
  169MOL    H9547471   3.439   2.776   3.353  0.1216 -0.3220 -0.9910
  169MOL    H9647472   3.272   2.447   3.277  1.4332 -0.6840 -0.1302
  169MOL    H9747473   3.213   2.738   3.348 -2.0531 -0.8540  0.9477
  169MOL    H9847474   3.478   2.352   3.374  0.8361 -0.6394 -1.1164
  169MOL    H9947475   3.716   2.379   3.432  2.0276  1.3726  0.2575
  169MOL   C10047476   3.070   2.603   3.262  1.0440 -0.4039  0.4523
  169MOL   C10147477   3.010   2.483   3.283 -0.6851 -0.8984 -0.1479
  169MOL   C10247478   2.873   2.468   3.255  0.5056 -0.4992 -0.2753
  169MOL   C10347479   2.795   2.566   3.190 -0.3188  0.5368  0.0600
  169MOL   C10447480   2.652   2.539   3.166 -0.0950  0.5880 -0.0164
  169MOL   C10547481   2.573   2.597   3.074 -0.0872  0.9908  0.0520
  169MOL   C10647482   2.868   2.680   3.150 -0.2495 -0.0111  0.3100
  169MOL   C10747483   2.998   2.708   3.196 -0.3642  0.9717  0.0188
  169MOL   H10847484   3.057   2.394   3.322  1.1003  0.4682  0.9201
  169MOL   H10947485   2.831   2.371   3.280  0.6206 -0.7938 -1.1998
  169MOL   H11047486   2.599   2.466   3.226  2.2959 -0.7280  0.5562
  169MOL   H11147487   2.612   2.673   3.008 -1.4653 -0.8838 -3.0237
  169MOL   H11247488   2.810   2.763   3.113 -0.9285 -0.0572  1.2537
  169MOL   H11347489   3.041   2.806   3.179  1.0382  0.0628 -1.8435
  169MOL   C11447490   2.438   2.560   3.038  0.4472 -0.2812 -0.6235
  169MOL   C11547491   2.346   2.476   3.111 -0.0181 -0.0277 -0.5909
  169MOL   C11647492   2.222   2.428   3.062 -0.0671 -0.7969  0.3516
  169MOL   C11747493   2.174   2.478   2.935 -0.5523 -0.4368 -0.9586
  169MOL   C11847494   2.037   2.446   2.893 -0.8859  0.4247 -0.3597
  169MOL   C11947495   2.001   2.429   2.769 -0.8749 -0.0241  0.5419
  169MOL   C12047496   2.260   2.562   2.865  0.3843 -0.4657  0.1726
  169MOL   C12147497   2.384   2.606   2.918  0.1755  0.6761 -0.6138
  169MOL   H12247498   2.374   2.421   3.200 -1.7650 -0.7579 -0.4824
  169MOL   H12347499   2.154   2.365   3.118 -2.5174  1.2624 -0.2276
  169MOL   H12447500   1.958   2.451   2.966  1.0035 -0.4780  1.7869
  169MOL   H12547501   2.081   2.438   2.697 -0.7475 -0.6424  0.5955
  169MOL   H12647502   2.239   2.601   2.767 -0.0691 -4.2037 -1.3200
  169MOL   H12747503   2.443   2.667   2.851  0.6195 -0.9109 -1.7081
  169MOL   C12847504   1.872   2.397   2.714  0.1975  0.3751  0.0362
  169MOL   C12947505   1.855   2.425   2.576 -0.2744  0.3026  0.2022
  169MOL   C13047506   1.731   2.414   2.511  0.5737  1.0376  0.1129
  169MOL   C13147507   1.616   2.368   2.586  0.3017 -0.8528  0.0782
  169MOL   C13247508   1.482   2.357   2.536  0.0605 -0.1207  0.2982
  169MOL   C13347509   1.447   2.347   2.401 -0.2003  0.2756  0.9896
  169MOL   C13447510   1.631   2.338   2.724  0.2732 -0.8753  0.0906
  169MOL   C13547511   1.756   2.350   2.788 -0.0213 -0.4839  0.1594
  169MOL   H13647512   1.940   2.450   2.515  0.8556 -1.2996  1.0940
  169MOL   H13747513   1.723   2.442   2.407  0.5368 -1.0279 -0.4495
  169MOL   H13847514   1.403   2.356   2.610  0.6976 -0.2813  0.9755
  169MOL   H13947515   1.521   2.345   2.322 -2.2397 -0.1144 -0.9470
  169MOL   H14047516   1.545   2.311   2.784 -0.7390 -0.2729 -1.0681
  169MOL   H14147517   1.760   2.327   2.894  0.4485  1.7825  0.6486
  169MOL   C14247518   1.313   2.341   2.344  0.1343  0.0952 -0.8784
  169MOL   C14347519   1.200   2.374   2.423  0.8178  1.0434 -0.0188
  169MOL   C14447520   1.072   2.384   2.368 -0.2010 -0.2856 -0.6448
  169MOL   C14547521   1.060   2.360   2.228  0.0577 -1.3801 -0.6218
  169MOL   C14647522   0.915   2.358   2.172  0.0905 -0.4602 -0.4871
  169MOL   C14747523   0.885   2.297   2.055 -0.5272  1.1428  0.4923
  169MOL   C14847524   1.166   2.326   2.148 -0.2429  0.9777 -0.0310
  169MOL   C14947525   1.293   2.308   2.213 -0.1473  0.1873  0.2233
  169MOL   H15047526   1.217   2.401   2.526 -0.0674  1.7184 -0.0455
  169MOL   H15147527   0.986   2.409   2.429 -0.8036  0.2650 -1.7068
  169MOL   H15247528   0.840   2.410   2.230  0.5681 -0.8112  0.4415
  169MOL   H15347529   0.960   2.250   1.993  0.4666  0.2393  2.3473
  169MOL   H15447530   1.157   2.304   2.042 -0.7338  0.9057  0.0255
  169MOL   H15547531   1.379   2.279   2.155 -0.7373 -0.7381 -0.2073
  169MOL   C15647532   0.752   2.298   2.000  0.5445  0.0607 -0.3392
  169MOL   C15747533   0.637   2.367   2.054  0.2167 -0.0306 -0.0496
  169MOL   C15847534   0.511   2.348   1.988  0.0910 -0.5775  0.5779
  169MOL   C15947535   0.502   2.258   1.880 -0.5730 -0.4298 -0.0372
  169MOL   C16047536   0.372   2.213   1.821 -0.8839  0.8064 -0.4011
  169MOL   C16147537   0.262   2.199   1.896  0.2354 -0.0076 -0.5408
  169MOL   C16247538   0.616   2.213   1.818 -0.2278  0.2067  0.8867
  169MOL   C16347539   0.739   2.236   1.876 -0.0688 -0.1174 -0.1434
  169MOL   H16447540   0.629   2.416   2.149 -1.0881  0.1737 -0.2426
  169MOL   H16547541   0.427   2.384   2.045  0.0820 -0.5715  0.5609
  169MOL   H16647542   0.378   2.195   1.715  2.9225  1.9708 -0.4672
  169MOL   H16747543   0.276   2.225   2.000 -0.3467 -0.1250 -0.4288
  169MOL   H16847544   0.611   2.158   1.725 -2.2736 -0.7940  1.5503
  169MOL   H16947545   0.832   2.207   1.830 -1.0071 -0.0136 -2.1645
  169MOL   C17047546   0.123   2.161   1.859  0.4104  0.4176  0.0236
  169MOL   C17147547   0.093   2.142   1.725  0.3166  0.0572  0.4870
  169MOL   C17247548   8.106   2.140   1.682  0.6123  0.1207 -0.6236
  169MOL   C17347549   8.002   2.152   1.777  0.3900 -0.4138 -0.0006
  169MOL   C17447550   7.858   2.159   1.727 -0.3962  0.6970 -0.0045
  169MOL   C17547551   7.751   2.203   1.804 -0.2146 -0.4315 -0.3928
  169MOL   C17647552   8.033   2.169   1.916  0.0518 -0.0855  0.8687
  169MOL   C17747553   0.022   2.180   1.954  0.3855  0.3605  1.1615
  169MOL   H17847554   0.163   2.128   1.645  0.3640  2.9075 -0.0211
  169MOL   H17947555   8.084   2.110   1.580 -1.4795  0.7988 -0.3821
  169MOL   H18047556   7.852   2.126   1.624 -2.1842  0.9157  0.0224
  169MOL   H18147557   7.769   2.233   1.906 -2.2409  1.1995 -0.4767
  169MOL   H18247558   7.954   2.186   1.988 -1.2024  3.1383 -1.1601
  169MOL   H18347559   0.043   2.209   2.055 -0.9588  0.8134  1.3175
  169MOL   C18447560   7.620   2.227   1.753  0.1186 -0.3019  0.6057
  169MOL   C18547561   7.584   2.195   1.624  0.2716  0.4341  0.3712
  169MOL   C18647562   7.448   2.204   1.583  0.4523 -0.4426 -0.0170
  169MOL   C18747563   7.357   2.269   1.663 -0.5829 -0.5853  0.3089
  169MOL   C18847564   7.227   2.291   1.602  0.3754 -0.0602  0.1103
  169MOL   C18947565   7.123   2.356   1.650  0.2134  0.2004  0.2565
  169MOL   C19047566   7.390   2.308   1.794 -1.0652 -0.7210  0.2130
  169MOL   C19147567   7.522   2.284   1.839  0.2742 -0.1814 -0.3411
  169MOL   H19247568   7.655   2.148   1.559  1.3711  0.5467  1.4728
  169MOL   H19347569   7.424   2.173   1.483 -1.5354  2.1999 -0.4256
  169MOL   H19447570   7.212   2.248   1.504 -1.1578  1.1442 -0.1958
  169MOL   H19547571   7.137   2.392   1.751  1.1953 -2.1933  1.0080
  169MOL   H19647572   7.321   2.355   1.863 -0.9548  1.0349 -0.8164
  169MOL   H19747573   7.553   2.311   1.939 -1.1498  0.7769 -0.1464
  169MOL   C19847574   6.999   2.386   1.583  1.0093  0.2372 -0.1078
  169MOL   C19947575   6.971   2.355   1.448  0.5302  0.2766  0.1883
  169MOL   C20047576   6.843   2.377   1.393  0.0662  0.0052 -1.0370
  169MOL   C20147577   6.751   2.442   1.464  0.1269  0.1838  0.7029
  169MOL   C20247578   6.622   2.470   1.405  0.3061  0.3556 -0.3234
  169MOL   C20347579   6.526   2.553   1.445  0.2505  0.5426  0.2124
  169MOL   C20447580   6.778   2.491   1.592  0.0433 -0.5364  0.5220
  169MOL   C20547581   6.897   2.457   1.654 -0.0091  0.1277 -0.8117
  169MOL   H20647582   7.050   2.313   1.388  0.5567  1.5632 -0.6962
  169MOL   H20747583   6.819   2.350   1.291  0.0569  1.4630 -1.4250
  169MOL   H20847584   6.601   2.409   1.319 -0.2573  0.7352 -0.4568
  169MOL   H20947585   6.534   2.617   1.532  0.4507 -0.6831  1.1199
  169MOL   H21047586   6.699   2.537   1.649 -0.1928 -1.2880  0.7919
  169MOL   H21147587   6.924   2.490   1.753 -1.4809 -0.3186 -0.2582
  169MOL   C21247588   6.395   2.577   1.373  0.0149 -0.2240  0.4336
  169MOL   C21347589   6.289   2.635   1.438 -0.3594  0.3302 -0.9644
  169MOL   C21447590   6.168   2.654   1.367  0.5070 -0.1260  0.4562
  169MOL   C21547591   6.147   2.610   1.234  1.0917 -0.1429 -0.7158
  169MOL   C21647592   6.023   2.628   1.163 -0.0332  0.3908 -0.0781
  169MOL   C21747593   5.910   2.680   1.215  0.5883  0.1320 -0.1668
  169MOL   C21847594   6.255   2.542   1.177  0.3230  0.3566 -0.8413
  169MOL   C21947595   6.377   2.527   1.241  0.0634 -0.0976 -0.4601
  169MOL   H22047596   6.309   2.667   1.539 -0.8219 -1.1303 -0.4015
  169MOL   H22147597   6.077   2.687   1.416  1.7261  1.0436  1.9664
  169MOL   H22247598   6.027   2.597   1.060  0.5864 -1.0303  0.3721
  169MOL   H22347599   5.898   2.702   1.320  0.3902 -0.0031 -0.1621
  169MOL   H22447600   6.244   2.494   1.080 -5.1462 -1.9597  0.7064
  169MOL   H22547601   6.459   2.482   1.187 -0.3067 -2.6056  1.0057
  169MOL   C22647602   5.792   2.701   1.125 -0.5403 -0.5392 -0.7334
  169MOL   C22747603   5.766   2.632   1.005  0.2726  0.2445 -0.5980
  169MOL   C22847604   5.644   2.640   0.940  0.3766  0.4081  0.2950
  169MOL   C22947605   5.536   2.720   0.994  0.3358  0.2165  1.0940
  169MOL   C23047606   5.407   2.736   0.932 -0.3011 -0.0499  0.1009
  169MOL   C23147607   5.371   2.681   0.817  0.2544  0.3691  0.1646
  169MOL   C23247608   5.566   2.798   1.108  0.2154 -0.7009  0.6431
  169MOL   C23347609   5.691   2.789   1.174 -0.4275  0.2859 -0.1447
  169MOL   H23447610   5.850   2.583   0.958  0.7359  0.6900 -0.2435
  169MOL   H23547611   5.634   2.583   0.849 -0.0763  0.5706  0.2405
  169MOL   H23647612   5.344   2.805   0.987 -0.8076 -1.3288  1.1691
  169MOL   H23747613   5.442   2.628   0.755  0.0085  1.4437 -1.0607
  169MOL   H23847614   5.494   2.853   1.167 -1.1428 -1.6692 -0.0669
  169MOL   H23947615   5.696   2.847   1.265  1.3273  1.2469 -0.8083
  169MOL   C24047616   5.234   2.683   0.767 -0.3690 -0.5565 -0.2837
  169MOL   C24147617   5.208   2.622   0.638 -0.1737 -0.3312 -0.1454
  169MOL   C24247618   5.088   2.624   0.575  0.0433  1.3474  0.2128
  169MOL   C24347619   4.975   2.696   0.631  0.3084  0.2450  0.5000
  169MOL   C24447620   4.847   2.720   0.568 -0.4100  0.5918  0.7866
  169MOL   C24547621   4.811   2.654   0.454 -0.6822  0.5311  0.4592
  169MOL   C24647622   4.998   2.747   0.764  0.3333 -0.3831  0.0097
  169MOL   C24747623   5.118   2.733   0.836 -0.2069 -0.0731 -0.7205
  169MOL   H24847624   5.289   2.577   0.583  0.2649 -0.7081  0.8005
  169MOL   H24947625   5.097   2.575   0.480  0.7984  0.2108  0.8547
  169MOL   H25047626   4.783   2.791   0.619 -0.6814  0.3216  0.8251
  169MOL   H25147627   4.891   2.594   0.413 -3.1009 -1.6177 -1.2621
  169MOL   H25247628   4.913   2.800   0.803  0.3235 -1.1778  1.1038
  169MOL   H25347629   5.127   2.774   0.936  0.4005  0.1622 -0.8719
  169MOL   C25447630   4.688   2.664   0.370 -0.2007 -0.9032 -0.6598
  169MOL   C25547631   4.576   2.733   0.422 -0.1711 -0.0516  0.0823
  169MOL   C25647632   4.470   2.754   0.342 -0.2606  0.5346  0.7046
  169MOL   C25747633   4.470   2.720   0.205 -0.3186  0.0923 -0.1536
  169MOL   C25847634   4.353   2.760   0.114  0.6014  0.3691 -0.7918
  169MOL   C25947635   4.259   2.687   0.057  0.1305  0.1844  0.4333
  169MOL   C26047636   4.582   2.654   0.152  0.0680  0.5351  0.1907
  169MOL   C26147637   4.690   2.613   0.237 -0.0648  0.4160 -0.1540
  169MOL   H26247638   4.581   2.767   0.524  1.9840 -0.6552  0.2036
  169MOL   H26347639   4.388   2.808   0.388 -0.9942  0.9554 -1.0830
  169MOL   H26447640   4.356   2.867   0.098  0.2902  0.4820 -0.1016
  169MOL   H26547641   4.201   2.749   8.134  3.2011  2.1297 -0.4914
  169MOL   H26647642   4.588   2.637   0.045 -0.5709  3.3867 -0.3297
  169MOL   H26747643   4.766   2.551   0.194 -1.3806  0.3363 -2.4399
  169MOL   C26847644   4.231   2.548   0.057 -0.4693 -0.0246 -0.2286
  169MOL   C26947645   4.115   2.503   8.128 -0.4138 -0.0742 -0.2240
  169MOL   C27047646   4.087   2.363   8.116  0.2215  0.0129 -0.1656
  169MOL   C27147647   4.175   2.266   0.024  0.6282 -0.7048  0.1065
  169MOL   C27247648   4.143   2.121   8.143  0.3539  0.7201  0.3456
  169MOL   C27347649   4.044   2.068   8.067 -0.2238 -0.0916  0.3941
  169MOL   C27447650   4.291   2.310   0.095  0.4272  0.6814  0.0863
  169MOL   C27547651   4.313   2.451   0.110  0.7220 -0.0390 -0.3748
  169MOL   H27647652   4.050   2.580   8.089  1.3183  1.3434 -0.3513
  169MOL   H27747653   3.991   2.339   8.072  0.9390 -0.9789 -1.2418
  169MOL   H27847654   4.205   2.053   0.055  1.7704  1.5327 -0.2112
  169MOL   H27947655   3.982   2.134   8.008 -0.0512  0.0885  0.4138
  169MOL   H28047656   4.357   2.236   0.140 -0.7757 -0.2179  0.4094
  169MOL   H28147657   4.403   2.483   0.161  1.4176 -0.4912 -1.3191
  169MOL   H28247658   4.026   1.961   8.064  0.0226 -0.1061 -0.9592
  170MOL     C147659   0.452   2.129   6.942  0.4711 -0.0958  0.0571
  170MOL     C247660   0.379   2.035   7.019  0.1751  1.0139 -0.0955
  170MOL     C347661   0.277   1.955   6.954  0.2903 -0.0985 -0.0776
  170MOL     C447662   0.235   1.981   6.827  0.6276  0.1580 -0.1704
  170MOL     C547663   0.125   1.903   6.767  0.2722  0.6914  1.0092
  170MOL     C647664   0.045   1.809   6.823 -0.3787  0.3974 -0.1036
  170MOL     C747665   0.310   2.078   6.753  0.2575 -1.0258 -0.4355
  170MOL     C847666   0.418   2.148   6.811 -0.5720 -0.0583  0.8028
  170MOL     H947667   0.407   2.021   7.123 -1.0190 -0.3043  0.0628
  170MOL    H1047668   0.219   1.880   7.006  0.4837 -0.7091 -0.7246
  170MOL    H1147669   0.124   1.928   6.662  0.0412 -0.2929  0.7672
  170MOL    H1247670   0.049   1.799   6.930 -0.1491  0.8544 -0.0684
  170MOL    H1347671   0.288   2.107   6.651  0.4764 -0.1454 -0.2366
  170MOL    H1447672   0.469   2.225   6.755 -1.5152  1.5554  2.0953
  170MOL    H1547673   0.537   2.184   6.980  0.3328 -1.2489  2.1159
  170MOL    C1647674   8.095   1.731   6.747 -0.3813  0.0514  0.4242
  170MOL    C1747675   7.988   1.659   6.806 -0.1950 -0.2618 -0.1736
  170MOL    C1847676   7.884   1.589   6.734 -0.3878 -0.3918  0.6958
  170MOL    C1947677   7.888   1.588   6.593 -0.5032  0.0693  0.5434
  170MOL    C2047678   7.787   1.520   6.507  0.9085  0.2553 -0.7835
  170MOL    C2147679   7.773   1.549   6.376 -0.0605  0.1317  0.2990
  170MOL    C2247680   7.996   1.649   6.533  0.0133  0.0130  0.1897
  170MOL    C2347681   8.094   1.723   6.604 -0.1571  0.3440 -0.3048
  170MOL    H2447682   7.977   1.670   6.913 -1.2328  0.8349 -0.3895
  170MOL    H2547683   7.812   1.541   6.798  0.2755 -1.7373  0.4381
  170MOL    H2647684   7.715   1.454   6.550 -0.2761  0.4229 -2.4659
  170MOL    H2747685   7.844   1.613   6.327 -0.0592 -1.0396 -1.2751
  170MOL    H2847686   8.004   1.645   6.425 -3.5880 -1.0515 -0.1035
  170MOL    H2947687   0.027   1.773   6.548 -0.0838  1.2600  0.6164
  170MOL    C3047688   7.671   1.507   6.280 -0.9525  0.5778  0.0289
  170MOL    C3147689   7.581   1.408   6.312 -0.0761 -0.0162  0.2722
  170MOL    C3247690   7.484   1.366   6.220  0.4216 -0.3506 -0.1695
  170MOL    C3347691   7.484   1.414   6.082  1.4912  0.2454  0.4004
  170MOL    C3447692   7.394   1.360   5.981  0.3688  0.3278 -0.1665
  170MOL    C3547693   7.287   1.278   6.001  0.1656 -0.0635  0.1684
  170MOL    C3647694   7.571   1.515   6.049  0.1454 -0.0819 -1.0373
  170MOL    C3747695   7.664   1.565   6.148  0.2273 -0.4717 -0.2354
  170MOL    H3847696   7.575   1.369   6.413 -0.6580  1.2793  0.7470
  170MOL    H3947697   7.421   1.282   6.247  1.3218 -0.3700  2.0047
  170MOL    H4047698   7.421   1.392   5.881 -3.2383  2.5980 -0.4915
  170MOL    H4147699   7.249   1.255   6.100  1.9263 -0.3822  0.8000
  170MOL    H4247700   7.592   1.554   5.950  3.2389 -1.8053 -1.1170
  170MOL    H4347701   7.735   1.639   6.117  1.1965 -0.2690  2.3921
  170MOL    C4447702   7.201   1.210   5.895  0.1863  0.0529 -0.1243
  170MOL    C4547703   7.067   1.165   5.924 -0.0865  0.3183  0.1650
  170MOL    C4647704   6.993   1.093   5.825  0.0281  0.4604 -0.4405
  170MOL    C4747705   7.035   1.087   5.692 -0.2555  0.3008 -0.6512
  170MOL    C4847706   6.939   1.047   5.587  0.6621 -0.6112 -0.2195
  170MOL    C4947707   6.948   1.072   5.455 -0.2522 -0.2097  0.4169
  170MOL    C5047708   7.167   1.127   5.665 -0.1236 -0.4997  0.0318
  170MOL    C5147709   7.245   1.190   5.764 -0.0119  0.1850 -0.6552
  170MOL    H5247710   7.028   1.170   6.025 -0.0764 -0.7973  0.2244
  170MOL    H5347711   6.894   1.060   5.853 -1.1205  0.4270 -4.2613
  170MOL    H5447712   6.847   1.003   5.621  0.0449  0.7389 -0.1130
  170MOL    H5547713   7.037   1.122   5.419 -1.2577  0.4593 -1.1977
  170MOL    H5647714   7.208   1.139   5.565  1.6824 -1.5674  0.6215
  170MOL    H5747715   7.345   1.217   5.734  1.2780 -3.0801  0.4738
  170MOL    C5847716   6.849   1.048   5.351  0.5343  0.4987  1.1740
  170MOL    C5947717   6.885   1.080   5.223 -0.1545  0.5437 -0.3260
  170MOL    C6047718   6.787   1.076   5.121 -0.4552  0.2472  0.0200
  170MOL    C6147719   6.655   1.024   5.141 -0.3654  0.1885  0.4362
  170MOL    C6247720   6.555   1.029   5.033 -0.4942 -0.8387 -0.7124
  170MOL    C6347721   6.577   1.047   4.900  0.0448 -0.3712 -0.5047
  170MOL    C6447722   6.633   0.961   5.263 -0.0235  0.0442  0.3745
  170MOL    C6547723   6.727   0.989   5.368 -0.1616  0.3205 -0.1452
  170MOL    H6647724   6.979   1.133   5.214 -0.7838  1.9215  0.9719
  170MOL    H6747725   6.815   1.102   5.020 -0.0858  2.1653  0.5913
  170MOL    H6847726   6.453   1.015   5.067 -0.2671  1.5556  1.0814
  170MOL    H6947727   6.679   1.061   4.870  0.0621  2.9140  0.9138
  170MOL    H7047728   6.536   0.918   5.282  0.1387  0.5441  2.4989
  170MOL    H7147729   6.702   0.963   5.470 -0.9855  1.7785  0.0459
  170MOL    C7247730   6.476   1.065   4.795 -0.5313  0.2642 -0.2798
  170MOL    C7347731   6.511   1.036   4.662  0.5521 -0.9824  0.0822
  170MOL    C7447732   6.420   1.048   4.554 -0.2370  0.8997 -0.5054
  170MOL    C7547733   6.288   1.087   4.580 -0.6124 -0.1795 -0.4328
  170MOL    C7647734   6.198   1.105   4.467  0.4805 -0.5683  0.1356
  170MOL    C7747735   6.103   1.196   4.469  0.6219  0.3750  0.8393
  170MOL    C7847736   6.249   1.113   4.717 -0.5123 -0.3874 -0.4953
  170MOL    C7947737   6.341   1.103   4.822 -0.4525 -0.7160  0.1151
  170MOL    H8047738   6.610   0.998   4.637  1.0063  0.7897 -0.8641
  170MOL    H8147739   6.443   1.018   4.453 -2.8070  1.2965 -1.2407
  170MOL    H8247740   6.206   1.032   4.389 -0.0009 -0.5351  0.0523
  170MOL    H8347741   6.089   1.266   4.550  2.7063  0.4556  1.1586
  170MOL    H8447742   6.154   1.155   4.748 -1.7887 -1.5007 -2.7657
  170MOL    H8547743   6.306   1.117   4.923  0.3608  0.7789  0.2016
  170MOL    C8647744   5.994   1.209   4.370  0.2356 -0.7112 -0.2546
  170MOL    C8747745   5.921   1.332   4.366 -0.0121 -0.8070  0.2266
  170MOL    C8847746   5.806   1.331   4.289 -0.6026 -0.4776  0.6903
  170MOL    C8947747   5.752   1.219   4.227 -0.1623 -0.5299 -0.0744
  170MOL    C9047748   5.626   1.231   4.150  0.1707 -0.1534 -0.4743
  170MOL    C9147749   5.540   1.134   4.117 -0.2759  0.0239 -0.2506
  170MOL    C9247750   5.828   1.102   4.228 -0.1866  0.5288  0.0207
  170MOL    C9347751   5.945   1.092   4.305  0.1518 -0.4183  0.0347
  170MOL    H9447752   5.971   1.424   4.392 -0.0439 -0.5164 -0.7220
  170MOL    H9547753   5.752   1.422   4.267  0.1757 -0.3297 -0.6362
  170MOL    H9647754   5.608   1.329   4.109 -0.7687  0.8784  2.2881
  170MOL    H9747755   5.559   1.035   4.157 -1.4350  0.0166  0.3053
  170MOL    H9847756   5.787   1.022   4.168  1.3905  0.0247 -0.4303
  170MOL    H9947757   6.000   0.999   4.312 -1.4514 -1.6541 -3.0886
  170MOL   C10047758   5.414   1.140   4.049 -0.0748  0.2501 -0.2546
  170MOL   C10147759   5.365   1.256   3.986 -0.4544  0.0763  0.1637
  170MOL   C10247760   5.237   1.261   3.931  0.8092  0.6032 -0.5541
  170MOL   C10347761   5.151   1.150   3.939 -0.1790  0.8105  0.5176
  170MOL   C10447762   5.015   1.159   3.891 -0.1987 -0.2333  0.2703
  170MOL   C10547763   4.928   1.054   3.881 -0.4897 -0.1797  0.2484
  170MOL   C10647764   5.192   1.040   4.008  0.1781 -0.2923  0.0197
  170MOL   C10747765   5.326   1.030   4.057 -0.9940 -0.1565 -0.9814
  170MOL   H10847766   5.412   1.353   3.978 -0.7344  0.2655  0.7974
  170MOL   H10947767   5.196   1.354   3.894 -0.4838  0.9845  1.7097
  170MOL   H11047768   4.999   1.263   3.865 -2.3478 -1.0223 -1.7638
  170MOL   H11147769   4.958   0.956   3.914  0.4995 -0.4405 -1.3623
  170MOL   H11247770   5.124   0.961   4.035 -0.0748 -0.1362 -0.1606
  170MOL   H11347771   5.360   0.937   4.100  2.1147  0.8556 -1.0973
  170MOL   C11447772   4.793   1.057   3.826  0.0776  0.0122  0.3515
  170MOL   C11547773   4.710   0.939   3.834  0.8801 -0.0452  0.5211
  170MOL   C11647774   4.569   0.958   3.811 -0.3455  0.7061  0.2568
  170MOL   C11747775   4.509   1.080   3.770 -0.3233 -0.0337 -0.5720
  170MOL   C11847776   4.363   1.101   3.758  0.2833 -0.2554 -0.2989
  170MOL   C11947777   4.287   1.214   3.737  0.1751 -0.0381 -0.2749
  170MOL   C12047778   4.594   1.192   3.759 -0.1433 -0.1781  0.2260
  170MOL   C12147779   4.732   1.178   3.786  0.0578 -0.6802 -0.9114
  170MOL   H12247780   4.757   0.845   3.858 -0.5158 -0.5392  1.4383
  170MOL   H12347781   4.512   0.867   3.825  1.4198 -0.4139  0.2766
  170MOL   H12447782   4.299   1.014   3.756  0.4055 -0.3230 -2.0474
  170MOL   H12547783   4.344   1.305   3.732  0.2705 -0.0739  0.2166
  170MOL   H12647784   4.557   1.287   3.724  1.2303  0.9170  1.7036
  170MOL   H12747785   4.795   1.264   3.770  1.5154 -1.7881 -1.1664
  170MOL   C12847786   4.140   1.227   3.722 -0.5404  0.6127  0.4370
  170MOL   C12947787   4.090   1.324   3.634 -0.1083  0.5481  0.3204
  170MOL   C13047788   3.951   1.336   3.613  0.0687  0.5097  0.4248
  170MOL   C13147789   3.856   1.255   3.683 -0.3094  0.5445  0.2652
  170MOL   C13247790   3.716   1.259   3.651 -0.5466  0.0557  0.2010
  170MOL   C13347791   3.664   1.270   3.528 -0.2067  0.2541 -0.0380
  170MOL   C13447792   3.909   1.162   3.773  0.0474  0.0085 -0.8798
  170MOL   C13547793   4.045   1.145   3.794 -0.0370  0.2208 -0.7345
  170MOL   H13647794   4.157   1.390   3.581  1.1808 -1.7420 -1.0227
  170MOL   H13747795   3.915   1.410   3.543  0.6534 -0.3800 -0.8173
  170MOL   H13847796   3.648   1.251   3.734  0.5194  0.4424  1.1336
  170MOL   H13947797   3.737   1.273   3.448 -0.7977 -1.1571 -0.6597
  170MOL   H14047798   3.839   1.098   3.826  0.9386  1.6026  2.3623
  170MOL   H14147799   4.078   1.081   3.874  0.7059 -0.3427 -1.4802
  170MOL   C14247800   3.517   1.278   3.500  0.1102  0.3180 -0.9053
  170MOL   C14347801   3.468   1.291   3.364 -0.1284  0.5404  0.0294
  170MOL   C14447802   3.331   1.284   3.334 -0.2594 -0.3852 -0.4581
  170MOL   C14547803   3.240   1.284   3.441 -0.4440  0.2181  0.7123
  170MOL   C14647804   3.101   1.299   3.406 -0.1752 -0.0336  0.0037
  170MOL   C14747805   3.007   1.356   3.490  0.8381  0.2851  0.0543
  170MOL   C14847806   3.287   1.278   3.575 -0.0566 -0.3896  0.2209
  170MOL   C14947807   3.423   1.276   3.603  0.4317  0.8735 -0.6255
  170MOL   H15047808   3.541   1.300   3.284  0.5395 -1.8549  0.3224
  170MOL   H15147809   3.304   1.286   3.230 -0.7898 -1.9691 -0.3691
  170MOL   H15247810   3.071   1.275   3.305  1.1591  1.1002 -0.6668
  170MOL   H15347811   3.035   1.386   3.590  2.1971  0.2534 -0.3050
  170MOL   H15447812   3.225   1.264   3.662 -0.3862 -2.7355 -0.3444
  170MOL   H15547813   3.448   1.261   3.707 -1.6328  1.4872 -0.0068
  170MOL   C15647814   2.865   1.372   3.446  0.8090  0.5146  0.0789
  170MOL   C15747815   2.813   1.308   3.333  0.0386 -0.5578  0.0356
  170MOL   C15847816   2.680   1.322   3.299 -0.0646  0.9952 -0.1028
  170MOL   C15947817   2.593   1.419   3.363  0.3082  0.1101 -0.4025
  170MOL   C16047818   2.450   1.427   3.340 -0.0341 -0.2841  0.1300
  170MOL   C16147819   2.374   1.342   3.267 -0.3001 -0.8785  0.3225
  170MOL   C16247820   2.648   1.493   3.474  0.0815  0.8137 -0.2430
  170MOL   C16347821   2.783   1.470   3.505 -0.2317 -0.2701  0.4053
  170MOL   H16447822   2.869   1.228   3.289 -0.2979 -0.6406 -0.2473
  170MOL   H16547823   2.653   1.250   3.223 -0.5715 -0.5287  1.4580
  170MOL   H16647824   2.395   1.511   3.379 -1.1331 -0.0233 -1.8921
  170MOL   H16747825   2.427   1.257   3.225 -0.1272 -0.9956  0.7817
  170MOL   H16847826   2.597   1.555   3.547 -0.6675 -0.5229  0.3877
  170MOL   H16947827   2.828   1.539   3.574  0.4535  0.5207 -0.8120
  170MOL   C17047828   2.225   1.348   3.236  0.1304 -1.1238  0.0329
  170MOL   C17147829   2.170   1.241   3.159 -0.8584 -0.7508  0.3445
  170MOL   C17247830   2.032   1.233   3.127  0.1048  0.4848  0.6853
  170MOL   C17347831   1.949   1.337   3.181 -0.0442  0.5996 -0.0321
  170MOL   C17447832   1.806   1.331   3.145 -0.4615 -0.4918 -0.2737
  170MOL   C17547833   1.751   1.293   3.031  0.0385  0.3659  0.6193
  170MOL   C17647834   2.001   1.443   3.253 -0.4572  0.2820 -0.0785
  170MOL   C17747835   2.140   1.450   3.285 -0.2227 -0.1900 -0.4448
  170MOL   H17847836   2.234   1.160   3.129 -3.1193 -1.1656 -3.5830
  170MOL   H17947837   1.996   1.143   3.080 -1.5396  1.4752  0.0087
  170MOL   H18047838   1.748   1.379   3.223  0.0126  1.2021 -0.9341
  170MOL   H18147839   1.821   1.273   2.952 -2.5259 -1.4686 -1.2769
  170MOL   H18247840   1.929   1.518   3.283 -0.2789  1.0080 -1.4743
  170MOL   H18347841   2.164   1.536   3.346 -0.3956  0.1325 -0.8316
  170MOL   C18447842   1.607   1.285   2.998 -0.0135  0.2418 -0.4644
  170MOL   C18547843   1.501   1.286   3.091 -0.1433  0.8007  0.4817
  170MOL   C18647844   1.366   1.278   3.039 -0.1651 -0.1278 -0.6087
  170MOL   C18747845   1.344   1.263   2.902 -0.0562 -0.3123 -0.5829
  170MOL   C18847846   1.203   1.258   2.854  0.3514  0.4292  0.5594
  170MOL   C18947847   1.167   1.278   2.727  0.2724  0.4610  0.7437
  170MOL   C19047848   1.449   1.258   2.815 -0.3331 -0.1452  0.1059
  170MOL   C19147849   1.584   1.270   2.862 -0.2471  0.5606  0.4873
  170MOL   H19247850   1.521   1.299   3.197 -2.4847 -2.5952  1.3980
  170MOL   H19347851   1.285   1.288   3.110  1.3604 -2.7694  1.6204
  170MOL   H19447852   1.122   1.237   2.923 -0.7124 -0.5413 -0.9395
  170MOL   H19547853   1.241   1.308   2.654  1.8648 -0.5989  1.8926
  170MOL   H19647854   1.437   1.248   2.708 -1.7255  0.4602  0.1934
  170MOL   H19747855   1.674   1.272   2.802 -1.8297 -0.5810 -2.0167
  170MOL   C19847856   1.028   1.276   2.674  0.7685  0.3072 -0.1300
  170MOL   C19947857   1.008   1.326   2.542 -0.3627  0.0084  0.4447
  170MOL   C20047858   0.875   1.347   2.485  0.0111 -0.5169  0.4018
  170MOL   C20147859   0.764   1.299   2.560 -0.2007 -0.8281 -0.1742
  170MOL   C20247860   0.632   1.336   2.502  0.2220 -0.8277 -0.0267
  170MOL   C20347861   0.514   1.307   2.551 -0.5961  0.2329  0.1675
  170MOL   C20447862   0.781   1.251   2.691  0.3279  0.3845  0.3562
  170MOL   C20547863   0.910   1.240   2.748  0.2443  0.5217 -0.3358
  170MOL   H20647864   1.095   1.366   2.492 -0.5741  0.5774  0.5217
  170MOL   H20747865   0.870   1.395   2.389 -0.6813 -0.5154  0.4355
  170MOL   H20847866   0.640   1.387   2.407  1.6683 -0.1094  0.4688
  170MOL   H20947867   0.504   1.268   2.651  1.9950 -1.7556 -0.2969
  170MOL   H21047868   0.698   1.239   2.759  0.1465  0.4026  0.1401
  170MOL   H21147869   0.928   1.203   2.848  1.3981  0.5889 -0.5143
  170MOL   C21247870   0.389   1.330   2.484 -0.0265 -0.2462 -0.3090
  170MOL   C21347871   0.283   1.228   2.486  0.2279  1.0534 -0.1895
  170MOL   C21447872   0.164   1.264   2.422  0.1547 -0.5924 -0.3446
  170MOL   C21547873   0.146   1.389   2.355  1.3290  0.6470 -0.1314
  170MOL   C21647874   0.017   1.424   2.288  0.0560  0.2854 -0.5045
  170MOL   C21747875   8.059   1.342   2.281 -0.5871  0.7134 -0.7462
  170MOL   C21847876   0.255   1.479   2.343 -0.7219  0.6355  0.1968
  170MOL   C21947877   0.377   1.443   2.405  0.7989  0.1172 -0.9331
  170MOL   H22047878   0.289   1.139   2.547  2.6231  1.5963  0.4029
  170MOL   H22147879   0.082   1.194   2.430 -1.0675  0.7387 -0.9420
  170MOL   H22247880   0.002   1.524   2.250  2.5303  0.5862 -0.7679
  170MOL   H22347881   8.043   1.241   2.312 -0.6926  0.9601 -0.0003
  170MOL   H22447882   0.237   1.569   2.287 -2.0347  0.8322  0.9051
  170MOL   H22547883   0.455   1.518   2.411  0.1322  0.7239  0.2160
  170MOL   C22647884   7.932   1.378   2.217 -0.2265 -0.7591 -0.0374
  170MOL   C22747885   7.902   1.510   2.176 -0.1871 -0.0493 -0.3238
  170MOL   C22847886   7.786   1.532   2.105 -0.1998  0.1465 -0.7922
  170MOL   C22947887   7.701   1.429   2.054 -0.5683  0.4538 -0.0187
  170MOL   C23047888   7.574   1.480   1.992  0.0291 -0.0315  0.0854
  170MOL   C23147889   7.460   1.406   1.979 -0.0032 -0.3629  0.2686
  170MOL   C23247890   7.728   1.300   2.102  0.0591 -0.3478  0.0314
  170MOL   C23347891   7.844   1.272   2.181  0.1704 -0.7504  0.2936
  170MOL   H23447892   7.952   1.601   2.203  0.6438  0.0723 -2.2060
  170MOL   H23547893   7.764   1.635   2.078  1.5149  0.1837 -2.1756
  170MOL   H23647894   7.583   1.581   1.954 -1.4112 -0.1876 -0.6708
  170MOL   H23747895   7.461   1.308   2.024  0.3213  0.3176  1.8014
  170MOL   H23847896   7.666   1.214   2.081  2.2313 -2.4945  2.0624
  170MOL   H23947897   7.862   1.169   2.207  1.9575 -0.9535 -1.6252
  170MOL   C24047898   7.334   1.449   1.920 -0.7854  0.4639 -0.6223
  170MOL   C24147899   7.326   1.555   1.833  0.0164  0.7016 -0.2510
  170MOL   C24247900   7.205   1.592   1.771 -0.0540 -0.0848  0.3948
  170MOL   C24347901   7.087   1.520   1.805  0.0167  0.4248 -0.6126
  170MOL   C24447902   6.965   1.553   1.737 -0.3267  0.0176  0.4989
  170MOL   C24547903   6.872   1.473   1.701  0.2576 -0.8031  0.6295
  170MOL   C24647904   7.091   1.432   1.912  0.7062 -1.1743  0.4890
  170MOL   C24747905   7.208   1.400   1.975 -0.4635 -0.2651  0.2892
  170MOL   H24847906   7.419   1.601   1.802  0.1330  1.3010  0.9734
  170MOL   H24947907   7.208   1.676   1.702 -0.2488  0.1871  0.7173
  170MOL   H25047908   6.961   1.656   1.703 -2.3444  0.0965  0.9501
  170MOL   H25147909   6.883   1.368   1.723  0.8630 -1.0115 -0.6280
  170MOL   H25247910   6.995   1.391   1.941  0.5874 -0.1841  1.5267
  170MOL   H25347911   7.197   1.330   2.056 -1.6642 -0.6203 -0.1619
  170MOL   C25447912   6.759   1.512   1.613 -0.1141 -0.7663 -0.7973
  170MOL   C25547913   6.772   1.627   1.530  0.6089 -0.1770  0.0788
  170MOL   C25647914   6.665   1.674   1.459  0.3212  0.0827 -0.0057
  170MOL   C25747915   6.540   1.611   1.469 -0.8154  0.5045  0.6098
  170MOL   C25847916   6.441   1.664   1.378  0.0829  0.7841  0.0079
  170MOL   C25947917   6.367   1.596   1.292  0.5265 -0.0283 -0.1587
  170MOL   C26047918   6.531   1.489   1.547  0.0235 -0.0747 -0.3492
  170MOL   C26147919   6.637   1.440   1.609 -0.6470  0.5348  0.5076
  170MOL   H26247920   6.867   1.678   1.518 -0.6810  1.5374 -3.3827
  170MOL   H26347921   6.678   1.758   1.392 -1.1623 -0.1437 -0.5914
  170MOL   H26447922   6.427   1.771   1.372  0.7726  0.8467 -0.5025
  170MOL   H26547923   6.302   1.646   1.222 -0.7810 -1.0496  0.3019
  170MOL   H26647924   6.443   1.427   1.546 -0.7986  1.0335 -3.0443
  170MOL   H26747925   6.631   1.352   1.671  0.7490  0.0659 -0.0088
  170MOL   C26847926   6.367   1.451   1.257 -1.0502  0.5237 -1.0315
  170MOL   C26947927   6.253   1.407   1.186  0.8307 -0.0557  0.3607
  170MOL   C27047928   6.231   1.269   1.156 -0.4323 -0.4812 -0.2991
  170MOL   C27147929   6.328   1.173   1.188  0.1801 -0.2024 -0.1703
  170MOL   C27247930   6.305   1.029   1.143  0.4964 -0.4722  0.3340
  170MOL   C27347931   6.400   0.942   1.119 -0.1234 -0.2185 -0.5986
  170MOL   C27447932   6.454   1.213   1.245  0.4233  0.0106  0.1160
  170MOL   C27547933   6.470   1.352   1.276  0.1132 -0.0323  0.0141
  170MOL   H27647934   6.179   1.478   1.152 -0.7675 -1.5745  0.6314
  170MOL   H27747935   6.143   1.241   1.099 -0.3459 -0.5297 -0.4075
  170MOL   H27847936   6.203   0.994   1.132  1.0705 -2.3341  0.6570
  170MOL   H27947937   6.505   0.964   1.127 -0.3642  0.3577  1.0416
  170MOL   H28047938   6.527   1.137   1.268  0.2458 -0.4341 -0.7687
  170MOL   H28147939   6.563   1.385   1.320 -0.5404  1.3538  0.3784
  170MOL   H28247940   6.373   0.841   1.091 -0.3558 -0.0298 -1.0617
  171MOL     C147941   7.492   3.185   1.265 -0.4264 -0.2782 -0.1149
  171MOL     C247942   7.438   3.306   1.324 -0.3999  0.4843  0.4060
  171MOL     C347943   7.300   3.324   1.321  0.4049 -0.3979 -0.4699
  171MOL     C447944   7.217   3.230   1.252  0.2599  0.4125  0.8505
  171MOL     C547945   7.067   3.252   1.244 -0.4820  0.0415  0.6419
  171MOL     C647946   7.002   3.358   1.292  0.2162  0.5220  0.6113
  171MOL     C747947   7.277   3.126   1.173 -0.3275  0.2583  0.1355
  171MOL     C847948   7.410   3.095   1.201  0.0047 -0.0071  0.0363
  171MOL     H947949   7.495   3.385   1.370 -1.5144  1.4548  0.1332
  171MOL    H1047950   7.254   3.409   1.369  1.4138 -0.8172  1.2917
  171MOL    H1147951   7.015   3.168   1.200  1.6084 -1.2381  0.5609
  171MOL    H1247952   7.057   3.428   1.353 -0.1375  0.1383  1.3750
  171MOL    H1347953   7.222   3.050   1.120  0.1915 -0.8639  1.1876
  171MOL    H1447954   7.448   3.003   1.159 -2.2334 -1.1190  0.4064
  171MOL    H1547955   7.595   3.159   1.286 -0.2542 -0.2118 -0.8428
  171MOL    C1647956   6.860   3.389   1.287  0.2529 -0.1441 -0.0549
  171MOL    C1747957   6.767   3.303   1.219 -0.3931  0.3489  0.1549
  171MOL    C1847958   6.632   3.345   1.193 -0.1841  0.1804 -0.5455
  171MOL    C1947959   6.584   3.469   1.237  0.2072 -0.1558 -0.7904
  171MOL    C2047960   6.447   3.513   1.209 -1.0778  0.4524  0.6165
  171MOL    C2147961   6.385   3.615   1.273  0.2098 -0.0500 -0.0582
  171MOL    C2247962   6.670   3.542   1.319 -0.0465 -0.2451  0.1698
  171MOL    C2347963   6.805   3.509   1.328  0.5037 -0.5618 -0.9029
  171MOL    H2447964   6.795   3.209   1.173 -0.8418 -0.5537  1.6906
  171MOL    H2547965   6.575   3.281   1.128 -0.9572 -0.4742  0.7635
  171MOL    H2647966   6.398   3.461   1.128  1.7957 -0.9861 -0.2895
  171MOL    H2747967   6.435   3.664   1.355  0.5423  0.7502 -0.7341
  171MOL    H2847968   6.646   3.634   1.369 -0.1313  1.7031 -3.3010
  171MOL    H2947969   6.874   3.561   1.392 -1.0122  0.2039  0.1343
  171MOL    C3047970   6.246   3.668   1.240 -0.3601 -0.1941  0.1121
  171MOL    C3147971   6.217   3.795   1.305  0.2744 -0.0874  0.2883
  171MOL    C3247972   6.092   3.859   1.280  0.1022  0.5967 -0.6643
  171MOL    C3347973   6.001   3.808   1.185  0.2652 -0.1803 -0.3716
  171MOL    C3447974   5.871   3.868   1.155 -0.9458  0.2442  0.2933
  171MOL    C3547975   5.820   3.973   1.219 -0.4849  0.0697  0.5389
  171MOL    C3647976   6.036   3.685   1.117 -0.1136 -0.5515 -0.6340
  171MOL    C3747977   6.160   3.619   1.145 -0.1460  0.4026  0.1662
  171MOL    H3847978   6.293   3.834   1.371 -1.6382  0.3026  2.3280
  171MOL    H3947979   6.052   3.941   1.338  3.2203  0.4903  1.7520
  171MOL    H4047980   5.809   3.832   1.073  0.0890  1.4204 -1.0348
  171MOL    H4147981   5.874   4.017   1.302  0.4016  2.5269 -1.2852
  171MOL    H4247982   5.985   3.648   1.030  0.2950  1.4369 -1.7504
  171MOL    H4347983   6.190   3.523   1.106  1.2381  1.5404 -1.5919
  171MOL    C4447984   5.691   4.027   1.190 -0.1189 -0.5135 -0.4579
  171MOL    C4547985   5.657   4.143   1.268 -0.4724  0.1273 -0.7785
  171MOL    C4647986   5.534   4.210   1.241 -0.2576  0.4334  0.1800
  171MOL    C4747987   5.456   4.161   1.134 -0.2596 -0.4303  0.0289
  171MOL    C4847988   5.322   4.212   1.103  0.3181 -0.3300  0.1267
  171MOL    C4947989   5.262   4.308   1.169  0.1617 -0.1589 -0.2557
  171MOL    C5047990   5.497   4.052   1.056  0.1238  0.0091  0.1021
  171MOL    C5147991   5.609   3.982   1.086 -0.5552 -0.5479 -0.2202
  171MOL    H5247992   5.720   4.172   1.350  0.5708 -1.6059 -0.9272
  171MOL    H5347993   5.513   4.296   1.303  0.2259  1.9652 -1.7315
  171MOL    H5447994   5.275   4.157   1.023  1.0588  0.2990 -0.7518
  171MOL    H5547995   5.314   4.365   1.245 -0.8536  0.8619 -0.3251
  171MOL    H5647996   5.426   4.008   0.987 -0.6912  1.2131  0.1644
  171MOL    H5747997   5.632   3.895   1.025 -1.0549 -1.0774  0.3393
  171MOL    C5847998   5.123   4.355   1.152 -0.6445  0.1140 -0.0684
  171MOL    C5947999   5.038   4.308   1.052  0.3541 -0.2762  0.7081
  171MOL    C6048000   4.907   4.364   1.043 -0.0442 -0.8969  0.4371
  171MOL    C6148001   4.869   4.483   1.113 -0.2579  0.5603  0.3633
  171MOL    C6248002   4.739   4.547   1.074 -0.9544  0.5675 -0.1249
  171MOL    C6348003   4.671   4.623   1.162 -0.4365 -0.4931  0.0322
  171MOL    C6448004   4.962   4.526   1.209  0.7592  0.0326 -0.2175
  171MOL    C6548005   5.085   4.466   1.223  0.5762  0.1465  0.6177
  171MOL    H6648006   5.066   4.220   0.996 -2.0158 -0.2410 -0.6109
  171MOL    H6748007   4.840   4.339   0.962 -2.7481  2.5815  1.4584
  171MOL    H6848008   4.709   4.529   0.972 -3.1081  2.5683  0.1235
  171MOL    H6948009   4.727   4.625   1.254 -1.4108 -0.1927  0.6201
  171MOL    H7048010   4.935   4.609   1.272 -0.3750 -2.2544  2.4259
  171MOL    H7148011   5.153   4.510   1.295  0.5225 -3.5478  3.0306
  171MOL    C7248012   4.541   4.692   1.131 -0.3059  0.2453 -0.2971
  171MOL    C7348013   4.471   4.688   1.007 -0.1747  0.2908 -0.4220
  171MOL    C7448014   4.349   4.750   0.989  0.6975 -0.3458 -0.2523
  171MOL    C7548015   4.280   4.799   1.105  0.1960  0.4064 -0.5663
  171MOL    C7648016   4.142   4.850   1.088 -0.1316 -0.1725  0.3159
  171MOL    C7748017   4.069   4.903   1.186 -0.2409 -0.7890  0.1632
  171MOL    C7848018   4.359   4.827   1.224  0.6105 -0.4602  0.4875
  171MOL    C7948019   4.483   4.766   1.233  0.8031  0.8769  0.8257
  171MOL    H8048020   4.520   4.634   0.927 -0.8177  0.6910 -1.0896
  171MOL    H8148021   4.300   4.753   0.894  2.7607 -1.4860 -1.4025
  171MOL    H8248022   4.107   4.847   0.986 -0.1092  2.0265  0.2115
  171MOL    H8348023   4.116   4.914   1.283  1.4063  0.7627 -0.7749
  171MOL    H8448024   4.315   4.883   1.305  2.1437  0.7825  0.4908
  171MOL    H8548025   4.535   4.774   1.327  1.4527  0.5618  0.4951
  171MOL    C8648026   3.930   4.950   1.167 -0.1327  0.0293 -0.8485
  171MOL    C8748027   3.873   5.046   1.254 -0.1860  0.3641 -0.6167
  171MOL    C8848028   3.745   5.103   1.236  0.1495  0.0808 -1.0772
  171MOL    C8948029   3.661   5.052   1.131 -0.2890  0.2488  0.1360
  171MOL    C9048030   3.523   5.096   1.113 -0.7810 -0.2024  0.1102
  171MOL    C9148031   3.480   5.215   1.159 -0.4378  0.3323 -0.3950
  171MOL    C9248032   3.711   4.951   1.047 -0.1452 -0.6557 -0.9615
  171MOL    C9348033   3.845   4.895   1.072  0.2625 -0.5634 -0.5127
  171MOL    H9448034   3.934   5.092   1.331  0.2562  0.2894 -0.9220
  171MOL    H9548035   3.703   5.176   1.304  0.7162 -1.1312  0.6114
  171MOL    H9648036   3.460   5.022   1.065 -0.2418 -1.7741  1.7691
  171MOL    H9748037   3.554   5.282   1.202 -2.0022  0.3832  2.3322
  171MOL    H9848038   3.646   4.886   0.990 -0.0888 -1.6584  0.0980
  171MOL    H9948039   3.885   4.812   1.016  1.1594 -0.8967  0.6128
  171MOL   C10048040   3.344   5.262   1.156 -0.4812 -1.2284  0.4247
  171MOL   C10148041   3.307   5.374   1.242 -0.0957  0.3519  0.5156
  171MOL   C10248042   3.178   5.419   1.240  0.1174 -0.1375 -0.4325
  171MOL   C10348043   3.078   5.367   1.155 -0.3061  0.4532  0.0825
  171MOL   C10448044   2.944   5.424   1.157 -0.1487  0.0437  0.0489
  171MOL   C10548045   2.825   5.361   1.140 -0.1778  0.3006  0.3525
  171MOL   C10648046   3.111   5.247   1.080 -0.0547 -0.6766 -0.5706
  171MOL   C10748047   3.243   5.194   1.085  0.0360 -0.0227 -0.4214
  171MOL   H10848048   3.378   5.434   1.297 -1.4352  1.3988  1.1114
  171MOL   H10948049   3.155   5.503   1.303  0.1387  0.8029 -1.6586
  171MOL   H11048050   2.950   5.531   1.173  2.2129 -0.0920  0.2757
  171MOL   H11148051   2.825   5.254   1.122 -0.4751  0.6165 -1.6366
  171MOL   H11248052   3.033   5.219   1.011 -1.4489  2.0703 -0.1691
  171MOL   H11348053   3.268   5.106   1.028 -0.5097 -0.7451  0.4552
  171MOL   C11448054   2.691   5.418   1.134  0.0733  0.2810 -0.4529
  171MOL   C11548055   2.670   5.543   1.074 -0.6760 -0.0321  0.2183
  171MOL   C11648056   2.537   5.587   1.047  0.6464  0.4243 -0.0086
  171MOL   C11748057   2.427   5.515   1.101  0.2329 -0.0517 -0.0556
  171MOL   C11848058   2.292   5.560   1.079 -0.5659 -0.3260  0.1073
  171MOL   C11948059   2.182   5.521   1.146 -0.3726  0.4382 -1.1344
  171MOL   C12048060   2.452   5.401   1.180  0.0504  1.0081  0.2523
  171MOL   C12148061   2.583   5.353   1.190 -0.2895 -0.1653 -0.0944
  171MOL   H12248062   2.753   5.599   1.033  0.4257 -0.0840  2.3345
  171MOL   H12348063   2.513   5.668   0.980  0.9025 -1.0105 -1.8950
  171MOL   H12448064   2.277   5.628   0.997 -1.3613  2.7332  2.7027
  171MOL   H12548065   2.188   5.459   1.234  0.7889  0.5346 -1.1355
  171MOL   H12648066   2.373   5.339   1.220  2.1833 -1.5106  0.7131
  171MOL   H12748067   2.600   5.259   1.240 -1.9420  0.7940  2.3686
  171MOL   C12848068   2.043   5.553   1.100 -0.4622 -0.5705  0.2593
  171MOL   C12948069   2.020   5.605   0.967 -0.3734  0.6206 -0.1190
  171MOL   C13048070   1.888   5.638   0.933  0.5725 -0.5715  0.2263
  171MOL   C13148071   1.777   5.621   1.017  0.5096  0.4378 -0.0844
  171MOL   C13248072   1.649   5.672   0.964 -0.3994  0.8543  0.3388
  171MOL   C13348073   1.540   5.702   1.039 -1.2380 -0.8798  0.5693
  171MOL   C13448074   1.798   5.559   1.146 -0.2392 -0.2959  0.2784
  171MOL   C13548075   1.930   5.536   1.190 -0.5602 -0.8076  0.6276
  171MOL   H13648076   2.088   5.616   0.884 -1.8351 -1.4209 -1.6650
  171MOL   H13748077   1.872   5.692   0.841 -1.1436  0.4024  1.0735
  171MOL   H13848078   1.650   5.677   0.856  4.2133  1.5083  0.3481
  171MOL   H13948079   1.539   5.699   1.147 -0.0703  2.2236  0.7406
  171MOL   H14048080   1.716   5.534   1.211 -0.8680  3.0516  0.8578
  171MOL   H14148081   1.949   5.502   1.291 -1.1416 -0.9648  0.6813
  171MOL   C14248082   1.411   5.742   0.969 -0.4182  0.3045 -0.4362
  171MOL   C14348083   1.392   5.775   0.836 -0.3001 -0.1580  0.1602
  171MOL   C14448084   1.268   5.812   0.783  0.9585  0.4524 -0.4799
  171MOL   C14548085   1.154   5.823   0.865  0.2140 -0.4568  0.1742
  171MOL   C14648086   1.019   5.862   0.827  0.5510  0.0581 -0.3638
  171MOL   C14748087   0.988   5.961   0.745  0.0865  0.1330 -0.3578
  171MOL   C14848088   1.175   5.796   0.999 -0.3063 -0.6991  1.1913
  171MOL   C14948089   1.298   5.755   1.049  0.6310  0.6940 -0.0615
  171MOL   H15048090   1.474   5.769   0.767 -0.4401  0.8336 -0.1000
  171MOL   H15148091   1.250   5.843   0.681  1.5800  0.5016 -0.5729
  171MOL   H15248092   0.940   5.806   0.876 -0.5065  0.7922 -1.2112
  171MOL   H15348093   1.063   6.015   0.689 -0.2396  0.1061 -0.8267
  171MOL   H15448094   1.092   5.790   1.068 -2.5954  0.6566 -1.3590
  171MOL   H15548095   1.298   5.726   1.153 -1.4822  1.8403  0.2989
  171MOL   C15648096   0.853   6.003   0.729 -0.1411  0.7062 -0.0914
  171MOL   C15748097   0.825   6.057   0.607 -0.7019 -0.1997 -0.5538
  171MOL   C15848098   0.694   6.102   0.582  0.6154 -0.2464 -0.1348
  171MOL   C15948099   0.593   6.087   0.678 -0.9337 -0.2260 -0.9436
  171MOL   C16048100   0.449   6.138   0.650 -0.5563  0.6939 -0.1072
  171MOL   C16148101   0.409   6.211   0.542 -0.5285  0.1595 -0.3630
  171MOL   C16248102   0.625   6.037   0.808  0.5003 -0.1656  0.4111
  171MOL   C16348103   0.752   5.982   0.823 -0.3406 -0.2265  0.4138
  171MOL   H16448104   0.895   6.067   0.526  0.0170  1.2124  0.2279
  171MOL   H16548105   0.664   6.133   0.483  2.1565  0.4098 -0.3979
  171MOL   H16648106   0.372   6.114   0.721 -0.2325 -0.4261 -0.1325
  171MOL   H16748107   0.484   6.248   0.474 -0.3802 -0.0324 -0.3040
  171MOL   H16848108   0.540   6.026   0.873 -1.4235 -1.5376 -2.2391
  171MOL   H16948109   0.778   5.936   0.917  1.1105 -1.0982 -0.4038
  171MOL   C17048110   0.270   6.252   0.510 -1.3071 -0.8147 -0.6902
  171MOL   C17148111   0.246   6.305   0.386  0.1826 -0.4031  0.2325
  171MOL   C17248112   0.111   6.327   0.344 -0.7091  0.4244  0.3425
  171MOL   C17348113   0.007   6.323   0.441  0.0684 -0.5911 -0.5548
  171MOL   C17448114   8.012   6.359   0.407  0.0481  0.0798 -0.3595
  171MOL   C17548115   7.947   6.382   0.290  0.2577 -0.2081  0.0608
  171MOL   C17648116   0.036   6.277   0.572 -0.3731 -0.2648 -0.4243
  171MOL   C17748117   0.169   6.243   0.604  0.0528 -0.1276 -0.5075
  171MOL   H17848118   0.320   6.313   0.308  0.6627  0.8403  0.8086
  171MOL   H17948119   0.101   6.363   0.242 -1.4284  2.6787  1.1733
  171MOL   H18048120   7.956   6.361   0.499  0.0985 -0.3487 -0.3185
  171MOL   H18148121   8.006   6.382   0.199 -1.7767 -0.9932 -1.2727
  171MOL   H18248122   8.106   6.284   0.650  0.6548  0.7803  0.4812
  171MOL   H18348123   0.196   6.200   0.700  1.2397  2.1026  0.1872
  171MOL   C18448124   7.803   6.420   0.270  0.0352 -0.3027  0.1084
  171MOL   C18548125   7.756   6.466   0.143  0.2422 -0.8280 -0.1547
  171MOL   C18648126   7.618   6.504   0.136 -0.1222 -0.2036  0.4791
  171MOL   C18748127   7.528   6.500   0.244 -0.0255 -0.0865 -0.2798
  171MOL   C18848128   7.386   6.525   0.229  0.0827  0.2076 -0.1226
  171MOL   C18948129   7.316   6.525   0.114  0.7913  0.4556  0.6442
  171MOL   C19048130   7.581   6.466   0.373 -0.4406  0.2343  0.3569
  171MOL   C19148131   7.713   6.421   0.381 -0.6171  0.4048  0.6095
  171MOL   H19248132   7.819   6.486   0.057  1.2342 -0.4510  0.6461
  171MOL   H19348133   7.579   6.521   0.037  1.0507  1.2599  0.2492
  171MOL   H19448134   7.333   6.553   0.319 -0.6639  2.3743 -1.1828
  171MOL   H19548135   7.359   6.502   0.017 -1.5731 -0.1785 -0.2842
  171MOL   H19648136   7.524   6.455   0.463 -1.6594 -3.3813 -0.7593
  171MOL   H19748137   7.748   6.379   0.474  0.7239 -1.1652 -0.5830
  171MOL   C19848138   7.171   6.555   0.105  0.2492  0.0902 -0.2689
  171MOL   C19948139   7.100   6.599   0.219  0.1606  0.8652  0.9268
  171MOL   C20048140   6.964   6.635   0.213  0.0467  0.1286  0.7729
  171MOL   C20148141   6.897   6.639   0.095  0.3769 -0.2000  0.1852
  171MOL   C20248142   6.757   6.682   0.079 -0.5243  0.4762 -0.0510
  171MOL   C20348143   6.669   6.653   8.128 -0.3998  0.2172 -0.0985
  171MOL   C20448144   6.970   6.608   8.119 -0.6419  0.1789 -0.0551
  171MOL   C20548145   7.103   6.557   8.125  0.5452  0.0936  0.0205
  171MOL   H20648146   7.153   6.596   0.313 -1.5593  0.7918  1.9156
  171MOL   H20748147   6.910   6.669   0.300 -1.9788 -1.9146  0.3768
  171MOL   H20848148   6.727   6.745   0.162 -1.7643  2.1461 -1.7427
  171MOL   H20948149   6.695   6.584   8.049  0.7398 -1.8568  2.0278
  171MOL   H21048150   6.919   6.627   8.026 -2.0669  2.1275  1.0947
  171MOL   H21148151   7.161   6.534   8.037  0.2552 -0.5475 -0.0034
  171MOL   C21248152   6.532   6.703   8.125 -0.0840  0.1316 -0.8084
  171MOL   C21348153   6.441   6.636   8.045  0.5924 -0.6602  0.2773
  171MOL   C21448154   6.314   6.690   8.039  0.3382  0.0443  0.3427
  171MOL   C21548155   6.278   6.812   8.098 -0.0032  0.0527  0.4215
  171MOL   C21648156   6.142   6.864   8.068 -0.1913 -0.3214  0.4745
  171MOL   C21748157   6.097   6.988   8.087 -0.0099  0.0323  0.7366
  171MOL   C21848158   6.373   6.883   0.024  0.1869  0.0090 -0.4889
  171MOL   C21948159   6.492   6.818   0.054 -0.3209 -0.1838  0.3536
  171MOL   H22048160   6.467   6.555   7.978 -1.1013 -0.7268 -0.3353
  171MOL   H22148161   6.244   6.638   7.975  1.0351  0.4824 -0.8037
  171MOL   H22248162   6.074   6.799   8.014  1.3472 -1.9816  0.4865
  171MOL   H22348163   6.168   7.061   8.121  0.7900  0.2866 -1.3640
  171MOL   H22448164   6.341   6.970   0.080  3.4611  1.1648 -0.3122
  171MOL   H22548165   6.559   6.862   0.126 -2.4000  2.5840  0.6705
  171MOL   C22648166   5.963   7.047   8.062 -0.7337 -0.3752  0.3548
  171MOL   C22748167   5.947   7.188   8.050 -0.1168  0.2725  0.2336
  171MOL   C22848168   5.824   7.246   8.023 -0.7246 -0.1451 -0.2169
  171MOL   C22948169   5.708   7.170   8.013  0.3701  0.6840  0.2564
  171MOL   C23048170   5.581   7.229   7.994 -0.3723  0.3896  1.1892
  171MOL   C23148171   5.556   7.358   8.001  0.0372  0.2067  0.2855
  171MOL   C23248172   5.721   7.027   8.022  0.2456 -0.3704 -0.2500
  171MOL   C23348173   5.849   6.968   8.041 -0.1542  0.1050  0.2410
  171MOL   H23448174   6.034   7.251   8.065 -1.0785  1.3767  1.2926
  171MOL   H23548175   5.818   7.351   7.999 -0.3260  0.4483  2.1642
  171MOL   H23648176   5.501   7.160   7.968 -0.9472  1.7542 -0.8065
  171MOL   H23748177   5.633   7.433   8.016 -0.5686  0.9388 -0.2003
  171MOL   H23848178   5.634   6.963   8.021  0.5667 -0.8264  1.1047
  171MOL   H23948179   5.870   6.863   8.043 -0.4376  0.0673  1.4534
  171MOL   C24048180   5.420   7.415   8.002 -0.6687  0.5162  0.5089
  171MOL   C24148181   5.400   7.544   8.059  0.0399 -0.2591 -0.2182
  171MOL   C24248182   5.269   7.581   8.083 -0.4278  0.4626  0.1530
  171MOL   C24348183   5.160   7.504   8.048  0.3119  0.4557  0.4404
  171MOL   C24448184   5.022   7.550   8.065  0.6698 -0.3013 -0.1123
  171MOL   C24548185   4.971   7.676   8.067 -0.4710  0.4961  0.6014
  171MOL   C24648186   5.180   7.378   7.992 -0.1841  0.0545 -0.3726
  171MOL   C24748187   5.310   7.330   7.969  0.9411  0.3235 -0.5684
  171MOL   H24848188   5.477   7.609   8.097 -3.1403  2.7562  1.2989
  171MOL   H24948189   5.252   7.678   8.127 -0.5629  0.5066  0.0052
  171MOL   H25048190   4.956   7.465   8.077 -0.1316  0.5347  1.5545
  171MOL   H25148191   5.035   7.761   8.046 -0.7315  0.5411 -0.0205
  171MOL   H25248192   5.099   7.315   7.959 -1.5586  1.0203  1.0356
  171MOL   H25348193   5.315   7.244   7.904 -0.4599  1.1394 -1.8107
  171MOL   C25448194   4.833   7.709   8.100 -0.1904 -0.7095 -0.5587
  171MOL   C25548195   4.719   7.622   8.078 -0.1790  0.1802 -0.0721
  171MOL   C25648196   4.589   7.669   8.104  0.9304  0.3807  0.0029
  171MOL   C25748197   4.573   7.792   0.033  0.8785  0.2372 -0.6265
  171MOL   C25848198   4.431   7.818   0.063  0.0985 -0.1703 -0.5047
  171MOL   C25948199   4.373   7.936   0.094  0.6122 -0.2381  0.1676
  171MOL   C26048200   4.687   7.875   0.064 -0.5153  0.6954 -0.1014
  171MOL   C26148201   4.816   7.834   0.019  0.0844 -0.2255  0.7354
  171MOL   H26248202   4.732   7.527   8.028  1.7868  0.4977 -0.2153
  171MOL   H26348203   4.505   7.603   8.090  0.8690  0.5091 -0.2161
  171MOL   H26448204   4.356   7.741   0.070 -2.0679  2.0628  1.7606
  171MOL   H26548205   4.268   7.926   0.116  0.7949 -1.4997  0.5294
  171MOL   H26648206   4.688   7.965   0.124 -0.1343 -0.0729  1.0630
  171MOL   H26748207   4.906   7.891   0.037  0.4159 -0.8380  1.0643
  171MOL   C26848208   4.412   8.074   0.096  0.2768  0.3754  0.2723
  171MOL   C26948209   4.369   0.013   0.197 -0.3151  0.1251 -0.4687
  171MOL   C27048210   4.423   0.141   0.213 -0.2366 -0.1168  0.0690
  171MOL   C27148211   4.520   0.192   0.129  0.7805  0.0811 -0.0649
  171MOL   C27248212   4.590   0.319   0.168  0.5042  1.2040 -0.0931
  171MOL   C27348213   4.691   0.384   0.099  0.6503  0.0953 -0.5486
  171MOL   C27448214   4.561   0.111   0.023 -0.4695 -0.6795 -0.3740
  171MOL   C27548215   4.509   8.124   0.009  0.4208  0.3433  0.7275
  171MOL   H27648216   4.288   8.119   0.259  0.0854 -0.1901 -0.1354
  171MOL   H27748217   4.383   0.209   0.287  1.5874  1.6860 -0.5279
  171MOL   H27848218   4.552   0.368   0.256 -0.3411 -0.0267  0.2352
  171MOL   H27948219   4.728   0.334   0.010  0.5075  0.4197 -0.7905
  171MOL   H28048220   4.633   0.143   8.094  0.2809 -1.9158 -0.1893
  171MOL   H28148221   4.540   8.068   8.066  0.7368 -0.0196  1.0674
  171MOL   H28248222   4.738   0.472   0.140  0.0874 -0.4786  1.3741
  172MOL     C148223   3.395   3.703   3.530  0.2142  0.1994  0.6840
  172MOL     C248224   3.297   3.783   3.464  0.0143 -0.4292 -0.7572
  172MOL     C348225   3.167   3.726   3.433 -1.0688 -0.2891  0.2018
  172MOL     C448226   3.139   3.593   3.473 -0.1600  0.3219  0.1184
  172MOL     C548227   3.008   3.527   3.452  0.1859 -0.1790 -0.0915
  172MOL     C648228   2.900   3.585   3.398  0.2293 -0.2473  0.2332
  172MOL     C748229   3.241   3.512   3.534  0.0458  0.1961  0.0531
  172MOL     C848230   3.365   3.571   3.567 -0.5347  0.0646 -0.3817
  172MOL     H948231   3.329   3.879   3.427 -1.8896  0.4863 -0.0576
  172MOL    H1048232   3.114   3.790   3.364  0.8524  1.4942  0.3158
  172MOL    H1148233   3.009   3.424   3.483  0.5329 -0.2769 -0.4247
  172MOL    H1248234   2.900   3.692   3.380  1.1787 -0.2081  0.4312
  172MOL    H1348235   3.231   3.408   3.561  1.8173  0.3717  1.4967
  172MOL    H1448236   3.442   3.514   3.617 -0.5104 -0.0107 -0.5050
  172MOL    H1548237   3.484   3.745   3.574 -0.7107  1.7518  1.1094
  172MOL    C1648238   2.769   3.515   3.373 -0.5374 -0.0885  0.4082
  172MOL    C1748239   2.740   3.376   3.387 -0.3894 -0.0652 -0.0998
  172MOL    C1848240   2.610   3.329   3.361  0.0291 -0.2826  0.2550
  172MOL    C1948241   2.510   3.411   3.309 -0.6459 -0.5715  0.0925
  172MOL    C2048242   2.375   3.357   3.293  0.7246 -0.5141 -0.3993
  172MOL    C2148243   2.267   3.435   3.273  0.2920  0.0021  0.4051
  172MOL    C2248244   2.547   3.549   3.288  0.1695  0.2432  0.2577
  172MOL    C2348245   2.675   3.599   3.313 -0.0485 -0.2010  0.6199
  172MOL    H2448246   2.810   3.301   3.419 -0.4637 -1.0712 -2.2241
  172MOL    H2548247   2.592   3.223   3.359 -0.8849 -0.1714  1.5979
  172MOL    H2648248   2.370   3.249   3.299 -0.0734 -0.4876 -0.6475
  172MOL    H2748249   2.278   3.542   3.281  1.8518 -0.0742 -0.4318
  172MOL    H2848250   2.482   3.615   3.232  0.6526  0.5496  0.0504
  172MOL    H2948251   2.691   3.704   3.296  0.4806 -0.3725  0.0502
  172MOL    C3048252   2.127   3.387   3.261 -0.4388  0.6269 -0.2786
  172MOL    C3148253   2.091   3.252   3.222 -0.4341  0.0146 -0.6894
  172MOL    C3248254   1.956   3.211   3.214  0.4219  0.3751  0.5367
  172MOL    C3348255   1.855   3.302   3.251 -0.8745 -0.4077  0.2426
  172MOL    C3448256   1.711   3.271   3.247 -0.1912  0.2447 -0.2108
  172MOL    C3548257   1.657   3.170   3.181 -0.2036  0.1272  0.0583
  172MOL    C3648258   1.892   3.431   3.301 -0.0302  0.1477  0.4937
  172MOL    C3748259   2.025   3.477   3.302  0.1179  0.2271 -0.1255
  172MOL    H3848260   2.157   3.178   3.178 -1.3952 -1.3156  0.0940
  172MOL    H3948261   1.939   3.114   3.169  0.2575  1.0422 -0.8728
  172MOL    H4048262   1.654   3.341   3.307 -1.5556 -0.3234 -0.8112
  172MOL    H4148263   1.721   3.104   3.125  0.5655  0.6878  0.2671
  172MOL    H4248264   1.824   3.503   3.344 -2.6148 -2.0879  0.2392
  172MOL    H4348265   2.043   3.569   3.355  1.9002  0.7890 -1.6331
  172MOL    C4448266   1.509   3.146   3.183  0.7105  0.5452  0.8850
  172MOL    C4548267   1.427   3.223   3.267 -0.7805 -0.4032 -0.0608
  172MOL    C4648268   1.292   3.192   3.282  0.2264 -0.5824  0.6862
  172MOL    C4748269   1.232   3.092   3.203  0.6450  0.1682  0.3967
  172MOL    C4848270   1.084   3.057   3.204 -0.4766 -0.4275  0.2839
  172MOL    C4948271   0.999   3.105   3.296  0.2677  0.6609  0.0975
  172MOL    C5048272   1.318   3.008   3.132 -0.1658 -0.0918  0.0026
  172MOL    C5148273   1.452   3.035   3.118 -0.3360  0.1971 -0.4389
  172MOL    H5248274   1.462   3.301   3.333  2.9844 -3.2240  1.4621
  172MOL    H5348275   1.227   3.249   3.346  2.2187  0.5971  1.6931
  172MOL    H5448276   1.057   2.988   3.126  1.7715  0.1111 -1.0143
  172MOL    H5548277   1.038   3.174   3.370  0.4293 -1.1355  1.7166
  172MOL    H5648278   1.274   2.926   3.077 -3.3982  1.2277  0.5057
  172MOL    H5748279   1.509   2.984   3.042 -0.7658  1.1740 -1.4318
  172MOL    C5848280   0.850   3.079   3.290  0.0566  0.2835  0.7019
  172MOL    C5948281   0.791   2.974   3.220  0.5588  0.2999 -0.2665
  172MOL    C6048282   0.650   2.957   3.222  0.3570  0.2854 -0.1379
  172MOL    C6148283   0.562   3.048   3.286  0.4756 -0.2143  0.1317
  172MOL    C6248284   0.419   3.034   3.260 -0.3151  0.3469 -0.4831
  172MOL    C6348285   0.334   3.132   3.280 -0.4308  0.3036 -0.2125
  172MOL    C6448286   0.623   3.144   3.366  0.6597 -0.0369 -0.4358
  172MOL    C6548287   0.766   3.151   3.371 -0.0393  0.1247 -0.1087
  172MOL    H6648288   0.856   2.907   3.166  2.2243 -0.4394  2.5538
  172MOL    H6748289   0.612   2.870   3.170  0.1573  0.9032 -1.0378
  172MOL    H6848290   0.387   2.936   3.229  2.5163  0.1215 -2.8728
  172MOL    H6948291   0.372   3.229   3.309 -0.5279  0.6764 -1.3096
  172MOL    H7048292   0.558   3.204   3.427  1.3180 -1.7095  2.0003
  172MOL    H7148293   0.811   3.220   3.441 -3.4237  2.1741  0.1756
  172MOL    C7248294   0.189   3.129   3.267  0.4382  0.2749 -1.0307
  172MOL    C7348295   0.110   3.234   3.317  0.0861 -0.2195  0.2640
  172MOL    C7448296   8.117   3.218   3.315  1.0823  0.0014 -0.0385
  172MOL    C7548297   8.051   3.108   3.258 -0.1637 -0.2307  0.6471
  172MOL    C7648298   7.908   3.108   3.252  0.1535 -1.0802 -0.5893
  172MOL    C7748299   7.828   3.033   3.175  0.0504  0.1747  0.2285
  172MOL    C7848300   8.130   3.009   3.193  0.2858  0.3002 -0.1600
  172MOL    C7948301   0.130   3.020   3.195 -0.5347 -0.0388 -0.1688
  172MOL    H8048302   0.149   3.322   3.367 -1.1644  0.2044  0.5160
  172MOL    H8148303   8.055   3.287   3.371 -0.8725 -1.5459 -0.2290
  172MOL    H8248304   7.849   3.171   3.319  1.7731  0.3940 -0.5166
  172MOL    H8348305   7.874   2.961   3.109 -0.5542  1.3840 -1.5529
  172MOL    H8448306   8.084   2.929   3.136  0.4301 -0.5690  0.9175
  172MOL    H8548307   0.182   2.951   3.132 -1.0876  1.8821 -2.8107
  172MOL    C8648308   7.686   3.025   3.172  0.4935  0.6830  0.4853
  172MOL    C8748309   7.630   2.955   3.068 -0.1592  0.0363  0.7317
  172MOL    C8848310   7.491   2.955   3.049  0.1557  0.8310 -0.4257
  172MOL    C8948311   7.403   3.008   3.143 -0.0337  0.2835  0.1609
  172MOL    C9048312   7.258   2.987   3.124  0.2934  0.0795 -0.4173
  172MOL    C9148313   7.159   3.038   3.194  0.7277 -1.1718 -0.7009
  172MOL    C9248314   7.459   3.088   3.248  0.4328 -0.0430 -0.2786
  172MOL    C9348315   7.601   3.103   3.258 -0.3216 -0.4055  0.3559
  172MOL    H9448316   7.694   2.908   2.995 -3.2427  0.8677 -2.6008
  172MOL    H9548317   7.443   2.909   2.963 -0.9054 -1.3878  1.3029
  172MOL    H9648318   7.239   2.927   3.037 -2.8184 -0.7414  0.7750
  172MOL    H9748319   7.179   3.106   3.275 -1.0834 -0.4199 -0.8589
  172MOL    H9848320   7.394   3.137   3.318  0.8916  2.5801 -1.6360
  172MOL    H9948321   7.637   3.170   3.336 -2.1984  0.9577  0.0904
  172MOL   C10048322   7.011   3.018   3.162  0.1445 -0.1201  0.4163
  172MOL   C10148323   6.963   2.938   3.057 -0.1474  0.4112 -0.3657
  172MOL   C10248324   6.826   2.917   3.042  0.0823  0.7120  0.6058
  172MOL   C10348325   6.733   2.985   3.119 -0.4328 -0.3294 -0.0949
  172MOL   C10448326   6.590   2.951   3.092 -0.2254 -0.9559  0.0509
  172MOL   C10548327   6.474   2.989   3.160  0.0944  0.4847  0.1305
  172MOL   C10648328   6.781   3.072   3.225  0.5394 -0.5202 -0.2753
  172MOL   C10748329   6.916   3.076   3.253  0.5411  0.2319  0.0108
  172MOL   H10848330   7.038   2.892   2.995 -1.8498 -1.3867 -1.1444
  172MOL   H10948331   6.807   2.855   2.955  0.4605  0.5597  0.6283
  172MOL   H11048332   6.568   2.904   2.998 -1.3962 -1.2206  0.4473
  172MOL   H11148333   6.485   3.051   3.247 -2.8378 -0.3666  1.1603
  172MOL   H11248334   6.711   3.111   3.297  0.1639 -1.3570 -0.1782
  172MOL   H11348335   6.957   3.138   3.331  0.9880 -0.0804  0.0263
  172MOL   C11448336   6.331   2.965   3.119 -0.5342  0.7178 -0.0777
  172MOL   C11548337   6.299   2.898   3.000  0.2162 -0.2409 -0.7600
  172MOL   C11648338   6.165   2.874   2.973 -0.5955  0.6548 -0.7692
  172MOL   C11748339   6.060   2.905   3.063 -0.1803  0.2916  0.4263
  172MOL   C11848340   5.919   2.874   3.020 -0.2121 -0.3361  0.7372
  172MOL   C11948341   5.815   2.862   3.113 -0.3633 -0.0506 -0.0365
  172MOL   C12048342   6.094   2.964   3.185  0.5558 -0.3627  0.2279
  172MOL   C12148343   6.232   3.001   3.212  0.6938 -1.5761  0.4865
  172MOL   H12248344   6.375   2.856   2.936  1.1693 -0.2557  0.3831
  172MOL   H12348345   6.142   2.820   2.882 -1.8589  1.5446 -1.0005
  172MOL   H12448346   5.901   2.859   2.915  0.6767  0.2079  0.5057
  172MOL   H12548347   5.839   2.874   3.217  3.5871  0.6364 -0.9339
  172MOL   H12648348   6.019   2.979   3.261 -1.4946 -1.1457 -1.6205
  172MOL   H12748349   6.259   3.056   3.300 -1.3004  0.7935 -0.2959
  172MOL   C12848350   5.681   2.833   3.078  1.1770  0.3728  0.1536
  172MOL   C12948351   5.586   2.793   3.177 -0.2643  0.7311 -0.1083
  172MOL   C13048352   5.450   2.761   3.142  0.2181 -0.1939 -0.6085
  172MOL   C13148353   5.407   2.763   3.012 -0.0287 -0.4888  0.3126
  172MOL   C13248354   5.265   2.725   2.972  0.0243 -0.5789 -0.6485
  172MOL   C13348355   5.161   2.669   3.040  0.3994  0.3950  0.5983
  172MOL   C13448356   5.501   2.799   2.912 -0.4473 -0.5030  0.0976
  172MOL   C13548357   5.630   2.838   2.944 -0.2408 -0.3692  0.8971
  172MOL   H13648358   5.624   2.800   3.278 -0.6894 -1.7683  0.2549
  172MOL   H13748359   5.380   2.737   3.221  1.2850  0.5022  0.5714
  172MOL   H13848360   5.255   2.745   2.866 -0.8944 -1.2761 -0.6966
  172MOL   H13948361   5.181   2.656   3.145 -0.0238 -1.3366  0.4777
  172MOL   H14048362   5.477   2.794   2.807 -0.6974 -1.9089  0.2073
  172MOL   H14148363   5.692   2.871   2.863 -0.6484 -2.0556 -0.1221
  172MOL   C14248364   5.027   2.625   2.989 -0.7091 -0.0232 -0.4389
  172MOL   C14348365   4.980   2.658   2.858  0.2845 -0.1820  0.3416
  172MOL   C14448366   4.857   2.604   2.807 -0.3140  0.2255 -0.2197
  172MOL   C14548367   4.776   2.530   2.898 -0.1787 -0.8152  0.1889
  172MOL   C14648368   4.638   2.485   2.856  0.1156  0.2271  0.2147
  172MOL   C14748369   4.583   2.520   2.735  0.1073 -0.1322  0.0097
  172MOL   C14848370   4.818   2.501   3.029 -0.4877 -0.8719 -0.0375
  172MOL   C14948371   4.944   2.548   3.075 -0.1977  0.2082  0.0110
  172MOL   H15048372   5.045   2.721   2.798 -2.1197  2.1876  0.1379
  172MOL   H15148373   4.829   2.634   2.707  0.3960 -0.9707 -0.7956
  172MOL   H15248374   4.583   2.422   2.924  2.0477 -1.5646  0.1893
  172MOL   H15348375   4.638   2.584   2.668  1.8162 -1.0001  0.5271
  172MOL   H15448376   4.760   2.445   3.101 -1.4362 -2.5485 -2.0250
  172MOL   H15548377   4.983   2.523   3.172  0.4810 -0.1885 -0.3629
  172MOL   C15648378   4.450   2.481   2.671  0.0865 -0.6668 -0.4765
  172MOL   C15748379   4.421   2.503   2.537  0.1434  0.1233  0.6705
  172MOL   C15848380   4.305   2.457   2.473 -0.2092  0.6819  0.0203
  172MOL   C15948381   4.202   2.392   2.547 -0.2462 -0.3217 -0.5070
  172MOL   C16048382   4.073   2.353   2.482  0.7651  0.2857  0.4061
  172MOL   C16148383   3.960   2.323   2.546  0.5408  0.6191  1.3321
  172MOL   C16248384   4.224   2.385   2.689 -0.0381  0.1808  0.3877
  172MOL   C16348385   4.351   2.412   2.747  0.0208  0.8082 -0.2368
  172MOL   H16448386   4.496   2.539   2.469 -2.3920  4.6339  0.0350
  172MOL   H16548387   4.303   2.473   2.366  3.4180  1.2651 -0.0021
  172MOL   H16648388   4.078   2.355   2.374 -0.6187  0.5622  0.3415
  172MOL   H16748389   3.958   2.327   2.654 -0.8247 -0.1375  1.3503
  172MOL   H16848390   4.155   2.330   2.752  1.7968 -0.3830  1.9652
  172MOL   H16948391   4.382   2.377   2.844 -0.4859  1.7392  0.2653
  172MOL   C17048392   3.830   2.286   2.489  0.1751  0.0126  0.3688
  172MOL   C17148393   3.710   2.315   2.565 -0.5448  0.5673  0.5700
  172MOL   C17248394   3.585   2.287   2.515 -0.5790  0.6384  0.1119
  172MOL   C17348395   3.574   2.237   2.381 -0.2287  0.5458 -0.5539
  172MOL   C17448396   3.442   2.196   2.326  0.0783 -0.2544 -0.2890
  172MOL   C17548397   3.323   2.207   2.388 -0.6679  0.0730  0.3034
  172MOL   C17648398   3.689   2.212   2.305 -0.1591  0.2654 -0.3042
  172MOL   C17748399   3.817   2.236   2.360  0.1696 -0.4238  0.5633
  172MOL   H17848400   3.718   2.349   2.667  0.5729  2.3221 -0.0800
  172MOL   H17948401   3.509   2.287   2.592 -0.6706 -1.2632  0.0315
  172MOL   H18048402   3.455   2.160   2.225 -0.3510 -1.9587  0.2425
  172MOL   H18148403   3.322   2.250   2.487 -0.1815  0.2504  0.2327
  172MOL   H18248404   3.690   2.166   2.207  0.8968 -1.1940  0.3800
  172MOL   H18348405   3.903   2.219   2.297  1.2401  0.4715  1.7567
  172MOL   C18448406   3.189   2.163   2.335  0.4438  0.5089 -0.4309
  172MOL   C18548407   3.074   2.197   2.405 -0.1956 -0.3819 -0.3868
  172MOL   C18648408   2.950   2.151   2.362  0.1005  1.0745 -0.6572
  172MOL   C18748409   2.927   2.077   2.237  0.1030 -0.1092 -0.1192
  172MOL   C18848410   2.797   2.042   2.202  0.6247  0.2870  0.2594
  172MOL   C18948411   2.767   1.981   2.083  0.2692  0.3681  0.2676
  172MOL   C19048412   3.047   2.044   2.170 -0.1789 -0.0648 -0.0891
  172MOL   C19148413   3.178   2.087   2.213  0.3506  0.1571 -0.1249
  172MOL   H19248414   3.068   2.242   2.503 -2.1059 -1.7482  0.1692
  172MOL   H19348415   2.868   2.167   2.430 -0.0063 -1.0076 -0.2865
  172MOL   H19448416   2.725   2.071   2.277 -1.0457 -1.0077 -0.8173
  172MOL   H19548417   2.854   1.953   2.027  0.2817  1.6835 -0.3613
  172MOL   H19648418   3.038   1.976   2.087 -3.0518 -0.4136  0.4564
  172MOL   H19748419   3.262   2.057   2.152 -0.3008 -0.8606 -0.5413
  172MOL   C19848420   2.632   1.954   2.041 -0.3221 -0.4935  0.4473
  172MOL   C19948421   2.609   1.918   1.903  0.6053 -0.4150  0.7738
  172MOL   C20048422   2.472   1.892   1.862 -0.4017 -0.6029  0.3233
  172MOL   C20148423   2.369   1.894   1.954  0.1075 -0.2580 -0.0716
  172MOL   C20248424   2.233   1.870   1.923 -0.1574  0.0091 -1.3338
  172MOL   C20348425   2.188   1.815   1.809  0.2610 -0.0396 -0.3411
  172MOL   C20448426   2.391   1.936   2.086  0.3094  0.3430 -0.4393
  172MOL   C20548427   2.520   1.963   2.125  0.9344 -0.1599  0.3896
  172MOL   H20648428   2.688   1.925   1.829 -0.9955  2.0301 -0.7457
  172MOL   H20748429   2.451   1.870   1.758 -0.0344  1.5568 -0.2354
  172MOL   H20848430   2.161   1.895   1.999  0.5144 -0.3099 -0.5769
  172MOL   H20948431   2.263   1.792   1.734 -1.8679 -1.1304 -2.1713
  172MOL   H21048432   2.304   1.938   2.150 -1.1112 -2.4527 -2.1757
  172MOL   H21148433   2.527   1.995   2.227 -1.3146 -0.4570  0.6617
  172MOL   C21248434   2.053   1.781   1.760  0.4108  0.5881  0.4599
  172MOL   C21348435   2.022   1.762   1.621 -0.6005  0.7126  0.0178
  172MOL   C21448436   1.896   1.741   1.576  0.3899 -0.2143  0.5403
  172MOL   C21548437   1.792   1.738   1.658 -0.5035  0.3281  0.0784
  172MOL   C21648438   1.657   1.712   1.601  0.3330 -0.1190 -0.2309
  172MOL   C21748439   1.538   1.727   1.655 -0.0854 -0.0877 -0.1642
  172MOL   C21848440   1.814   1.752   1.797 -0.5042  0.2936 -0.0666
  172MOL   C21948441   1.944   1.784   1.849  0.3360 -0.2461 -0.2125
  172MOL   H22048442   2.105   1.763   1.552  0.8790 -0.8875  1.7182
  172MOL   H22148443   1.887   1.712   1.472  0.6462 -0.8433  0.6948
  172MOL   H22248444   1.670   1.678   1.499  1.5054  0.8138 -0.3953
  172MOL   H22348445   1.537   1.775   1.751 -0.3484 -0.0685 -0.1772
  172MOL   H22448446   1.731   1.744   1.865 -1.3864 -2.4467 -1.3676
  172MOL   H22548447   1.961   1.791   1.955  0.9352  1.4049 -0.4020
  172MOL   C22648448   1.412   1.681   1.585 -0.0366 -0.2624  0.2775
  172MOL   C22748449   1.291   1.754   1.601  0.1535  0.4489  0.1944
  172MOL   C22848450   1.174   1.716   1.529 -0.4251 -0.5517 -0.2261
  172MOL   C22948451   1.181   1.600   1.450 -0.2621 -0.3312 -0.3600
  172MOL   C23048452   1.066   1.556   1.365  0.0481  0.1596  0.1167
  172MOL   C23148453   0.948   1.619   1.354  0.2804  0.4687 -0.0178
  172MOL   C23248454   1.301   1.523   1.437  0.1576 -0.4949 -0.1074
  172MOL   C23348455   1.418   1.569   1.505  0.7375 -0.4415  0.5098
  172MOL   H23448456   1.290   1.838   1.670 -1.5377  1.7490 -1.3749
  172MOL   H23548457   1.086   1.778   1.541  0.0697  0.3131 -0.9906
  172MOL   H23648458   1.082   1.468   1.304  2.7740  0.7138 -0.0212
  172MOL   H23748459   0.923   1.705   1.415 -0.9925 -0.1542  0.3734
  172MOL   H23848460   1.318   1.440   1.371  2.5166 -0.3985  0.3304
  172MOL   H23948461   1.511   1.517   1.489 -0.3661 -1.8516 -1.5729
  172MOL   C24048462   0.831   1.578   1.273 -0.4960 -0.1801 -0.2343
  172MOL   C24148463   0.825   1.452   1.202  0.6977 -0.2340  0.0283
  172MOL   C24248464   0.712   1.421   1.121  0.5586  0.1031 -0.3810
  172MOL   C24348465   0.599   1.507   1.110  0.4879  0.0480  0.1962
  172MOL   C24448466   0.478   1.470   1.037  0.2941 -0.9691  0.4450
  172MOL   C24548467   0.364   1.542   1.025 -0.2229  0.5270 -0.3395
  172MOL   C24648468   0.611   1.634   1.177  0.1382  0.0493 -0.0555
  172MOL   C24748469   0.725   1.664   1.253 -0.6116 -0.4427  0.2466
  172MOL   H24848470   0.906   1.381   1.200  2.1318  1.4061 -1.4908
  172MOL   H24948471   0.726   1.326   1.072 -0.1803 -0.9526  1.4176
  172MOL   H25048472   0.476   1.370   0.998 -0.4422  0.0895 -2.3777
  172MOL   H25148473   0.361   1.643   1.062 -0.3753 -0.1155  1.4334
  172MOL   H25248474   0.532   1.709   1.172 -0.0684 -0.0280  1.7571
  172MOL   H25348475   0.727   1.753   1.314  0.0149 -1.2888  1.5021
  172MOL   C25448476   0.244   1.500   0.955 -0.4637  0.4858 -0.3812
  172MOL   C25548477   0.221   1.387   0.873 -0.0623 -0.0792  0.3761
  172MOL   C25648478   0.100   1.366   0.805 -0.0933 -0.1020  0.0728
  172MOL   C25748479   8.142   1.456   0.819  0.7078 -0.1456 -0.1734
  172MOL   C25848480   8.007   1.433   0.757  0.4408 -0.0215  0.1647
  172MOL   C25948481   7.968   1.378   0.639  0.2326 -0.2575  0.4196
  172MOL   C26048482   0.014   1.577   0.900  0.7153 -0.5519 -0.2888
  172MOL   C26148483   0.142   1.594   0.960 -0.1634 -1.0277  0.2762
  172MOL   H26248484   0.292   1.307   0.856  0.1196  0.1326  0.1337
  172MOL   H26348485   0.087   1.271   0.755 -0.2051  1.3522 -2.7821
  172MOL   H26448486   7.924   1.456   0.823  1.3178  1.0932  0.9095
  172MOL   H26548487   7.862   1.369   0.621  0.0629  0.3231  1.1067
  172MOL   H26648488   8.082   1.652   0.909  1.4565  0.0641  1.0079
  172MOL   H26748489   0.157   1.688   1.011  0.0796 -1.1703  0.4734
  172MOL   C26848490   8.050   1.332   0.535 -0.0626 -0.3389 -0.0694
  172MOL   C26948491   8.004   1.222   0.464 -0.3945  0.2091  0.6447
  172MOL   C27048492   8.078   1.171   0.351  1.1459  0.0520  0.1456
  172MOL   C27148493   0.052   1.235   0.308  0.4844  0.0707  1.1091
  172MOL   C27248494   0.117   1.178   0.186 -0.4490 -0.5698  0.2684
  172MOL   C27348495   0.249   1.193   0.150 -0.3449 -0.0313  0.4460
  172MOL   C27448496   0.103   1.338   0.389 -0.7891 -0.3406  0.6189
  172MOL   C27548497   0.035   1.381   0.503  0.0555  0.0671  0.8108
  172MOL   H27648498   7.905   1.181   0.482 -0.5324  1.4636  2.9834
  172MOL   H27748499   8.030   1.088   0.302  0.6553 -2.7930  5.1381
  172MOL   H27848500   0.050   1.127   0.118 -1.2057 -0.0407  0.6103
  172MOL   H27948501   0.315   1.255   0.209  0.5734  1.4521 -2.0364
  172MOL   H28048502   0.192   1.394   0.366 -0.6126 -0.8824 -0.0549
  172MOL   H28148503   0.075   1.468   0.553  1.5920  0.5980 -1.3067
  172MOL   H28248504   0.275   1.150   0.054 -2.3448 -0.0948 -0.0775
  173MOL     C148505   4.093   0.346   2.104 -0.2102 -0.1374 -0.1751
  173MOL     C248506   4.100   0.272   2.226 -0.1100 -0.1993 -0.0504
  173MOL     C348507   4.214   0.270   2.302  0.3266 -0.6918 -0.6230
  173MOL     C448508   4.320   0.360   2.270 -0.0927 -0.5555 -0.3746
  173MOL     C548509   4.446   0.369   2.349 -0.5198 -0.3179  0.4442
  173MOL     C648510   4.490   0.291   2.454 -1.0540  0.8537 -0.2969
  173MOL     C748511   4.312   0.440   2.149  0.7557 -0.5701  0.5946
  173MOL     C848512   4.204   0.419   2.060  0.3481  0.3617  0.3558
  173MOL     H948513   4.021   0.206   2.257 -0.8321  1.1888  1.0936
  173MOL    H1048514   4.224   0.201   2.385 -0.3651  1.1494  1.0179
  173MOL    H1148515   4.509   0.453   2.324 -0.9327 -0.0653  0.2509
  173MOL    H1248516   4.422   0.220   2.499 -0.5844  1.6147  1.6662
  173MOL    H1348517   4.393   0.509   2.133 -0.0242  0.3368  0.4586
  173MOL    H1448518   4.192   0.473   1.967  0.8907  0.7504  0.5086
  173MOL    H1548519   4.010   0.351   2.035 -1.1899 -0.6378  0.9458
  173MOL    C1648520   4.616   0.307   2.530  0.1548  0.4089  0.2371
  173MOL    C1748521   4.625   0.261   2.666  0.3328 -0.2417  0.8591
  173MOL    C1848522   4.736   0.282   2.746  0.2787 -0.7101  0.0201
  173MOL    C1948523   4.857   0.326   2.682  0.2786 -0.4754  0.0060
  173MOL    C2048524   4.983   0.329   2.760 -0.5709  0.4399 -0.0774
  173MOL    C2148525   5.106   0.347   2.711 -0.0178  0.1001 -0.1853
  173MOL    C2248526   4.854   0.366   2.546  0.3852 -1.1684  0.4913
  173MOL    C2348527   4.738   0.366   2.474 -0.0792 -0.1187 -0.4752
  173MOL    H2448528   4.542   0.207   2.707 -0.4943  0.2815 -0.0852
  173MOL    H2548529   4.736   0.249   2.848 -0.3683  0.5612  0.4409
  173MOL    H2648530   4.971   0.316   2.866  1.0814  0.2001  0.1024
  173MOL    H2748531   5.118   0.363   2.604  1.3891  0.4590  0.0195
  173MOL    H2848532   4.944   0.408   2.504  1.0123 -0.6913  2.2602
  173MOL    H2948533   4.737   0.396   2.370 -3.2955  3.1736  0.3731
  173MOL    C3048534   5.236   0.348   2.777  1.3347  0.7066  0.0548
  173MOL    C3148535   5.246   0.324   2.915 -0.2996  0.6805  0.5648
  173MOL    C3248536   5.369   0.343   2.983  0.0130 -0.3282 -0.6403
  173MOL    C3348537   5.489   0.358   2.911 -0.4464  0.6067 -0.6075
  173MOL    C3448538   5.612   0.367   2.987 -0.1127 -0.5866  0.0230
  173MOL    C3548539   5.731   0.429   2.955 -0.1044  0.3387 -0.0319
  173MOL    C3648540   5.485   0.377   2.774  0.0500 -0.0947 -0.6931
  173MOL    C3748541   5.357   0.374   2.709  0.2745 -0.2054  0.3431
  173MOL    H3848542   5.160   0.289   2.970  0.2917  0.7600  1.5395
  173MOL    H3948543   5.374   0.323   3.090  1.8263 -1.1127 -0.8479
  173MOL    H4048544   5.614   0.311   3.079  0.7095 -0.6811 -0.0458
  173MOL    H4148545   5.746   0.487   2.865  1.7390  1.6865  1.1099
  173MOL    H4248546   5.571   0.409   2.718 -0.0496 -0.4646 -1.0530
  173MOL    H4348547   5.347   0.384   2.602 -2.2318 -0.2238  0.5599
  173MOL    C4448548   5.863   0.411   3.030  0.5266 -0.8335 -0.2056
  173MOL    C4548549   5.988   0.443   2.970  0.3834 -0.0508  0.0735
  173MOL    C4648550   6.111   0.416   3.040  0.4031  1.3216  0.2002
  173MOL    C4748551   6.107   0.363   3.172  0.4271 -0.5396 -0.0007
  173MOL    C4848552   6.233   0.332   3.245  0.3110  1.2337  0.3483
  173MOL    C4948553   6.353   0.396   3.224  0.0597  0.5751  0.2089
  173MOL    C5048554   5.985   0.338   3.235  0.3191 -0.4778 -0.1976
  173MOL    C5148555   5.866   0.354   3.160 -0.2957 -0.2266 -0.3176
  173MOL    H5248556   5.996   0.486   2.871 -0.9680 -1.4451 -0.6599
  173MOL    H5348557   6.208   0.427   2.993  2.0755 -1.1919  2.9143
  173MOL    H5448558   6.222   0.250   3.315 -2.6689  1.2041 -0.0968
  173MOL    H5548559   6.356   0.473   3.148  0.9997 -2.8432 -3.3600
  173MOL    H5648560   5.973   0.306   3.337 -0.3234  0.2538 -0.0459
  173MOL    H5748561   5.776   0.320   3.210 -0.9814 -0.1357 -1.4803
  173MOL    C5848562   6.477   0.370   3.297 -0.1561  0.2989  0.1704
  173MOL    C5948563   6.595   0.436   3.258  0.6395  0.8303 -0.4482
  173MOL    C6048564   6.730   0.395   3.307  0.0703 -0.8696 -0.2120
  173MOL    C6148565   6.741   0.301   3.403 -0.6048 -0.3363 -0.6686
  173MOL    C6248566   6.881   0.268   3.449 -0.2240  0.0909  0.6090
  173MOL    C6348567   6.909   0.191   3.553 -0.1185  0.7420 -0.7719
  173MOL    C6448568   6.623   0.235   3.444 -0.0767 -0.2234 -0.3148
  173MOL    C6548569   6.492   0.270   3.398 -0.0504 -0.0319 -0.4189
  173MOL    H6648570   6.598   0.514   3.184  0.9904 -0.4970 -1.8767
  173MOL    H6748571   6.810   0.457   3.271  2.9048 -3.5286  1.2533
  173MOL    H6848572   6.960   0.310   3.389 -2.0411  1.3737 -0.9752
  173MOL    H6948573   6.829   0.153   3.614  1.0120  1.0777  0.9688
  173MOL    H7048574   6.633   0.162   3.523  1.6837  0.0204 -0.2856
  173MOL    H7148575   6.408   0.215   3.439 -1.8859  1.3376 -2.2261
  173MOL    C7248576   7.049   0.169   3.597  0.4536 -0.0101 -0.8015
  173MOL    C7348577   7.160   0.232   3.547 -0.3749  0.2517 -0.2749
  173MOL    C7448578   7.289   0.204   3.592 -0.3696  0.0519  0.1462
  173MOL    C7548579   7.312   0.091   3.675 -0.0180 -1.0418 -0.8550
  173MOL    C7648580   7.454   0.068   3.716 -0.0089 -0.5753 -0.3981
  173MOL    C7748581   7.488   8.142   3.827  0.0475 -0.3419  0.0947
  173MOL    C7848582   7.202   0.017   3.718 -0.2567  0.2226  0.7861
  173MOL    C7948583   7.076   0.061   3.684  0.1396  0.1943 -0.4676
  173MOL    H8048584   7.142   0.317   3.482 -3.4978 -1.2406 -1.4702
  173MOL    H8148585   7.376   0.258   3.559  0.7864 -1.0706  1.2948
  173MOL    H8248586   7.536   0.099   3.653  0.9730  0.0018  1.1347
  173MOL    H8348587   7.412   8.120   3.901  1.1252  0.1108  1.3481
  173MOL    H8448588   7.211   8.071   3.777 -4.3903 -1.0205 -0.2454
  173MOL    H8548589   6.989   0.006   3.717 -0.8389  1.4895 -0.8799
  173MOL    C8648590   7.625   8.108   3.864  0.9584  1.1669 -0.0188
  173MOL    C8748591   7.732   0.041   3.814  0.7308  0.2557 -0.3856
  173MOL    C8848592   7.863   0.002   3.863  0.0318 -0.5110 -0.9102
  173MOL    C8948593   7.880   8.038   3.955  0.5770  0.7476  0.0705
  173MOL    C9048594   8.018   8.005   4.002 -0.4040 -0.2350  0.5583
  173MOL    C9148595   8.059   7.887   4.036  0.0306  0.2603  0.7564
  173MOL    C9248596   7.771   7.955   3.992 -0.6456 -0.0375  0.4751
  173MOL    C9348597   7.645   7.992   3.947  0.5120 -0.5279  0.6596
  173MOL    H9448598   7.728   0.128   3.750  0.7036 -1.5266 -2.8499
  173MOL    H9548599   7.943   0.068   3.834 -0.2354  1.0921  1.7990
  173MOL    H9648600   8.089   8.086   4.003  0.5139 -0.8977 -3.3872
  173MOL    H9748601   7.984   7.810   4.021  0.6607 -0.4262  1.0814
  173MOL    H9848602   7.787   7.863   4.046 -0.3948 -1.1966 -1.5460
  173MOL    H9948603   7.565   7.928   3.981  0.0834 -0.3326  0.0355
  173MOL   C10048604   0.045   7.832   4.083  0.0440 -0.0354 -0.3312
  173MOL   C10148605   0.058   7.698   4.095 -0.4592  0.3441 -0.1329
  173MOL   C10248606   0.185   7.644   4.138 -0.5024  0.6449  0.3579
  173MOL   C10348607   0.292   7.730   4.173 -0.1861 -0.4380  0.1066
  173MOL   C10448608   0.425   7.677   4.217 -0.9549  0.7387  0.3641
  173MOL   C10548609   0.439   7.546   4.256  0.2248 -0.5118  0.3732
  173MOL   C10648610   0.274   7.867   4.159  0.0445 -0.0607 -0.4078
  173MOL   C10748611   0.157   7.921   4.113 -0.0407  0.3245  0.4073
  173MOL   H10848612   8.124   7.631   4.063 -0.7408  0.3818  0.4722
  173MOL   H10948613   0.188   7.536   4.151  1.4178  0.4861 -1.0767
  173MOL   H11048614   0.510   7.739   4.193 -0.6192  1.1045  2.4570
  173MOL   H11148615   0.346   7.498   4.280 -1.1118  1.9608  0.3111
  173MOL   H11248616   0.354   7.935   4.187  0.4495 -0.7005  0.0076
  173MOL   H11348617   0.152   8.029   4.113  0.6742  0.3613  0.2296
  173MOL   C11448618   0.561   7.471   4.285 -0.4512 -0.1263 -0.3842
  173MOL   C11548619   0.554   7.333   4.319 -0.0968  0.3821 -0.4518
  173MOL   C11648620   0.672   7.262   4.336  0.3576 -0.0441  0.5531
  173MOL   C11748621   0.799   7.321   4.312 -0.0009 -0.1351  0.0205
  173MOL   C11848622   0.926   7.236   4.313 -0.0863 -0.2554 -0.2888
  173MOL   C11948623   0.957   7.132   4.393 -0.3450  0.0614  0.3529
  173MOL   C12048624   0.806   7.456   4.272 -0.0243  0.1928 -0.1038
  173MOL   C12148625   0.690   7.532   4.269  0.0663 -0.4434  0.2635
  173MOL   H12248626   0.457   7.287   4.328 -0.2224  0.6284 -0.5595
  173MOL   H12348627   0.668   7.160   4.372  0.2042  0.0544  0.8123
  173MOL   H12448628   1.005   7.263   4.245  1.0901  0.9149  1.4887
  173MOL   H12548629   0.884   7.100   4.465 -0.7751  0.4171  0.0758
  173MOL   H12648630   0.905   7.484   4.237  0.5321 -1.1323  0.3943
  173MOL   H12748631   0.702   7.638   4.252  1.1990 -0.3556  1.5112
  173MOL   C12848632   1.076   7.039   4.381  0.0687 -0.3776  0.6202
  173MOL   C12948633   1.152   7.027   4.259  0.8433  0.5145 -0.1564
  173MOL   C13048634   1.261   6.938   4.250  0.3384 -0.6028  0.7873
  173MOL   C13148635   1.296   6.865   4.365  0.0824 -0.5027 -0.3306
  173MOL   C13248636   1.422   6.782   4.377 -0.1067  0.2249 -0.2651
  173MOL   C13348637   1.506   6.755   4.276 -0.1045 -0.8098  0.2959
  173MOL   C13448638   1.231   6.879   4.485  0.0589 -0.4212  0.3271
  173MOL   C13548639   1.129   6.972   4.489  1.2662 -0.9164  0.0735
  173MOL   H13648640   1.135   7.099   4.181 -2.0390  0.3979  0.3110
  173MOL   H13748641   1.321   6.929   4.160 -0.0359 -2.5850  0.7201
  173MOL   H13848642   1.444   6.748   4.477  2.8378 -0.1927 -1.0078
  173MOL   H13948643   1.490   6.792   4.175  1.4300  0.2248  0.4020
  173MOL   H14048644   1.261   6.833   4.578 -1.9331 -0.5045  0.9585
  173MOL   H14148645   1.075   6.976   4.583 -0.5611 -2.5046 -0.8919
  173MOL   C14248646   1.630   6.679   4.296  0.5528 -0.2042  0.0755
  173MOL   C14348647   1.705   6.657   4.183 -0.2514  0.4951 -0.2168
  173MOL   C14448648   1.831   6.594   4.182  0.2229 -0.0513 -0.8949
  173MOL   C14548649   1.885   6.559   4.307 -0.4526 -0.0384 -0.3672
  173MOL   C14648650   2.019   6.501   4.329  0.5833  1.0225  0.1568
  173MOL   C14748651   2.107   6.460   4.232 -0.2897  0.2706  0.2775
  173MOL   C14848652   1.810   6.585   4.429 -0.0022  0.2574  0.2155
  173MOL   C14948653   1.685   6.641   4.416  0.6187 -0.7966  0.2907
  173MOL   H15048654   1.676   6.689   4.083  2.2268  0.8354 -0.8583
  173MOL   H15148655   1.892   6.575   4.095  0.3990  1.9652 -1.2360
  173MOL   H15248656   2.050   6.472   4.428  0.2151 -1.0987 -0.3398
  173MOL   H15348657   2.079   6.474   4.129  0.8262  1.3009  0.0998
  173MOL   H15448658   1.863   6.557   4.519  1.0074  1.8829  0.1442
  173MOL   H15548659   1.633   6.676   4.504 -0.4323 -2.6288  0.4182
  173MOL   C15648660   2.241   6.390   4.248 -0.4893 -0.6279 -0.6626
  173MOL   C15748661   2.309   6.344   4.138 -0.2672  0.0539 -1.0578
  173MOL   C15848662   2.434   6.280   4.152  0.1530 -0.3661 -0.8032
  173MOL   C15948663   2.492   6.259   4.279  0.3952 -0.5879 -0.2607
  173MOL   C16048664   2.629   6.200   4.301 -0.0051 -0.2210 -0.5534
  173MOL   C16148665   2.707   6.145   4.209  0.5945 -1.0422  0.8150
  173MOL   C16248666   2.419   6.311   4.391 -0.1429 -0.5166 -0.0419
  173MOL   C16348667   2.297   6.383   4.373  0.1525  0.6900  0.3316
  173MOL   H16448668   2.267   6.357   4.039 -1.2055 -0.4426 -0.7306
  173MOL   H16548669   2.487   6.260   4.059  1.3002 -2.3800  0.2459
  173MOL   H16648670   2.657   6.195   4.406 -0.8395 -3.8922 -0.4199
  173MOL   H16748671   2.668   6.143   4.109 -0.0408 -1.1874  1.0586
  173MOL   H16848672   2.458   6.319   4.491 -0.7687  0.4236  0.1431
  173MOL   H16948673   2.251   6.419   4.464  2.7520 -0.0953  1.9888
  173MOL   C17048674   2.839   6.083   4.232 -0.9414 -0.8593 -0.0348
  173MOL   C17148675   2.909   6.092   4.355  0.7974 -0.4054 -0.0555
  173MOL   C17248676   3.025   6.016   4.378  0.6653  0.4826  0.6768
  173MOL   C17348677   3.084   5.946   4.270  0.2071 -0.3083 -0.4769
  173MOL   C17448678   3.222   5.891   4.287  0.1255  0.0308 -0.1250
  173MOL   C17548679   3.298   5.830   4.197  0.2858  0.7418  0.1403
  173MOL   C17648680   3.017   5.938   4.144  0.5874  0.4441  0.9440
  173MOL   C17748681   2.892   5.997   4.125  0.4989 -0.2939 -0.8771
  173MOL   H17848682   2.875   6.168   4.424 -2.4964 -2.6429  0.9500
  173MOL   H17948683   3.077   6.014   4.472 -2.3812 -1.3306  2.4250
  173MOL   H18048684   3.256   5.902   4.389  2.5291 -4.8449 -0.2402
  173MOL   H18148685   3.250   5.815   4.102 -1.9399 -0.7823  1.4586
  173MOL   H18248686   3.059   5.868   4.073  1.7000 -0.8245  2.7970
  173MOL   H18348687   2.834   5.988   4.035 -1.1321  0.6377  0.0607
  173MOL   C18448688   3.437   5.780   4.202  0.5356  0.8281  0.9133
  173MOL   C18548689   3.473   5.667   4.125 -0.5627 -0.3973  0.1119
  173MOL   C18648690   3.597   5.603   4.151  0.1176 -0.3370  0.0761
  173MOL   C18748691   3.691   5.656   4.241  0.1769  0.3642  0.4286
  173MOL   C18848692   3.816   5.596   4.269  0.1372  0.1520  1.0658
  173MOL   C18948693   3.867   5.483   4.217  0.1557  0.0536 -0.2891
  173MOL   C19048694   3.654   5.772   4.314 -0.1978 -0.4196 -0.0127
  173MOL   C19148695   3.526   5.833   4.297 -0.0284  0.6082  0.2937
  173MOL   H19248696   3.402   5.623   4.057 -0.8757 -0.2757  0.3571
  173MOL   H19348697   3.623   5.509   4.105  0.1616  0.1522 -0.9198
  173MOL   H19448698   3.874   5.659   4.335 -0.3348  0.1802  1.4507
  173MOL   H19548699   3.804   5.429   4.148  1.1475  0.3443 -1.4306
  173MOL   H19648700   3.725   5.822   4.378 -2.5544 -0.4322  2.6957
  173MOL   H19748701   3.510   5.912   4.369 -2.1074 -0.2973  0.8651
  173MOL   C19848702   4.013   5.440   4.233 -0.0711  0.0359  0.3243
  173MOL   C19948703   4.050   5.304   4.219  0.2663 -0.0539 -0.0580
  173MOL   C20048704   4.190   5.268   4.226 -0.3078 -0.5745 -0.1872
  173MOL   C20148705   4.286   5.367   4.259 -0.2290  0.4292 -0.2758
  173MOL   C20248706   4.431   5.343   4.267 -0.0258 -0.3245  0.6235
  173MOL   C20348707   4.486   5.224   4.286 -0.7159  0.0635  0.1290
  173MOL   C20448708   4.245   5.501   4.269  0.3499  0.3542 -0.1183
  173MOL   C20548709   4.110   5.538   4.263  0.7693  0.1007  0.1398
  173MOL   H20648710   3.970   5.236   4.194  0.8811  0.1093 -2.6079
  173MOL   H20748711   4.219   5.165   4.213 -0.6156 -0.6514 -0.2850
  173MOL   H20848712   4.496   5.430   4.266 -1.3252  0.6713 -0.5034
  173MOL   H20948713   4.420   5.138   4.283  0.0703 -0.5075 -1.1488
  173MOL   H21048714   4.312   5.585   4.279 -1.7201  2.3062 -2.0555
  173MOL   H21148715   4.079   5.641   4.270  1.7881  0.4579 -0.4599
  173MOL   C21248716   4.633   5.205   4.309  0.1581  0.2037 -1.0609
  173MOL   C21348717   4.726   5.310   4.336  0.1202 -0.4407 -0.1278
  173MOL   C21448718   4.861   5.284   4.364  1.1181  1.0526  0.2166
  173MOL   C21548719   4.903   5.153   4.383 -0.3971 -0.1012 -0.3402
  173MOL   C21648720   5.049   5.139   4.425  0.2893  0.2550  0.1299
  173MOL   C21748721   5.126   5.030   4.404  0.0313  0.4210 -0.0032
  173MOL   C21848722   4.824   5.049   4.354 -0.3189  0.5700 -0.1587
  173MOL   C21948723   4.685   5.070   4.322 -0.3447 -0.3359 -0.2013
  173MOL   H22048724   4.688   5.410   4.326 -0.2835 -0.4559  1.1363
  173MOL   H22148725   4.932   5.361   4.390 -0.5324  1.9532  2.1151
  173MOL   H22248726   5.089   5.213   4.492  0.3905  0.5993 -0.3071
  173MOL   H22348727   5.083   4.950   4.346 -1.4509  1.7188 -0.7171
  173MOL   H22448728   4.864   4.950   4.369 -1.7202 -0.2954 -1.9680
  173MOL   H22548729   4.629   4.983   4.292  0.1506 -0.5706 -0.4473
  173MOL   C22648730   5.264   5.011   4.458 -0.7564  0.3606  0.4893
  173MOL   C22748731   5.351   4.921   4.395 -0.2164  0.0770 -0.4708
  173MOL   C22848732   5.479   4.896   4.444  0.0810 -0.6853 -0.4251
  173MOL   C22948733   5.527   4.972   4.552  0.2099  0.9104 -0.7047
  173MOL   C23048734   5.670   4.953   4.599  0.2221 -0.7173 -0.2671
  173MOL   C23148735   5.760   4.858   4.561  0.1882 -0.7162 -0.5556
  173MOL   C23248736   5.445   5.072   4.610 -0.3554 -0.0071 -0.1811
  173MOL   C23348737   5.314   5.089   4.562 -0.0889  0.3123 -0.1297
  173MOL   H23448738   5.316   4.849   4.322  1.1156  1.4977 -2.5736
  173MOL   H23548739   5.545   4.824   4.397  1.4099  1.7537 -2.4197
  173MOL   H23648740   5.707   5.029   4.666 -1.8055 -1.3451  1.6184
  173MOL   H23748741   5.721   4.792   4.485 -2.1029  1.3893 -1.2638
  173MOL   H23848742   5.488   5.138   4.683 -1.0731 -0.4727  0.6827
  173MOL   H23948743   5.254   5.170   4.602 -1.8868 -0.2608 -1.5836
  173MOL   C24048744   5.897   4.847   4.615  0.0723  0.0672  0.2401
  173MOL   C24148745   5.953   4.935   4.711  0.2128 -0.3636  0.2849
  173MOL   C24248746   6.090   4.925   4.747 -0.3728 -0.3453  0.2202
  173MOL   C24348747   6.176   4.822   4.700 -0.3369 -0.2216  0.2861
  173MOL   C24448748   6.313   4.796   4.740 -0.0801  0.2831 -0.5871
  173MOL   C24548749   6.380   4.854   4.839  0.4282 -0.1898  0.2211
  173MOL   C24648750   6.111   4.729   4.609  0.3057  0.4955 -0.5350
  173MOL   C24748751   5.981   4.751   4.563  0.2018  0.7404  0.6694
  173MOL   H24848752   5.895   5.018   4.749 -0.8884 -1.1353  0.3403
  173MOL   H24948753   6.133   4.999   4.813 -1.8916  0.6341  0.1369
  173MOL   H25048754   6.368   4.724   4.682 -1.1865  0.2730 -1.6470
  173MOL   H25148755   6.324   4.927   4.896  0.7496 -1.9692  2.8916
  173MOL   H25248756   6.156   4.639   4.572  1.9501  1.2947 -0.5391
  173MOL   H25348757   5.938   4.680   4.493  1.1613  0.7588  0.0503
  173MOL   C25448758   6.519   4.855   4.882 -0.5717 -0.3097 -0.6370
  173MOL   C25548759   6.564   4.933   4.993  0.0870 -0.6993 -0.1233
  173MOL   C25648760   6.700   4.929   5.030  0.1246 -0.2426 -0.2077
  173MOL   C25748761   6.791   4.846   4.955  0.1882 -0.3352 -0.7518
  173MOL   C25848762   6.933   4.867   4.963  0.9105 -0.8167 -0.8384
  173MOL   C25948763   7.032   4.790   5.012 -0.1832  0.3455 -0.1797
  173MOL   C26048764   6.740   4.763   4.854 -0.2381  0.3014  0.8892
  173MOL   C26148765   6.608   4.763   4.820  0.9592 -0.3930 -0.2896
  173MOL   H26248766   6.490   4.994   5.043  0.1667 -0.1856 -0.6381
  173MOL   H26348767   6.728   4.988   5.116 -0.6998 -1.3964  0.8665
  173MOL   H26448768   6.967   4.965   4.931 -1.3881  0.0629 -0.6970
  173MOL   H26548769   7.133   4.827   5.011  0.0525 -0.2985  0.0854
  173MOL   H26648770   6.822   4.720   4.798  0.3323  0.2333  1.7767
  173MOL   H26748771   6.579   4.698   4.740  1.4108  0.3572 -1.0715
  173MOL   C26848772   7.025   4.659   5.076  0.8746 -0.0667  0.0108
  173MOL   C26948773   7.145   4.594   5.093  0.1028 -0.7816  0.3523
  173MOL   C27048774   7.153   4.462   5.151 -0.9792 -0.4678  0.0983
  173MOL   C27148775   7.033   4.408   5.198 -1.3756  0.3501 -0.8461
  173MOL   C27248776   7.031   4.271   5.260 -0.8825  0.5825 -0.7926
  173MOL   C27348777   7.130   4.184   5.274 -0.0369 -0.2287 -0.5258
  173MOL   C27448778   6.914   4.482   5.196 -0.0314  0.3770 -0.5383
  173MOL   C27548779   6.907   4.601   5.128  0.1386 -0.3358 -0.1745
  173MOL   H27648780   7.241   4.626   5.055  0.0197 -2.4539 -1.3706
  173MOL   H27748781   7.248   4.411   5.158 -2.4110 -3.2686 -0.3522
  173MOL   H27848782   6.928   4.250   5.286 -0.5838 -0.4247 -0.4085
  173MOL   H27948783   7.233   4.205   5.249  0.1345 -0.6689 -0.1942
  173MOL   H28048784   6.825   4.454   5.250 -0.0093 -1.0953 -1.2168
  173MOL   H28148785   6.812   4.653   5.123 -0.6813 -1.6286  1.3119
  173MOL   H28248786   7.115   4.082   5.307 -1.6248 -0.0207 -0.5281
  174MOL     C148787   1.214   0.576   4.582 -0.0324 -0.0536 -1.2224
  174MOL     C248788   1.350   0.545   4.616  0.5556  0.3832 -0.0293
  174MOL     C348789   1.453   0.640   4.626 -0.0709  0.5689 -0.3679
  174MOL     C448790   1.423   0.777   4.601  0.2763  0.7000 -0.7636
  174MOL     C548791   1.528   0.878   4.603 -0.1189 -0.2471 -0.2778
  174MOL     C648792   1.658   0.848   4.576  0.0990 -0.1698  0.1861
  174MOL     C748793   1.292   0.810   4.564  0.0602  0.2656 -0.5600
  174MOL     C848794   1.193   0.716   4.560 -0.2797  0.3264  0.0220
  174MOL     H948795   1.362   0.439   4.629 -1.3736  0.2843  1.1458
  174MOL    H1048796   1.554   0.611   4.649  0.3649  1.3666 -1.2283
  174MOL    H1148797   1.492   0.973   4.641  1.8760  0.8621 -1.0407
  174MOL    H1248798   1.693   0.755   4.534  1.3988 -0.1172  1.1532
  174MOL    H1348799   1.268   0.912   4.536 -1.1830 -0.2093 -1.2968
  174MOL    H1448800   1.093   0.749   4.537 -0.9941 -1.6546  0.1231
  174MOL    H1548801   1.143   0.497   4.566  1.2586 -1.8848  1.6228
  174MOL    C1648802   1.768   0.937   4.586 -0.4522  0.4252 -0.1906
  174MOL    C1748803   1.764   1.078   4.616  0.4427  0.5052  0.1217
  174MOL    C1848804   1.881   1.148   4.636 -0.0130  0.4085 -0.8681
  174MOL    C1948805   2.009   1.085   4.616  0.0393 -0.5372  0.3438
  174MOL    C2048806   2.142   1.148   4.644 -0.1791 -0.7751 -0.0630
  174MOL    C2148807   2.158   1.282   4.664  0.4378  0.4543  0.1017
  174MOL    C2248808   2.012   0.957   4.568  0.0394 -0.5953 -0.8769
  174MOL    C2348809   1.892   0.884   4.567  0.0356 -0.2273 -0.0266
  174MOL    H2448810   1.666   1.124   4.621 -0.5027 -1.3846 -0.4761
  174MOL    H2548811   1.866   1.249   4.672 -0.6355  0.4731 -1.3002
  174MOL    H2648812   2.228   1.083   4.647  1.2800  1.0203 -1.3655
  174MOL    H2748813   2.073   1.348   4.657 -0.9511 -1.4364 -1.2279
  174MOL    H2848814   2.113   0.919   4.563  0.9147  0.9350  3.3188
  174MOL    H2948815   1.899   0.776   4.563  1.8058 -0.3386  3.6620
  174MOL    C3048816   2.286   1.344   4.698 -0.3339 -0.6973  0.6995
  174MOL    C3148817   2.286   1.465   4.774  0.5114 -0.3385  0.9022
  174MOL    C3248818   2.402   1.529   4.799 -0.1474  0.0192 -0.3690
  174MOL    C3348819   2.526   1.478   4.756 -0.7209 -0.2361  0.1200
  174MOL    C3448820   2.643   1.556   4.794 -0.7824 -0.1425 -0.7588
  174MOL    C3548821   2.771   1.538   4.756 -0.1060 -0.1710 -0.3426
  174MOL    C3648822   2.533   1.351   4.693  0.4061  0.1515 -0.1672
  174MOL    C3748823   2.410   1.285   4.666 -0.0375 -0.2518 -0.2000
  174MOL    H3848824   2.195   1.505   4.815 -1.0946 -0.3936 -2.4603
  174MOL    H3948825   2.395   1.627   4.843 -1.3209  0.3609 -1.2961
  174MOL    H4048826   2.633   1.633   4.869  1.0685  0.4086 -1.0508
  174MOL    H4148827   2.797   1.457   4.689  1.1689 -1.3441  1.5095
  174MOL    H4248828   2.626   1.300   4.669  0.8473  1.0141 -0.3100
  174MOL    H4348829   2.414   1.190   4.613  0.9784 -0.7559  0.7557
  174MOL    C4448830   2.889   1.619   4.802 -0.5454  0.3048 -0.2093
  174MOL    C4548831   2.881   1.724   4.896  1.1002  0.0327 -0.4654
  174MOL    C4648832   2.998   1.779   4.951  0.5067 -0.0041  0.6338
  174MOL    C4748833   3.125   1.733   4.900  0.2264  0.8135  0.2641
  174MOL    C4848834   3.248   1.791   4.950 -0.9758 -1.1028 -0.5647
  174MOL    C4948835   3.373   1.774   4.910 -0.4689 -0.2075  0.9929
  174MOL    C5048836   3.131   1.626   4.804 -1.0782  0.5096 -0.2195
  174MOL    C5148837   3.008   1.574   4.758 -0.0858 -0.2903  0.6291
  174MOL    H5248838   2.788   1.766   4.930  0.9190 -0.5075 -0.2903
  174MOL    H5348839   2.997   1.868   5.012 -1.6665  0.4838 -0.0822
  174MOL    H5448840   3.225   1.852   5.036 -1.8800 -0.5425 -1.1956
  174MOL    H5548841   3.384   1.701   4.832  0.9138 -0.4195  1.3840
  174MOL    H5648842   3.217   1.577   4.762 -0.6709  1.1107 -0.0960
  174MOL    H5748843   3.019   1.500   4.680  0.0845  0.3106  0.0790
  174MOL    C5848844   3.489   1.837   4.960 -0.9036  0.2227  0.7218
  174MOL    C5948845   3.492   1.938   5.059  0.8620  0.1773 -0.0683
  174MOL    C6048846   3.613   1.997   5.103 -0.0925 -0.2455 -0.3307
  174MOL    C6148847   3.731   1.962   5.045 -0.0472  0.2067  0.1440
  174MOL    C6248848   3.865   2.011   5.098  0.0574 -0.4033 -0.9160
  174MOL    C6348849   3.994   1.989   5.053  0.8523 -0.0989  0.3344
  174MOL    C6448850   3.728   1.863   4.940 -0.8098 -0.0061 -0.2074
  174MOL    C6548851   3.611   1.804   4.897  0.3407  0.0075 -0.1956
  174MOL    H6648852   3.399   1.964   5.108 -0.1709 -1.4845 -1.0605
  174MOL    H6748853   3.612   2.075   5.177  1.0085 -0.1184 -0.4411
  174MOL    H6848854   3.852   2.070   5.187 -0.0739  0.4663 -1.5098
  174MOL    H6948855   4.012   1.920   4.973  0.5190  1.6238 -1.2719
  174MOL    H7048856   3.820   1.844   4.886 -0.0726  0.0172  1.0091
  174MOL    H7148857   3.616   1.737   4.813 -1.0806 -0.9146  0.4416
  174MOL    C7248858   4.118   2.044   5.116 -0.3622 -0.2674 -0.2453
  174MOL    C7348859   4.139   2.080   5.247  0.1863 -0.1857 -0.1904
  174MOL    C7448860   4.267   2.133   5.288 -0.0082 -0.3154 -0.1562
  174MOL    C7548861   4.365   2.149   5.188 -0.0015 -0.1515  0.3368
  174MOL    C7648862   4.499   2.205   5.231  0.7826 -0.4263 -0.1485
  174MOL    C7748863   4.606   2.208   5.151 -0.5174 -0.2830 -0.3556
  174MOL    C7848864   4.337   2.120   5.053  0.2871  0.2002  0.0791
  174MOL    C7948865   4.213   2.066   5.016 -0.4911  0.4681 -0.2565
  174MOL    H8048866   4.057   2.064   5.316 -2.1092 -0.8131 -2.9917
  174MOL    H8148867   4.273   2.153   5.394  1.1312  2.6081 -0.7170
  174MOL    H8248868   4.500   2.243   5.332 -0.1598 -0.0260 -0.2824
  174MOL    H8348869   4.609   2.168   5.051 -1.9032 -0.0424 -0.5022
  174MOL    H8448870   4.413   2.151   4.982 -1.3911 -1.0242 -2.3022
  174MOL    H8548871   4.194   2.043   4.912 -2.9798  0.5958  0.1411
  174MOL    C8648872   4.741   2.259   5.197 -0.0758 -0.0768  0.6517
  174MOL    C8748873   4.768   2.297   5.334  0.3005  0.1635  0.2861
  174MOL    C8848874   4.892   2.353   5.366 -1.1023  0.2973 -0.3883
  174MOL    C8948875   4.988   2.364   5.269 -0.3257 -0.4890 -0.4900
  174MOL    C9048876   5.124   2.419   5.293  0.1416 -1.1126  0.3585
  174MOL    C9148877   5.158   2.497   5.396  0.8692  0.0846 -0.3588
  174MOL    C9248878   4.960   2.330   5.138  0.2350  0.3619  0.3407
  174MOL    C9348879   4.842   2.268   5.103 -0.1554 -0.8343  0.0085
  174MOL    H9448880   4.692   2.298   5.411 -0.1714  0.5097 -0.1774
  174MOL    H9548881   4.919   2.377   5.468  0.5092 -0.0436 -0.7284
  174MOL    H9648882   5.208   2.407   5.226  1.0287 -1.2959  1.4949
  174MOL    H9748883   5.081   2.532   5.464 -0.9382 -1.4518 -1.5445
  174MOL    H9848884   5.036   2.348   5.064  0.5349 -0.2138  0.5102
  174MOL    H9948885   4.824   2.252   4.997  0.4509  0.2230 -0.2556
  174MOL   C10048886   5.291   2.554   5.429  0.2824  0.5119 -0.0922
  174MOL   C10148887   5.298   2.626   5.545 -0.9084 -0.3185 -0.6750
  174MOL   C10248888   5.416   2.687   5.580  0.4506  0.0445 -0.6894
  174MOL   C10348889   5.532   2.675   5.503 -0.2731 -0.0923  0.4996
  174MOL   C10448890   5.645   2.742   5.558  0.7127  0.5352  0.6411
  174MOL   C10548891   5.768   2.725   5.508  0.1343  0.1107 -0.7533
  174MOL   C10648892   5.532   2.599   5.387  0.1701  0.0772  0.2272
  174MOL   C10748893   5.409   2.535   5.358 -0.3398 -0.4041 -0.1662
  174MOL   H10848894   5.215   2.604   5.610 -2.1815  0.6120 -1.9457
  174MOL   H10948895   5.430   2.741   5.672 -0.1201 -2.1535  0.7258
  174MOL   H11048896   5.627   2.820   5.631 -0.9250  0.4847  0.3224
  174MOL   H11148897   5.790   2.653   5.430 -1.2654  0.3260 -1.3601
  174MOL   H11248898   5.618   2.573   5.327 -0.2213 -0.4210 -0.1196
  174MOL   H11348899   5.406   2.479   5.266 -2.4558  2.8386 -2.1962
  174MOL   C11448900   5.884   2.805   5.553  0.3230 -0.3314 -0.1844
  174MOL   C11548901   5.874   2.890   5.669 -0.0030  0.6457  0.0041
  174MOL   C11648902   5.976   2.976   5.707 -0.3144 -0.1430 -0.1328
  174MOL   C11748903   6.102   2.972   5.635 -0.8564  0.6309 -0.2573
  174MOL   C11848904   6.216   3.052   5.687  0.0886 -0.2384 -0.0376
  174MOL   C11948905   6.339   3.061   5.632 -0.2930 -0.1353  0.2879
  174MOL   C12048906   6.117   2.873   5.539  0.2040 -0.4455  0.1150
  174MOL   C12148907   6.011   2.797   5.493 -0.1701  0.4422 -0.2068
  174MOL   H12248908   5.780   2.896   5.721 -0.4131 -1.3395 -0.4366
  174MOL   H12348909   5.959   3.028   5.801 -1.4784  0.6079 -0.7474
  174MOL   H12448910   6.190   3.113   5.772  0.9933 -0.0603  0.1152
  174MOL   H12548911   6.361   3.003   5.543 -0.8226  1.9529 -1.2274
  174MOL   H12648912   6.203   2.865   5.475 -0.7581  0.2887 -1.3242
  174MOL   H12748913   6.046   2.739   5.409  3.0638  1.4317  0.3867
  174MOL   C12848914   6.446   3.157   5.671 -0.1150  0.2686 -0.3373
  174MOL   C12948915   6.576   3.129   5.639  0.5977  0.5776  1.1204
  174MOL   C13048916   6.685   3.213   5.680  0.7745 -0.1299 -0.1749
  174MOL   C13148917   6.662   3.321   5.766 -0.4867 -0.7760  0.1646
  174MOL   C13248918   6.765   3.416   5.815  0.0291 -0.5666  0.1495
  174MOL   C13348919   6.896   3.415   5.775  0.2745  0.7004 -0.0821
  174MOL   C13448920   6.530   3.348   5.804  0.1613  0.0883  0.6080
  174MOL   C13548921   6.426   3.262   5.766 -0.0874  0.0362 -0.0692
  174MOL   H13648922   6.590   3.045   5.571 -3.3435  0.3357  0.4726
  174MOL   H13748923   6.782   3.176   5.651  0.9103 -0.0532  0.1700
  174MOL   H13848924   6.733   3.494   5.883 -0.1481 -0.2683 -0.2726
  174MOL   H13948925   6.932   3.327   5.723  0.2645  0.1602  0.8128
  174MOL   H14048926   6.496   3.418   5.879 -0.9581  1.7122 -1.3573
  174MOL   H14148927   6.329   3.287   5.806 -0.3675 -0.0431 -0.6902
  174MOL   C14248928   6.998   3.510   5.827  0.2775 -0.3898  0.9040
  174MOL   C14348929   7.131   3.506   5.783  0.2579 -0.1951  0.6041
  174MOL   C14448930   7.225   3.603   5.823 -0.1691 -0.8388  0.5332
  174MOL   C14548931   7.187   3.704   5.911  0.0707  0.3923 -0.1373
  174MOL   C14648932   7.277   3.814   5.958 -0.2828 -1.0132 -0.0900
  174MOL   C14748933   7.406   3.823   5.944 -0.2284  0.3521  0.0267
  174MOL   C14848934   7.055   3.704   5.961  0.3270 -0.1649 -0.8170
  174MOL   C14948935   6.964   3.611   5.917  0.0018  0.0768  0.2112
  174MOL   H15048936   7.174   3.435   5.714  0.3072  0.2905  0.1330
  174MOL   H15148937   7.329   3.599   5.795 -0.3032  0.9117 -0.2466
  174MOL   H15248938   7.223   3.897   6.002  1.3624  0.0373 -0.0296
  174MOL   H15348939   7.466   3.739   5.912  3.6829  3.3651 -0.9794
  174MOL   H15448940   7.025   3.776   6.035  0.9831  0.0448 -0.7552
  174MOL   H15548941   6.858   3.618   5.940  0.4059  1.3301  1.8007
  174MOL   C15648942   7.491   3.940   5.971  0.1322 -0.1144 -0.2222
  174MOL   C15748943   7.602   3.981   5.898 -0.6674  0.6951  0.6263
  174MOL   C15848944   7.676   4.099   5.926 -0.0797 -0.0214  0.4842
  174MOL   C15948945   7.631   4.193   6.024 -0.4195  0.4065  0.5627
  174MOL   C16048946   7.690   4.323   6.051  0.0810  0.4065 -0.7001
  174MOL   C16148947   7.673   4.407   6.154 -0.0541  0.0934 -0.2021
  174MOL   C16248948   7.519   4.153   6.101  0.3574  0.0671 -0.3993
  174MOL   C16348949   7.449   4.033   6.075 -0.1759  0.4218 -0.7716
  174MOL   H16448950   7.631   3.927   5.808 -3.8258  0.4550 -0.3059
  174MOL   H16548951   7.756   4.127   5.858 -0.3800  2.8470  1.2338
  174MOL   H16648952   7.748   4.355   5.965  2.6629 -0.0351  0.8413
  174MOL   H16748953   7.618   4.383   6.243  0.9552 -2.6272 -0.2845
  174MOL   H16848954   7.484   4.223   6.175  0.3115  0.2282 -0.5710
  174MOL   H16948955   7.360   4.022   6.135  0.1264 -1.8841 -0.7077
  174MOL   C17048956   7.727   4.546   6.157 -0.1163 -0.5447 -0.2878
  174MOL   C17148957   7.652   4.639   6.227  0.1956  0.3239  0.6311
  174MOL   C17248958   7.681   4.774   6.221 -0.4039  0.1796 -0.3336
  174MOL   C17348959   7.784   4.817   6.139  0.7438  0.0496 -0.3162
  174MOL   C17448960   7.812   4.957   6.116 -0.1628  0.0115 -0.7853
  174MOL   C17548961   7.765   5.059   6.190  0.1480  0.4690 -0.6427
  174MOL   C17648962   7.865   4.725   6.074  0.1746 -0.4384 -0.0325
  174MOL   C17748963   7.830   4.588   6.076 -0.6428 -0.4563 -0.0082
  174MOL   H17848964   7.567   4.601   6.282  0.1630 -0.0032  0.3599
  174MOL   H17948965   7.611   4.834   6.278  0.9939  0.0456  1.6032
  174MOL   H18048966   7.867   4.980   6.025  2.7263 -0.6562  0.7140
  174MOL   H18148967   7.716   5.041   6.284  0.4983  1.3711 -0.2896
  174MOL   H18248968   7.955   4.752   6.022  2.0103 -1.2207  2.6534
  174MOL   H18348969   7.883   4.511   6.020 -1.2506  1.1076 -2.8417
  174MOL   C18448970   7.788   5.199   6.163  0.2300  0.3885  0.0831
  174MOL   C18548971   7.682   5.285   6.209 -0.3016 -0.6945  0.0596
  174MOL   C18648972   7.674   5.417   6.161  0.1518  0.1611  0.6637
  174MOL   C18748973   7.777   5.471   6.079  0.0259 -0.3857  0.5184
  174MOL   C18848974   7.774   5.611   6.023  0.0290 -0.0748  1.1232
  174MOL   C18948975   7.830   5.650   5.910 -0.0728  0.2314 -0.1612
  174MOL   C19048976   7.878   5.385   6.035  0.3849  0.1222 -0.2858
  174MOL   C19148977   7.881   5.253   6.069 -1.0607 -0.0667 -0.7305
  174MOL   H19248978   7.606   5.248   6.276 -0.6231  1.1153  0.7127
  174MOL   H19348979   7.603   5.490   6.197  0.1128  0.6455 -0.3520
  174MOL   H19448980   7.709   5.670   6.086 -2.0272 -2.5069  1.3725
  174MOL   H19548981   7.885   5.578   5.851 -0.3056 -0.5971  0.6103
  174MOL   H19648982   7.944   5.409   5.953 -0.0020  0.3564 -0.5275
  174MOL   H19748983   7.962   5.190   6.036 -1.2689 -1.8770  2.0270
  174MOL   C19848984   7.809   5.782   5.845  0.0713  0.1786  0.8756
  174MOL   C19948985   7.807   5.793   5.703 -0.2187 -0.0706  0.5602
  174MOL   C20048986   7.770   5.913   5.643 -0.7719 -0.1654  0.0863
  174MOL   C20148987   7.715   6.014   5.717 -0.5497 -0.2945 -0.1397
  174MOL   C20248988   7.656   6.134   5.657 -0.0754 -0.4264 -0.1222
  174MOL   C20348989   7.638   6.161   5.526  0.0780  0.6054  0.0485
  174MOL   C20448990   7.711   6.006   5.852 -0.0008  0.5186  0.1866
  174MOL   C20548991   7.751   5.888   5.912  0.5713 -0.4515 -0.2261
  174MOL   H20648992   7.829   5.706   5.643  1.3122  0.2262  0.6912
  174MOL   H20748993   7.770   5.911   5.535  3.1377 -0.7634  0.0504
  174MOL   H20848994   7.621   6.211   5.724  1.3215 -0.9168  1.1890
  174MOL   H20948995   7.686   6.086   5.463  0.0252 -1.1540  2.0527
  174MOL   H21048996   7.664   6.079   5.915 -1.0744 -1.0847  1.2820
  174MOL   H21148997   7.725   5.870   6.016 -1.7611 -1.9187 -1.0355
  174MOL   C21248998   7.562   6.268   5.462  0.0235  1.2459  0.3206
  174MOL   C21348999   7.486   6.363   5.537  0.5464 -0.2667  0.3098
  174MOL   C21449000   7.388   6.446   5.473 -0.7692 -0.9023 -0.4390
  174MOL   C21549001   7.377   6.443   5.330  0.1200 -0.2515  0.0174
  174MOL   C21649002   7.287   6.535   5.261  0.4596 -0.4957  0.6706
  174MOL   C21749003   7.169   6.574   5.314 -1.0513 -0.0052  0.3294
  174MOL   C21849004   7.457   6.349   5.257  0.1104 -0.4851  0.3225
  174MOL   C21949005   7.542   6.263   5.323  0.3772  0.1448 -0.4242
  174MOL   H22049006   7.504   6.369   5.644 -1.1100  1.2748  0.5447
  174MOL   H22149007   7.327   6.515   5.529 -0.2962  0.4213 -1.5285
  174MOL   H22249008   7.318   6.571   5.164  1.9554 -0.7540  1.0326
  174MOL   H22349009   7.143   6.543   5.414 -2.0314  0.6207  0.2727
  174MOL   H22449010   7.445   6.343   5.150 -1.1647 -0.3831  0.4578
  174MOL   H22549011   7.606   6.195   5.268  1.2342 -0.4916  1.3324
  174MOL   C22649012   7.068   6.662   5.261 -0.1847 -0.0192  0.7288
  174MOL   C22749013   6.954   6.688   5.344 -0.2992  0.2519  0.1121
  174MOL   C22849014   6.855   6.777   5.297 -0.0839  0.3271  0.5221
  174MOL   C22949015   6.857   6.831   5.162  0.2028 -0.4844  1.5699
  174MOL   C23049016   6.754   6.929   5.118 -0.1247 -0.0312  0.3113
  174MOL   C23149017   6.658   6.973   5.193  0.5783  0.0732  0.0542
  174MOL   C23249018   6.968   6.801   5.084 -0.0253  0.5760 -0.2250
  174MOL   C23349019   7.071   6.715   5.130 -0.3565  0.1570  1.1622
  174MOL   H23449020   6.949   6.645   5.443  2.1017  2.0050  1.0327
  174MOL   H23549021   6.771   6.793   5.362 -0.9756  0.4585 -0.6528
  174MOL   H23649022   6.753   6.966   5.016 -0.5106 -1.2434 -0.1327
  174MOL   H23749023   6.647   6.927   5.290  0.9391 -0.3351 -0.0961
  174MOL   H23849024   6.975   6.834   4.982  2.5235 -0.6193 -0.4705
  174MOL   H23949025   7.155   6.696   5.066 -2.0418 -0.3814 -0.9611
  174MOL   C24049026   6.552   7.066   5.156  0.2841  0.2023  0.3877
  174MOL   C24149027   6.525   7.110   5.027  0.0454 -0.4056  0.9476
  174MOL   C24249028   6.424   7.209   4.998 -0.1457 -0.0311  0.0712
  174MOL   C24349029   6.349   7.263   5.109  0.4511  0.0136 -0.4229
  174MOL   C24449030   6.243   7.364   5.103  0.5780  0.0285  0.1977
  174MOL   C24549031   6.155   7.381   5.003  0.0190 -0.0055  0.3937
  174MOL   C24649032   6.375   7.209   5.237  0.1895 -0.1172  0.0336
  174MOL   C24749033   6.471   7.111   5.263  0.3005 -0.0052  0.2747
  174MOL   H24849034   6.577   7.071   4.942 -1.4562  0.3277 -0.3373
  174MOL   H24949035   6.408   7.238   4.895  0.8711 -1.8168 -0.6066
  174MOL   H25049036   6.240   7.432   5.187 -0.5792  1.6777 -1.1333
  174MOL   H25149037   6.168   7.307   4.925 -0.0856  0.3786  0.0077
  174MOL   H25249038   6.316   7.247   5.319 -1.5356  1.5638 -1.9214
  174MOL   H25349039   6.485   7.078   5.364  0.7491  0.8538  0.5004
  174MOL   C25449040   6.040   7.468   4.991 -0.3832  0.0447  0.1128
  174MOL   C25549041   5.987   7.495   4.864 -0.0295  0.0668  0.2608
  174MOL   C25649042   5.876   7.576   4.841  0.4196 -0.0982 -0.4821
  174MOL   C25749043   5.803   7.634   4.949  0.0163 -0.5070 -0.0896
  174MOL   C25849044   5.685   7.716   4.933  0.1795 -0.1701 -0.1255
  174MOL   C25949045   5.578   7.679   4.851  0.0104  0.4612 -0.1596
  174MOL   C26049046   5.855   7.599   5.083 -0.4846  0.6843  0.4212
  174MOL   C26149047   5.968   7.519   5.102  0.1897  0.3372  0.0910
  174MOL   H26249048   6.034   7.448   4.779 -0.5766  1.4122 -0.7981
  174MOL   H26349049   5.852   7.600   4.739 -0.7741  2.6127  0.3816
  174MOL   H26449050   5.684   7.812   4.983 -1.7420  1.1339 -2.5747
  174MOL   H26549051   5.506   7.758   4.832 -0.2012  1.0657  2.9193
  174MOL   H26649052   5.790   7.611   5.169  1.0311 -2.2536  2.0288
  174MOL   H26749053   6.002   7.490   5.201 -0.6973  1.0573  0.6093
  174MOL   C26849054   5.545   7.543   4.798 -0.1109  0.3145 -0.4862
  174MOL   C26949055   5.464   7.534   4.683  0.6011 -0.4741  0.2449
  174MOL   C27049056   5.435   7.409   4.626  0.1858 -0.3308  0.0045
  174MOL   C27149057   5.463   7.285   4.696 -0.1290 -0.2246 -0.0408
  174MOL   C27249058   5.416   7.156   4.646 -0.2519  0.1519 -0.1574
  174MOL   C27349059   5.327   7.144   4.547 -0.7231 -0.2220  0.1106
  174MOL   C27449060   5.537   7.296   4.816  0.8724  0.7265 -0.1686
  174MOL   C27549061   5.583   7.421   4.860  0.2926 -0.7654  0.4977
  174MOL   H27649062   5.423   7.623   4.639  0.8489 -0.2231  0.5235
  174MOL   H27749063   5.384   7.404   4.531 -1.0040  0.9654  0.5599
  174MOL   H27849064   5.466   7.071   4.690 -1.0053 -1.4792 -2.3713
  174MOL   H27949065   5.281   7.231   4.501  0.0419  0.5752  0.8469
  174MOL   H28049066   5.541   7.207   4.877 -1.0193  0.1993 -0.7766
  174MOL   H28149067   5.642   7.419   4.950  2.4511 -1.1459 -0.8901
  174MOL   H28249068   5.296   7.048   4.508  1.4652 -0.7409 -0.4278
  175MOL     C149069   2.560   3.276   7.298  0.5200 -0.6670  0.2624
  175MOL     C249070   2.472   3.207   7.380  0.1800  0.1070 -0.3321
  175MOL     C349071   2.395   3.106   7.335 -0.3859  0.2184  0.1792
  175MOL     C449072   2.410   3.055   7.207 -0.8102  0.3749  0.2135
  175MOL     C549073   2.338   2.937   7.172 -0.2096  1.0047  0.5044
  175MOL     C649074   2.338   2.876   7.052 -0.0674  0.6865  0.4908
  175MOL     C749075   2.494   3.124   7.116 -0.0095  0.4912 -0.1446
  175MOL     C849076   2.566   3.231   7.164 -0.3378 -0.6552  0.1751
  175MOL     H949077   2.461   3.239   7.482 -2.1663 -1.3904 -0.0640
  175MOL    H1049078   2.340   3.054   7.412  1.3100  0.5116  1.6203
  175MOL    H1149079   2.279   2.903   7.256 -0.1043  2.1916  1.0622
  175MOL    H1249080   2.399   2.916   6.972 -1.1366  0.2502 -0.5554
  175MOL    H1349081   2.478   3.095   7.013  2.3386 -1.1210 -0.0950
  175MOL    H1449082   2.623   3.280   7.086  0.1074  1.3807  1.7536
  175MOL    H1549083   2.624   3.351   7.342 -0.1908 -0.0217  0.2036
  175MOL    C1649084   2.263   2.755   7.008 -0.1859 -0.8273 -0.8728
  175MOL    C1749085   2.230   2.749   6.873  0.7548  0.0959 -0.5626
  175MOL    C1849086   2.161   2.633   6.829 -0.4302 -0.1229 -0.5325
  175MOL    C1949087   2.108   2.529   6.912 -0.3166  0.3189  0.0543
  175MOL    C2049088   2.050   2.405   6.855 -0.2520 -0.2760 -0.1245
  175MOL    C2149089   1.989   2.310   6.928  0.1123 -0.7421 -0.4527
  175MOL    C2249090   2.132   2.552   7.047  0.2654 -0.3995  0.2403
  175MOL    C2349091   2.213   2.659   7.095  0.1557  0.5505  0.2690
  175MOL    H2449092   2.262   2.821   6.799  1.4848  0.0363 -0.3090
  175MOL    H2549093   2.136   2.637   6.724 -0.4153  0.4543 -0.5145
  175MOL    H2649094   2.052   2.407   6.747  0.8793  1.0179 -0.0954
  175MOL    H2749095   1.989   2.333   7.033 -2.0210 -3.0288  0.0740
  175MOL    H2849096   2.101   2.482   7.124 -2.0125 -1.2869 -1.4072
  175MOL    H2949097   2.231   2.652   7.201 -1.1306 -2.4363  0.3526
  175MOL    C3049098   1.922   2.189   6.884 -0.3254 -0.0248  0.4673
  175MOL    C3149099   1.912   2.167   6.747  0.0459 -1.0138  0.5326
  175MOL    C3249100   1.843   2.051   6.700 -0.5186  0.1549 -0.4942
  175MOL    C3349101   1.779   1.961   6.788  0.1185  0.0757 -0.0119
  175MOL    C3449102   1.713   1.848   6.727  0.1026  0.1773  0.2162
  175MOL    C3549103   1.635   1.754   6.786 -0.1875 -0.2336  0.4389
  175MOL    C3649104   1.800   1.975   6.932 -0.3833  0.2397  0.3287
  175MOL    C3749105   1.870   2.096   6.973 -0.2525  0.1130  0.5897
  175MOL    H3849106   1.948   2.232   6.668  0.9035 -0.4293  1.3960
  175MOL    H3949107   1.823   2.045   6.594 -0.4196 -0.7189 -0.4644
  175MOL    H4049108   1.725   1.837   6.621 -0.3179 -2.1373  0.3661
  175MOL    H4149109   1.613   1.758   6.891 -1.0224 -1.5154  0.3258
  175MOL    H4249110   1.748   1.909   7.000 -2.3047  1.0903 -0.2782
  175MOL    H4349111   1.893   2.113   7.077  1.6683 -0.2145  0.2320
  175MOL    C4449112   1.577   1.638   6.716  0.0689 -0.1436  0.2109
  175MOL    C4549113   1.466   1.565   6.765 -0.4146 -0.3984 -0.0907
  175MOL    C4649114   1.401   1.469   6.684  0.6555  0.7991  0.1138
  175MOL    C4749115   1.463   1.428   6.562 -0.2985 -0.5227 -0.0492
  175MOL    C4849116   1.408   1.318   6.485 -0.1673  0.3821  0.5904
  175MOL    C4949117   1.447   1.280   6.362  0.2609 -0.9290  0.3231
  175MOL    C5049118   1.590   1.485   6.520  0.3011 -0.1453  0.1059
  175MOL    C5149119   1.640   1.596   6.597 -0.4866 -1.2024 -0.5855
  175MOL    H5249120   1.419   1.588   6.860  1.2782  0.8870  0.4704
  175MOL    H5349121   1.316   1.415   6.722  0.1924  0.7040 -1.0447
  175MOL    H5449122   1.326   1.264   6.531 -0.7355  1.8486  1.3287
  175MOL    H5549123   1.520   1.345   6.317 -1.2333 -0.1450 -1.0341
  175MOL    H5649124   1.654   1.455   6.438  1.4853  0.9518  0.6234
  175MOL    H5749125   1.738   1.635   6.573 -0.7807 -0.1434 -0.1101
  175MOL    C5849126   1.403   1.170   6.274 -0.2378  0.4160  0.4422
  175MOL    C5949127   1.306   1.081   6.318 -0.1375 -0.8797  0.3440
  175MOL    C6049128   1.269   0.970   6.241 -0.0865 -0.4117 -0.1693
  175MOL    C6149129   1.334   0.935   6.122 -0.6580 -0.2591 -0.2987
  175MOL    C6249130   1.290   0.825   6.042 -0.3465  0.1329 -0.3565
  175MOL    C6349131   1.204   0.728   6.082  0.0374  0.1137  0.1933
  175MOL    C6449132   1.439   1.025   6.077 -0.5898  0.4141  0.7634
  175MOL    C6549133   1.468   1.141   6.154  0.3797 -0.1116  0.3014
  175MOL    H6649134   1.266   1.093   6.417 -0.9120 -0.1916 -0.0462
  175MOL    H6749135   1.188   0.915   6.286  0.4983  0.0913  1.5709
  175MOL    H6849136   1.331   0.832   5.942  0.6111  0.3018  0.0504
  175MOL    H6949137   1.169   0.727   6.184  2.0281 -2.0577  0.8960
  175MOL    H7049138   1.488   1.007   5.982  0.3800 -0.3019  1.3821
  175MOL    H7149139   1.552   1.200   6.121  0.2213 -0.8309 -1.5049
  175MOL    C7249140   1.142   0.629   5.991 -0.8818  0.0519 -1.0059
  175MOL    C7349141   1.117   0.657   5.856  0.5479 -0.7094 -0.2930
  175MOL    C7449142   1.053   0.567   5.772  0.5437 -0.0366  0.7609
  175MOL    C7549143   1.013   0.439   5.825  0.0909 -0.0451 -0.6423
  175MOL    C7649144   0.926   0.344   5.752 -0.0819 -0.0288 -0.2887
  175MOL    C7749145   0.851   0.378   5.648 -0.9857  0.5838  0.4955
  175MOL    C7849146   1.045   0.412   5.963 -0.0390 -0.0706 -0.0676
  175MOL    C7949147   1.104   0.500   6.047 -0.1121  0.1629  0.4483
  175MOL    H8049148   1.130   0.760   5.826 -1.1999 -0.6705 -0.9825
  175MOL    H8149149   1.017   0.602   5.676  1.3241  3.0120  1.5411
  175MOL    H8249150   0.919   0.240   5.782 -0.1313  0.1278  0.2465
  175MOL    H8349151   0.846   0.483   5.620 -0.0731  1.0909  2.1518
  175MOL    H8449152   1.013   0.313   5.993 -1.0913 -0.3703 -2.1112
  175MOL    H8549153   1.136   0.459   6.142  1.7927 -0.8008 -0.5791
  175MOL    C8649154   0.772   0.296   5.559  0.4247  0.2403  0.0717
  175MOL    C8749155   0.747   0.162   5.582  1.0152 -0.4715 -0.5644
  175MOL    C8849156   0.678   0.081   5.492 -0.4197 -0.0406  0.0891
  175MOL    C8949157   0.627   0.135   5.375  0.0724 -0.8633  0.1859
  175MOL    C9049158   0.561   0.052   5.273  0.9398  0.2408 -0.6921
  175MOL    C9149159   0.531   8.067   5.288  0.4852  0.2243 -0.2261
  175MOL    C9249160   0.652   0.272   5.349  1.5987 -1.0111 -0.1099
  175MOL    C9349161   0.721   0.351   5.442 -0.2532  0.2297 -0.0479
  175MOL    H9449162   0.796   0.109   5.663  0.1065 -2.9491 -1.5804
  175MOL    H9549163   0.670   8.120   5.513  1.3345 -0.4743 -1.2396
  175MOL    H9649164   0.521   0.104   5.187  0.6447  1.8839  0.4192
  175MOL    H9749165   0.558   8.011   5.377  0.3003  2.1141  1.0413
  175MOL    H9849166   0.609   0.311   5.258  2.4343  0.9754  0.3357
  175MOL    H9949167   0.727   0.456   5.418  2.0959  0.1516  0.1413
  175MOL   C10049168   0.450   7.991   5.193  0.0519 -0.2504 -0.6369
  175MOL   C10149169   0.373   7.874   5.237 -0.1205 -0.0015  0.2613
  175MOL   C10249170   0.281   7.803   5.157 -0.6393 -0.0880 -0.5883
  175MOL   C10349171   0.267   7.848   5.020  0.7006  0.1801  0.0332
  175MOL   C10449172   0.174   7.789   4.927 -0.0458 -0.1250 -0.1107
  175MOL   C10549173   0.188   7.779   4.792 -0.3591 -0.0655 -0.5710
  175MOL   C10649174   0.346   7.959   4.974  0.3190  0.0981 -0.3087
  175MOL   C10749175   0.438   8.026   5.059  0.5423 -0.2979 -0.0087
  175MOL   H10849176   0.392   7.848   5.340  0.9244 -1.8552 -0.3691
  175MOL   H10949177   0.215   7.729   5.200  0.4786 -0.5285  0.3754
  175MOL   H11049178   0.084   7.747   4.970  0.7626 -2.9100 -1.0375
  175MOL   H11149179   0.283   7.809   4.750  1.4786 -1.9547  2.0270
  175MOL   H11249180   0.348   8.015   4.882  0.3440  0.7334  0.0687
  175MOL   H11349181   0.497   8.107   5.017 -0.2954  0.1039 -0.4295
  175MOL   C11449182   0.085   7.721   4.702 -0.3325  0.1764 -0.1193
  175MOL   C11549183   8.119   7.649   4.761 -0.0233 -0.1425 -0.1543
  175MOL   C11649184   8.027   7.585   4.680  0.7320 -0.3750  0.3267
  175MOL   C11749185   8.014   7.620   4.545  0.1467  0.0123  0.0644
  175MOL   C11849186   7.891   7.586   4.468 -0.6416  0.9041 -0.5066
  175MOL   C11949187   7.865   7.629   4.340  0.2111  0.0594 -0.0771
  175MOL   C12049188   8.125   7.688   4.485  0.0226 -0.8120 -0.6295
  175MOL   C12149189   0.086   7.744   4.563  0.0092 -0.1863  0.5455
  175MOL   H12249190   8.107   7.633   4.867  1.0602 -0.4170 -0.0702
  175MOL   H12349191   7.947   7.531   4.728  0.6753  0.6673  1.4306
  175MOL   H12449192   7.819   7.518   4.511 -0.5781  0.5167 -1.0086
  175MOL   H12549193   7.937   7.691   4.289  0.4671 -1.4406 -1.5704
  175MOL   H12649194   8.132   7.719   4.382 -0.8519  0.9492 -0.1814
  175MOL   H12749195   0.163   7.807   4.522 -3.2981  4.5118  1.2328
  175MOL   C12849196   7.755   7.586   4.266 -0.2228  0.0365 -0.2344
  175MOL   C12949197   7.636   7.542   4.327  0.2381 -0.3923  0.4619
  175MOL   C13049198   7.534   7.487   4.247 -0.1295 -0.0935  0.2042
  175MOL   C13149199   7.548   7.478   4.106 -0.5303 -0.2025 -0.2379
  175MOL   C13249200   7.436   7.427   4.021  0.3483  0.6304  0.0232
  175MOL   C13349201   7.302   7.442   4.043 -0.4938  0.8924  0.6027
  175MOL   C13449202   7.664   7.530   4.043 -0.4873  0.3881 -0.5065
  175MOL   C13549203   7.765   7.581   4.125  0.1083  0.0975  0.7979
  175MOL   H13649204   7.629   7.535   4.435  1.8010  0.0360  0.6082
  175MOL   H13749205   7.446   7.457   4.303 -0.2136  1.1536  0.7660
  175MOL   H13849206   7.459   7.377   3.928 -1.3540  0.6894 -0.4328
  175MOL   H13949207   7.269   7.494   4.131  0.0390  1.3057  0.5664
  175MOL   H14049208   7.669   7.520   3.936 -0.2045 -1.3242 -0.3403
  175MOL   H14149209   7.857   7.617   4.079 -1.2845  0.8599 -1.5003
  175MOL   C14249210   7.203   7.394   3.948 -0.1984 -0.8723  0.0738
  175MOL   C14349211   7.078   7.443   3.961  0.0443 -0.0475 -0.1780
  175MOL   C14449212   6.970   7.397   3.883 -0.5662  0.3088  0.3410
  175MOL   C14549213   6.993   7.301   3.785  1.0040  0.0463 -0.6682
  175MOL   C14649214   6.882   7.264   3.696 -0.5093  0.4095 -0.4584
  175MOL   C14749215   6.777   7.349   3.663  0.0914  0.6230  0.0917
  175MOL   C14849216   7.121   7.246   3.768 -0.6715 -0.5693  0.3333
  175MOL   C14949217   7.224   7.293   3.854  0.1316  0.2298  0.5697
  175MOL   H15049218   7.051   7.517   4.035 -1.3244 -2.3846  1.7255
  175MOL   H15149219   6.875   7.444   3.901  0.1025  3.0675 -2.7087
  175MOL   H15249220   6.884   7.165   3.653  1.8767 -0.2343  1.0620
  175MOL   H15349221   6.777   7.446   3.709  0.1280  0.6904 -0.0503
  175MOL   H15449222   7.132   7.167   3.696 -0.8579 -3.7110  3.6118
  175MOL   H15549223   7.320   7.244   3.856 -0.7572 -1.6114 -0.5217
  175MOL   C15649224   6.658   7.323   3.578  0.0813 -0.5337 -0.2450
  175MOL   C15749225   6.550   7.413   3.607 -0.6339  0.3219  0.3513
  175MOL   C15849226   6.425   7.397   3.536 -0.0413 -0.5822  0.1612
  175MOL   C15949227   6.409   7.283   3.453  0.5325 -0.0300 -0.2685
  175MOL   C16049228   6.273   7.264   3.397  0.2195  0.1779  0.4287
  175MOL   C16149229   6.215   7.150   3.354  0.1719 -0.7667 -0.0157
  175MOL   C16249230   6.512   7.187   3.438  0.5875 -0.0904 -0.3862
  175MOL   C16349231   6.636   7.211   3.502 -0.1457  0.5743 -0.1125
  175MOL   H16449232   6.563   7.488   3.683 -2.3775  0.1963  0.7879
  175MOL   H16549233   6.340   7.462   3.551 -0.3471 -0.6242 -1.2737
  175MOL   H16649234   6.217   7.356   3.402  2.2143  1.4287  0.2677
  175MOL   H16749235   6.266   7.055   3.350 -1.2056 -1.5209  0.2281
  175MOL   H16849236   6.502   7.103   3.370  2.8787 -0.9785  0.3210
  175MOL   H16949237   6.715   7.140   3.483 -0.7165  0.3564 -1.7868
  175MOL   C17049238   6.069   7.136   3.307 -0.0848  0.5816  0.1246
  175MOL   C17149239   5.992   7.257   3.290 -0.1334  0.5940 -0.4762
  175MOL   C17249240   5.858   7.256   3.260  0.2701 -0.3382  0.5009
  175MOL   C17349241   5.790   7.131   3.248 -0.5028  0.1329 -0.1555
  175MOL   C17449242   5.648   7.142   3.214  0.4008 -0.1185  0.2025
  175MOL   C17549243   5.553   7.047   3.214  0.1720  0.5766  0.7126
  175MOL   C17649244   5.864   7.015   3.270  0.2205  0.6049 -0.6626
  175MOL   C17749245   6.003   7.013   3.298  0.3483  0.9633 -0.1542
  175MOL   H17849246   6.036   7.354   3.310  1.9843 -0.7389  1.6574
  175MOL   H17949247   5.803   7.348   3.247  0.5686  0.0868  2.0685
  175MOL   H18049248   5.628   7.243   3.183 -3.0324 -0.6591  0.5060
  175MOL   H18149249   5.578   6.945   3.239 -0.4044  0.4261  0.6923
  175MOL   H18249250   5.809   6.922   3.259 -0.1142  0.5483  1.2614
  175MOL   H18349251   6.064   6.924   3.309 -0.5909  0.2669 -0.4736
  175MOL   C18449252   5.416   7.064   3.185  0.2882  0.0036  0.3255
  175MOL   C18549253   5.312   6.975   3.226 -0.8206 -0.2652 -1.1206
  175MOL   C18649254   5.178   7.000   3.193 -0.3206  0.1515 -0.0807
  175MOL   C18749255   5.142   7.112   3.109 -0.3605 -0.8796  0.5232
  175MOL   C18849256   5.001   7.139   3.082  0.3651  0.4373 -0.9147
  175MOL   C18949257   4.944   7.243   3.018  0.1268 -0.6559 -0.2188
  175MOL   C19049258   5.246   7.197   3.064  0.1835 -0.3481 -0.6380
  175MOL   C19149259   5.378   7.177   3.106  0.8995 -0.1176 -0.5882
  175MOL   H19249260   5.336   6.886   3.282  0.4691  1.4081  1.0505
  175MOL   H19349261   5.098   6.938   3.232  0.9710  0.3145  2.9605
  175MOL   H19449262   4.932   7.064   3.116  0.8679  0.4338  0.0960
  175MOL   H19549263   5.006   7.321   2.976  2.1786 -2.4527 -0.5753
  175MOL   H19649264   5.220   7.284   3.005 -0.2215  0.4572  0.7016
  175MOL   H19749265   5.456   7.244   3.073  2.0203 -1.6611 -1.0985
  175MOL   C19849266   4.804   7.272   2.996  0.0717 -0.4562 -0.4689
  175MOL   C19949267   4.708   7.231   3.095 -0.1449  0.3898 -0.0096
  175MOL   C20049268   4.579   7.277   3.083  0.1399  0.7888 -0.1113
  175MOL   C20149269   4.528   7.351   2.976  0.2676  0.2108  0.6755
  175MOL   C20249270   4.386   7.393   2.968  0.8988 -0.4741 -0.3929
  175MOL   C20349271   4.339   7.514   2.924  0.2394 -0.1623  0.1401
  175MOL   C20449272   4.627   7.401   2.880  0.1371  0.1075  0.1419
  175MOL   C20549273   4.762   7.358   2.891  0.6091  0.2790  0.2144
  175MOL   H20649274   4.747   7.170   3.176 -1.1839  0.1634  0.3197
  175MOL   H20749275   4.507   7.251   3.160  0.4727  1.6080  0.4786
  175MOL   H20849276   4.319   7.318   3.007  0.8420  0.7997  2.0529
  175MOL   H20949277   4.413   7.587   2.895  0.6406 -0.4216  0.4952
  175MOL   H21049278   4.596   7.463   2.798  3.3234  3.3312  1.2304
  175MOL   H21149279   4.832   7.390   2.815  0.7664 -0.2155  0.1496
  175MOL   C21249280   4.199   7.559   2.913 -0.3746 -0.2256 -0.1335
  175MOL   C21349281   4.168   7.694   2.890 -0.2198  0.0630  0.0591
  175MOL   C21449282   4.036   7.734   2.886 -0.0325 -0.2940 -0.3678
  175MOL   C21549283   3.928   7.643   2.899 -0.2891 -0.0851  0.0557
  175MOL   C21649284   3.785   7.682   2.894  0.4406 -1.0855 -0.0808
  175MOL   C21749285   3.742   7.805   2.867  0.3319 -0.0689 -0.0657
  175MOL   C21849286   3.961   7.509   2.912  0.1687 -0.8040 -0.5730
  175MOL   C21949287   4.096   7.469   2.922 -0.6305 -0.0440  0.2584
  175MOL   H22049288   4.243   7.771   2.896 -0.2837  0.1315 -0.0173
  175MOL   H22149289   4.009   7.839   2.882 -3.1361 -0.9886  1.1615
  175MOL   H22249290   3.716   7.600   2.913 -1.1526  0.2269 -0.1319
  175MOL   H22349291   3.809   7.888   2.854  1.7934 -1.3218 -0.7141
  175MOL   H22449292   3.893   7.425   2.913 -0.6836 -0.1143 -0.2976
  175MOL   H22549293   4.117   7.364   2.937 -0.0339  0.3657  2.4184
  175MOL   C22649294   3.599   7.848   2.853  0.2991  0.2996 -0.5630
  175MOL   C22749295   3.486   7.767   2.870 -0.1487  0.2924 -0.9596
  175MOL   C22849296   3.357   7.816   2.852 -0.4861  0.1762 -0.2293
  175MOL   C22949297   3.337   7.952   2.805 -0.3494  0.5705  0.7152
  175MOL   C23049298   3.200   8.002   2.776 -0.7227  0.4566 -0.5384
  175MOL   C23149299   3.164   8.082   2.674  0.2892  0.1215 -0.7819
  175MOL   C23249300   3.456   8.030   2.790 -0.1418 -0.4678  0.0475
  175MOL   C23349301   3.584   7.982   2.815 -0.2221 -0.0846 -0.0141
  175MOL   H23449302   3.495   7.662   2.894  2.9857  0.1950 -2.3420
  175MOL   H23549303   3.274   7.748   2.862  1.1997 -2.2209 -2.0589
  175MOL   H23649304   3.119   7.986   2.846  0.9975  1.3506  1.7287
  175MOL   H23749305   3.235   8.118   2.601  1.8028 -0.0189  0.6070
  175MOL   H23849306   3.437   8.126   2.743 -2.3366 -0.2927  1.2530
  175MOL   H23949307   3.664   8.048   2.785  0.0973 -0.6442 -0.3947
  175MOL   C24049308   3.035   8.141   2.642  1.0547 -0.9669  0.2669
  175MOL   C24149309   2.935   0.012   2.743  0.0284 -0.6554 -0.3631
  175MOL   C24249310   2.806   0.057   2.704  0.2513 -0.2623  0.4359
  175MOL   C24349311   2.778   0.080   2.567  0.6174 -0.0126 -0.4252
  175MOL   C24449312   2.637   0.122   2.541 -0.0844 -0.0964  0.3114
  175MOL   C24549313   2.587   0.144   2.417  0.4486  0.3368 -0.0576
  175MOL   C24649314   2.877   0.056   2.471  0.0295  0.4922 -0.2352
  175MOL   C24749315   3.008   0.016   2.509 -0.0216 -0.6576  0.4181
  175MOL   H24849316   2.959   8.134   2.846  0.3474 -2.0994 -0.7436
  175MOL   H24949317   2.735   0.073   2.784  0.0223  0.1804  0.1388
  175MOL   H25049318   2.574   0.144   2.626  0.9880  5.1983 -0.0489
  175MOL   H25149319   2.648   0.118   2.332  2.1811 -1.4293  1.6869
  175MOL   H25249320   2.859   0.082   2.367  2.3977 -0.7043 -0.9927
  175MOL   H25349321   3.085   8.136   2.437  2.9799  1.5465  2.7837
  175MOL   C25449322   2.451   0.206   2.391 -0.9547  0.0695 -0.0022
  175MOL   C25549323   2.435   0.269   2.267 -0.1770  0.6614 -0.3797
  175MOL   C25649324   2.320   0.344   2.247 -0.1610 -0.2306  0.5785
  175MOL   C25749325   2.213   0.349   2.343  0.1680 -0.3047 -0.0900
  175MOL   C25849326   2.085   0.419   2.300 -0.5936  0.5217  0.1500
  175MOL   C25949327   2.010   0.509   2.367  0.0252 -0.1825  0.4903
  175MOL   C26049328   2.228   0.296   2.469  0.4101  0.1762 -0.4463
  175MOL   C26149329   2.349   0.229   2.493 -0.1183  0.0893 -0.5363
  175MOL   H26249330   2.504   0.248   2.187  1.7912  2.3363  0.8332
  175MOL   H26349331   2.298   0.387   2.150  0.3450 -0.4512  0.3700
  175MOL   H26449332   2.041   0.383   2.208 -1.0097 -0.1891  0.6205
  175MOL   H26549333   1.922   0.543   2.315  1.4910  0.1269 -1.8214
  175MOL   H26649334   2.144   0.314   2.535  1.1863 -0.8639  0.8389
  175MOL   H26749335   2.359   0.200   2.597 -0.7981  0.9091 -0.2330
  175MOL   C26849336   2.028   0.582   2.498 -0.3290  0.5490  0.6657
  175MOL   C26949337   1.922   0.625   2.584 -0.1010  0.2654 -1.1134
  175MOL   C27049338   1.950   0.694   2.701  0.2412  0.2822 -0.3118
  175MOL   C27149339   2.085   0.720   2.745 -0.0073 -0.5475  0.0568
  175MOL   C27249340   2.122   0.780   2.874  1.4979  0.2340  0.4185
  175MOL   C27349341   2.034   0.810   2.970  0.3450 -0.5000  0.8493
  175MOL   C27449342   2.186   0.659   2.666  0.3251 -0.8539 -0.5183
  175MOL   C27549343   2.160   0.593   2.544 -0.1596 -0.1775 -0.1827
  175MOL   H27649344   1.819   0.597   2.565 -0.3363 -0.3741  0.9290
  175MOL   H27749345   1.871   0.731   2.764  0.3532 -1.5923  0.9487
  175MOL   H27849346   2.223   0.795   2.910  2.0058  3.2917 -2.0179
  175MOL   H27949347   1.928   0.794   2.959  0.6510 -1.6453 -0.6093
  175MOL   H28049348   2.287   0.667   2.703  0.0978 -0.6103  0.0543
  175MOL   H28149349   2.241   0.572   2.476  0.5176 -0.1298  0.6001
  175MOL   H28249350   2.068   0.846   3.066 -0.3738 -1.0684  1.3168
  176MOL     C149351   4.884   6.947   1.201 -0.6034 -0.1584 -0.6849
  176MOL     C249352   4.945   6.839   1.137  0.3041 -0.2181  0.2566
  176MOL     C349353   5.088   6.831   1.131 -0.7103  0.1000  0.1408
  176MOL     C449354   5.170   6.942   1.185 -0.0148 -0.3150  0.7367
  176MOL     C549355   5.319   6.937   1.192  0.3382  0.0105  0.4896
  176MOL     C649356   5.392   6.832   1.147  0.1078 -0.1288  0.6174
  176MOL     C749357   5.102   7.052   1.252 -0.2242  0.2385  0.1372
  176MOL     C849358   4.961   7.043   1.266 -0.4584 -0.3996  0.0105
  176MOL     H949359   4.873   6.767   1.101  0.1500  1.0354 -2.0373
  176MOL    H1049360   5.139   6.746   1.088 -0.9351  1.6876 -3.4074
  176MOL    H1149361   5.363   7.029   1.227 -2.0190  0.3099  2.8796
  176MOL    H1249362   5.356   6.734   1.120 -1.3240 -0.2127  2.6956
  176MOL    H1349363   5.152   7.135   1.298 -0.3130  1.2014 -1.4496
  176MOL    H1449364   4.898   7.116   1.315 -1.1690 -1.9301  1.4096
  176MOL    H1549365   4.777   6.959   1.210 -0.4773  0.6905 -0.2721
  176MOL    C1649366   5.537   6.834   1.149 -0.6758 -0.1592  0.3982
  176MOL    C1749367   5.620   6.921   1.218 -0.4466 -0.3813 -0.0503
  176MOL    C1849368   5.764   6.904   1.221 -0.0762 -0.1050 -0.2803
  176MOL    C1949369   5.822   6.791   1.158 -0.2615  0.5913 -0.7477
  176MOL    C2049370   5.962   6.755   1.184  1.3646 -0.5079  0.5225
  176MOL    C2149371   6.039   6.801   1.281  0.0204 -0.6953 -0.2581
  176MOL    C2249372   5.736   6.706   1.088  0.0940  0.7375 -0.5143
  176MOL    C2349373   5.601   6.726   1.081  0.2553  0.2054 -0.1946
  176MOL    H2449374   5.567   6.993   1.279 -0.0490 -0.8777  0.8905
  176MOL    H2549375   5.818   6.973   1.283  2.0670 -2.8050  0.9535
  176MOL    H2649376   6.000   6.679   1.117 -0.4143  0.8686 -2.1496
  176MOL    H2749377   5.995   6.869   1.352  1.1125  0.3257 -0.5460
  176MOL    H2849378   5.778   6.618   1.041  1.0468  0.6827  0.4342
  176MOL    H2949379   5.544   6.665   1.013  0.3235  0.4612 -0.4835
  176MOL    C3049380   6.178   6.763   1.311 -0.5679  0.3567 -0.6332
  176MOL    C3149381   6.261   6.830   1.402 -0.6434  1.0139 -0.1307
  176MOL    C3249382   6.389   6.780   1.437 -0.3394  1.2647 -0.5254
  176MOL    C3349383   6.443   6.662   1.368  0.8526 -0.3915 -0.9534
  176MOL    C3449384   6.579   6.616   1.391 -0.0447  0.4111 -0.6669
  176MOL    C3549385   6.659   6.663   1.490  0.1361 -0.5204 -0.1047
  176MOL    C3649386   6.359   6.592   1.282 -0.4380 -0.1952 -0.5120
  176MOL    C3749387   6.231   6.645   1.255  0.4151 -0.5524  0.0629
  176MOL    H3849388   6.221   6.916   1.455 -3.3487  0.7773 -1.7040
  176MOL    H3949389   6.454   6.832   1.506  0.7695 -0.0241 -0.5759
  176MOL    H4049390   6.613   6.539   1.323 -0.1136 -0.8961  0.7589
  176MOL    H4149391   6.634   6.745   1.556 -0.7937  0.2309 -1.3789
  176MOL    H4249392   6.382   6.493   1.246  0.9627 -0.4632  1.0234
  176MOL    H4349393   6.173   6.585   1.187  1.4165 -0.0174 -1.2879
  176MOL    C4449394   6.796   6.616   1.522 -0.4934  0.5068  0.3600
  176MOL    C4549395   6.872   6.683   1.620  0.3291  0.0977  0.3797
  176MOL    C4649396   7.003   6.637   1.645 -0.6293  0.1893  0.0867
  176MOL    C4749397   7.062   6.533   1.570 -0.3994  0.1590 -0.6243
  176MOL    C4849398   7.199   6.481   1.597  0.3088  0.8806 -0.1449
  176MOL    C4949399   7.297   6.528   1.684  0.4355 -0.0632 -0.0015
  176MOL    C5049400   6.989   6.470   1.463 -0.3315 -0.2052  0.9507
  176MOL    C5149401   6.855   6.515   1.440  0.0869  0.1119 -0.3220
  176MOL    H5249402   6.825   6.751   1.689 -1.3085 -1.4866  0.8591
  176MOL    H5349403   7.065   6.697   1.710  1.1056 -0.4555 -0.9285
  176MOL    H5449404   7.228   6.398   1.536  1.4999 -0.9089  2.7684
  176MOL    H5549405   7.283   6.618   1.742  0.6393 -0.0236 -0.0134
  176MOL    H5649406   7.035   6.395   1.400 -0.0972  0.6839  0.0536
  176MOL    H5749407   6.810   6.476   1.350 -0.2729  0.5710 -0.3380
  176MOL    C5849408   7.431   6.479   1.708 -0.0202 -0.2522  0.2242
  176MOL    C5949409   7.495   6.362   1.659  0.2655 -0.3891  0.5922
  176MOL    C6049410   7.627   6.327   1.705 -0.4139 -0.4782  0.1428
  176MOL    C6149411   7.696   6.410   1.801  0.0208  0.1925 -0.4099
  176MOL    C6249412   7.832   6.377   1.849  0.0844 -0.0402 -0.5857
  176MOL    C6349413   7.905   6.262   1.819 -0.2656 -0.3599  0.3045
  176MOL    C6449414   7.640   6.527   1.838  1.1227 -0.5732  0.6492
  176MOL    C6549415   7.509   6.559   1.802  0.2850 -0.0380 -0.2098
  176MOL    H6649416   7.432   6.300   1.597 -0.8172  0.4979  0.7888
  176MOL    H6749417   7.666   6.238   1.658  0.2887  0.6686 -1.5220
  176MOL    H6849418   7.880   6.448   1.914 -1.2069  0.4077 -0.1187
  176MOL    H6949419   7.871   6.187   1.750 -1.2579  0.0656  0.3307
  176MOL    H7049420   7.689   6.590   1.911 -0.6855  0.4733  0.9880
  176MOL    H7149421   7.470   6.648   1.848  0.2972 -1.4331  2.5687
  176MOL    C7249422   8.047   6.242   1.878 -0.0363  0.3472  0.0710
  176MOL    C7349423   8.107   6.324   1.976 -0.8140 -0.6648 -1.1355
  176MOL    C7449424   0.096   6.296   2.019  0.2976 -0.3440 -0.6723
  176MOL    C7549425   0.164   6.188   1.965 -0.7919  0.4504 -0.1675
  176MOL    C7649426   0.299   6.169   2.016  0.1672 -0.8578  0.2072
  176MOL    C7749427   0.368   6.063   1.978 -0.5392  0.0097 -0.6755
  176MOL    C7849428   0.105   6.107   1.860 -0.9009 -0.0844  0.3668
  176MOL    C7949429   8.118   6.136   1.823 -0.1567  0.3443 -0.9614
  176MOL    H8049430   8.057   6.411   2.016  2.2093  1.0292 -0.9373
  176MOL    H8149431   0.143   6.365   2.088  1.8535 -0.9945 -1.0735
  176MOL    H8249432   0.339   6.239   2.087  1.2674 -0.0997 -1.1332
  176MOL    H8349433   0.328   5.992   1.907  0.4967 -1.2442 -0.0199
  176MOL    H8449434   0.168   6.038   1.806 -1.1614  2.7236 -3.7172
  176MOL    H8549435   8.071   6.077   1.747  0.6086  1.8383 -2.6242
  176MOL    C8649436   0.508   6.024   2.020 -0.4589  0.3898 -0.8404
  176MOL    C8749437   0.591   6.103   2.095  0.5669 -0.5544 -0.4342
  176MOL    C8849438   0.715   6.057   2.142 -0.0339  0.4041  1.0627
  176MOL    C8949439   0.764   5.930   2.092 -0.0693 -0.4167 -0.4514
  176MOL    C9049440   0.894   5.867   2.119  0.1386 -1.0887 -0.7474
  176MOL    C9149441   0.997   5.913   2.195  0.5455 -0.9218 -1.0826
  176MOL    C9249442   0.684   5.858   1.998 -0.0709 -0.0456  0.2624
  176MOL    C9349443   0.558   5.901   1.968  0.7554  0.2398  0.0526
  176MOL    H9449444   0.561   6.200   2.131  0.3968 -0.2480 -1.3770
  176MOL    H9549445   0.770   6.121   2.209 -1.4850  1.5519  1.1789
  176MOL    H9649446   0.902   5.772   2.070 -0.1661 -0.6575 -1.6532
  176MOL    H9749447   0.971   6.002   2.251  0.9596 -0.3326 -1.8125
  176MOL    H9849448   0.732   5.774   1.950  0.7439 -1.7336  3.8751
  176MOL    H9949449   0.492   5.854   1.897  0.8355  0.5598 -0.2361
  176MOL   C10049450   1.127   5.849   2.220 -0.0357  0.2349 -0.9535
  176MOL   C10149451   1.220   5.898   2.317  0.6606 -0.7829 -0.2786
  176MOL   C10249452   1.335   5.820   2.350 -0.0020 -0.5700  0.0440
  176MOL   C10349453   1.350   5.688   2.295 -1.0578 -0.2846 -0.5594
  176MOL   C10449454   1.462   5.603   2.325  0.4221  0.3083  0.0112
  176MOL   C10549455   1.552   5.621   2.421 -0.4633 -0.1402 -0.4379
  176MOL   C10649456   1.260   5.641   2.199  0.3928 -0.2512  0.0872
  176MOL   C10749457   1.144   5.721   2.164  0.0181 -0.2851 -0.2081
  176MOL   H10849458   1.215   5.993   2.367  1.7144 -0.0490 -1.5245
  176MOL   H10949459   1.403   5.860   2.423 -0.6305 -0.0326  0.3360
  176MOL   H11049460   1.471   5.514   2.264 -0.8060 -0.9057  1.5218
  176MOL   H11149461   1.545   5.712   2.479  0.8319 -0.9325  1.0015
  176MOL   H11249462   1.273   5.545   2.151  0.5150 -0.0138 -0.3559
  176MOL   H11349463   1.070   5.683   2.096 -0.5680 -3.3493  2.0335
  176MOL   C11449464   1.668   5.523   2.452 -0.5039 -0.7554  0.5424
  176MOL   C11549465   1.787   5.572   2.502 -0.8317 -0.3368  0.2239
  176MOL   C11649466   1.900   5.489   2.502  0.1526  0.4360 -0.1564
  176MOL   C11749467   1.896   5.358   2.452  0.0502 -0.3330  0.8895
  176MOL   C11849468   2.016   5.278   2.441  0.0622  0.3711  0.2493
  176MOL   C11949469   2.125   5.288   2.522 -0.6045  0.5929 -0.0271
  176MOL   C12049470   1.774   5.313   2.398  0.4816 -0.6184 -0.4026
  176MOL   C12149471   1.665   5.396   2.398 -0.0310  0.2520 -0.4646
  176MOL   H12249472   1.785   5.666   2.555  2.0448 -0.1913  0.1832
  176MOL   H12349473   1.993   5.534   2.532 -0.1013  1.0956 -0.3413
  176MOL   H12449474   2.015   5.209   2.358  2.0926  0.8364 -0.1901
  176MOL   H12549475   2.137   5.362   2.599  1.4398  0.3765 -0.1074
  176MOL   H12649476   1.761   5.216   2.352  0.6739 -0.6018 -0.4921
  176MOL   H12749477   1.574   5.367   2.348 -0.7152  1.4932  0.0621
  176MOL   C12849478   2.238   5.198   2.504 -0.7723  0.4989 -0.6477
  176MOL   C12949479   2.368   5.238   2.523 -0.4905  0.3400 -0.4296
  176MOL   C13049480   2.474   5.151   2.494 -0.0747  0.1336  0.4451
  176MOL   C13149481   2.463   5.021   2.437  0.0799  0.0276  0.0407
  176MOL   C13249482   2.579   4.945   2.403 -1.2793  0.5355 -0.4453
  176MOL   C13349483   2.595   4.808   2.428 -0.1475  0.1355  0.2652
  176MOL   C13449484   2.328   4.977   2.425  0.9327  0.3982  0.1402
  176MOL   C13549485   2.217   5.064   2.457 -0.5035  0.5173 -0.7920
  176MOL   H13649486   2.375   5.336   2.570  0.0452 -0.9044  2.1625
  176MOL   H13749487   2.572   5.176   2.532  0.0841  0.9352 -0.5061
  176MOL   H13849488   2.666   4.999   2.368 -2.2409  2.2425 -0.2362
  176MOL   H13949489   2.516   4.757   2.481 -0.0215  0.3952  0.7024
  176MOL   H14049490   2.310   4.881   2.380 -0.5201  0.8265 -0.1961
  176MOL   H14149491   2.117   5.030   2.434  0.8210 -4.0560 -0.2935
  176MOL   C14249492   2.708   4.728   2.388 -0.1734  0.3857 -0.9812
  176MOL   C14349493   2.783   4.764   2.277  0.0692  0.2754 -0.6647
  176MOL   C14449494   2.863   4.670   2.209  0.0891 -0.2897  0.2763
  176MOL   C14549495   2.880   4.540   2.257 -0.1409  0.3991  0.0630
  176MOL   C14649496   2.959   4.450   2.180 -0.7806 -0.5539 -0.7132
  176MOL   C14749497   2.988   4.321   2.216  0.0948  0.1320 -0.2464
  176MOL   C14849498   2.810   4.508   2.379 -0.5490  0.2640 -0.0129
  176MOL   C14949499   2.732   4.600   2.447 -0.0848 -0.2945 -0.3061
  176MOL   H15049500   2.767   4.857   2.224 -0.9786  1.5828  1.8739
  176MOL   H15149501   2.917   4.705   2.122  1.2755 -0.8768  0.7731
  176MOL   H15249502   2.994   4.491   2.086 -3.1459  1.5006 -0.7421
  176MOL   H15349503   2.956   4.287   2.313  0.2006 -0.8412 -0.5456
  176MOL   H15449504   2.822   4.411   2.424  2.2328  0.2451 -0.6966
  176MOL   H15549505   2.679   4.577   2.539  0.1932  0.6825  0.1051
  176MOL   C15649506   3.067   4.240   2.129  0.2930  0.7188 -0.3562
  176MOL   C15749507   3.069   4.108   2.153  0.2942  0.6860  0.5123
  176MOL   C15849508   3.133   4.017   2.071 -0.9345  0.3668  0.6683
  176MOL   C15949509   3.186   4.049   1.950  0.0896  0.0045  0.0524
  176MOL   C16049510   3.232   3.954   1.856 -0.1335  0.1263  0.1522
  176MOL   C16149511   3.326   3.970   1.756  0.2824  0.4943  0.4154
  176MOL   C16249512   3.194   4.187   1.933  0.2821  0.1852 -0.0439
  176MOL   C16349513   3.147   4.279   2.021  0.0823 -0.7331  0.5712
  176MOL   H16449514   3.024   4.059   2.238 -1.0156 -1.3214 -1.2711
  176MOL   H16549515   3.131   3.917   2.111  0.0944  1.1069  2.6265
  176MOL   H16649516   3.183   3.859   1.869  0.2795  0.2421  2.8562
  176MOL   H16749517   3.367   4.067   1.730  0.9653  0.2742  0.6575
  176MOL   H16849518   3.253   4.227   1.852  1.2996  0.8254  1.0077
  176MOL   H16949519   3.174   4.382   2.006 -0.2594 -0.7546 -0.2293
  176MOL   C17049520   3.366   3.867   1.664 -0.2762  0.1564  0.0102
  176MOL   C17149521   3.274   3.770   1.633  0.2510 -0.8335  0.2457
  176MOL   C17249522   3.300   3.665   1.553 -0.3707 -1.0050  0.4065
  176MOL   C17349523   3.432   3.656   1.502  0.2341 -0.0996  0.3908
  176MOL   C17449524   3.465   3.539   1.419  0.2539 -0.8297 -0.0784
  176MOL   C17549525   3.582   3.497   1.367  0.3343 -0.2997 -0.0235
  176MOL   C17649526   3.530   3.753   1.534 -0.1575 -0.3958 -0.2569
  176MOL   C17749527   3.498   3.853   1.624  1.1282 -0.0458 -0.2059
  176MOL   H17849528   3.172   3.772   1.669  0.2028  0.2593  0.0569
  176MOL   H17949529   3.220   3.595   1.532  0.9741 -3.0581  1.9572
  176MOL   H18049530   3.377   3.486   1.385 -1.2861  1.1494  0.6992
  176MOL   H18149531   3.675   3.548   1.390  1.7143 -1.8935 -1.8244
  176MOL   H18249532   3.627   3.764   1.487 -0.1276 -0.4465 -0.2054
  176MOL   H18349533   3.571   3.930   1.647  0.3484  0.8541 -0.7322
  176MOL   C18449534   3.587   3.385   1.273  0.2147  0.1925 -0.4263
  176MOL   C18549535   3.493   3.386   1.167 -1.0155 -0.7762 -0.2591
  176MOL   C18649536   3.493   3.275   1.082  0.4964 -0.6690  0.0979
  176MOL   C18749537   3.573   3.161   1.105  0.1835 -0.4044 -0.7702
  176MOL   C18849538   3.554   3.044   1.020  0.5331  0.5682 -0.2986
  176MOL   C18949539   3.500   3.038   0.894 -0.4826  0.2273 -0.1938
  176MOL   C19049540   3.662   3.162   1.213 -0.0675  0.0421  0.4582
  176MOL   C19149541   3.678   3.277   1.291  0.6195 -0.5759 -0.4548
  176MOL   H19249542   3.437   3.476   1.144  0.9974  1.2817  2.5901
  176MOL   H19349543   3.427   3.279   0.996  1.7109 -0.9935 -0.8613
  176MOL   H19449544   3.585   2.948   1.058  0.3405  0.3210 -0.7612
  176MOL   H19549545   3.479   3.137   0.856 -0.6064 -0.8232 -2.9519
  176MOL   H19649546   3.720   3.073   1.231  1.2531  0.7702 -0.1392
  176MOL   H19749547   3.739   3.267   1.379  0.6524 -2.8929 -0.7160
  176MOL   C19849548   3.478   2.916   0.808 -0.2544 -0.0361  0.1707
  176MOL   C19949549   3.521   2.786   0.846 -0.0322 -0.0654  0.4636
  176MOL   C20049550   3.492   2.675   0.764 -0.1403 -0.4866 -0.0890
  176MOL   C20149551   3.420   2.690   0.643  0.5450 -0.4275  0.0313
  176MOL   C20249552   3.369   2.573   0.566 -0.3303  0.2264 -0.3329
  176MOL   C20349553   3.362   2.569   0.433  0.2562 -0.9212 -0.3376
  176MOL   C20449554   3.394   2.820   0.595  0.0007 -0.3015 -0.4601
  176MOL   C20549555   3.410   2.932   0.681 -0.3072  0.5359 -0.1324
  176MOL   H20649556   3.583   2.772   0.933  0.7688  0.4006 -0.0225
  176MOL   H20749557   3.512   2.574   0.796  1.1179 -0.2741 -0.1991
  176MOL   H20849558   3.331   2.493   0.627 -1.1507  0.3722 -0.6446
  176MOL   H20949559   3.411   2.651   0.382 -1.1723  0.4193  0.4000
  176MOL   H21049560   3.342   2.834   0.502 -1.4569 -0.1908  0.3583
  176MOL   H21149561   3.370   3.026   0.647  1.4215  0.3572 -2.7823
  176MOL   C21249562   3.279   2.468   0.362 -0.6971 -1.0292  0.8567
  176MOL   C21349563   3.296   2.440   0.223  0.2130 -0.4371  0.3049
  176MOL   C21449564   3.221   2.341   0.160 -0.6149  1.1543 -0.7019
  176MOL   C21549565   3.126   2.265   0.236  0.1640  0.1572 -0.7592
  176MOL   C21649566   3.046   2.155   0.173 -0.0864 -0.0717  0.1827
  176MOL   C21749567   2.970   2.055   0.231 -0.5444  0.1215 -0.0200
  176MOL   C21849568   3.106   2.292   0.374  0.3648  0.0629 -0.4523
  176MOL   C21949569   3.186   2.391   0.441  0.2903  0.3871 -0.5219
  176MOL   H22049570   3.366   2.498   0.165 -0.5426 -1.0074 -1.2264
  176MOL   H22149571   3.233   2.321   0.055  1.8980  1.5764 -0.5340
  176MOL   H22249572   3.051   2.158   0.065  1.3275  0.7225  0.2471
  176MOL   H22349573   2.957   2.058   0.338 -0.0276  0.0029  0.0499
  176MOL   H22449574   3.026   2.244   0.430 -0.9636  1.0777 -1.4467
  176MOL   H22549575   3.157   2.420   0.541  2.8237  1.8016 -0.1643
  176MOL   C22649576   2.908   1.939   0.160  0.3583  0.5400  0.3097
  176MOL   C22749577   2.880   1.942   0.018 -0.2622 -0.7294 -0.4271
  176MOL   C22849578   2.840   1.825   8.093  0.2610 -0.0969  0.0977
  176MOL   C22949579   2.823   1.705   0.019 -0.8188  0.7988 -0.2201
  176MOL   C23049580   2.786   1.584   8.089  0.0586 -0.1401 -0.9663
  176MOL   C23149581   2.722   1.471   8.144  0.5754 -0.3411 -0.4044
  176MOL   C23249582   2.841   1.702   0.161 -0.2167 -0.2499  0.4816
  176MOL   C23349583   2.895   1.814   0.230  0.0318  0.0208 -0.4764
  176MOL   H23449584   2.896   2.035   8.109  0.8377  0.0544  1.2446
  176MOL   H23549585   2.841   1.823   7.985 -0.9003  2.1180  0.0225
  176MOL   H23649586   2.816   1.581   7.985 -0.2438  1.4385 -1.1168
  176MOL   H23749587   2.696   1.467   0.104 -0.0066 -0.3285 -0.5474
  176MOL   H23849588   2.833   1.614   0.224  0.5479 -1.1593 -0.6474
  176MOL   H23949589   2.918   1.800   0.335  1.3757 -0.7860 -0.8613
  176MOL   C24049590   2.697   1.351   8.070  0.2013 -0.0379  0.2896
  176MOL   C24149591   2.688   1.227   8.129 -0.1411 -0.5596  0.3263
  176MOL   C24249592   2.678   1.107   8.058  0.3502  0.4116 -0.1166
  176MOL   C24349593   2.672   1.107   7.920  0.8164 -0.4839  0.3242
  176MOL   C24449594   2.662   0.986   7.838  0.3946 -0.2363 -0.2645
  176MOL   C24549595   2.670   0.852   7.876 -0.4763 -0.1736  0.2889
  176MOL   C24649596   2.681   1.229   7.851 -0.5174  0.1928 -0.5968
  176MOL   C24749597   2.688   1.353   7.921 -0.7094  0.9669 -0.3297
  176MOL   H24849598   2.696   1.224   0.092  1.5805  0.0309  0.2223
  176MOL   H24949599   2.666   1.015   8.112 -1.8674  0.4969 -0.4372
  176MOL   H25049600   2.656   1.008   7.733  0.0899  0.5329 -0.0950
  176MOL   H25149601   2.676   0.829   7.981 -0.1435  1.1031  0.5641
  176MOL   H25249602   2.685   1.239   7.744  0.9636  0.5638 -0.5231
  176MOL   H25349603   2.691   1.438   7.854  1.0596  1.3812  0.2706
  176MOL   C25449604   2.661   0.739   7.781  0.2851  0.1515 -0.0675
  176MOL   C25549605   2.628   0.614   7.828 -0.0725 -0.2871  0.3047
  176MOL   C25649606   2.636   0.498   7.745 -0.3438  0.5278  0.7896
  176MOL   C25749607   2.665   0.514   7.609 -0.2093 -0.3331 -0.5309
  176MOL   C25849608   2.667   0.407   7.514 -0.2406  0.3242  0.0044
  176MOL   C25949609   2.739   0.384   7.402  0.0339  0.0353  0.7535
  176MOL   C26049610   2.700   0.642   7.561  0.5612 -0.7321 -0.4468
  176MOL   C26149611   2.694   0.756   7.646  0.2735  0.4288 -0.0246
  176MOL   H26249612   2.612   0.592   7.932  4.7337 -2.1607  0.8066
  176MOL   H26349613   2.614   0.400   7.785  0.6545  0.1538  0.4283
  176MOL   H26449614   2.589   0.335   7.534 -2.5954  2.4266 -1.2287
  176MOL   H26549615   2.708   0.300   7.342  1.8124 -0.1233  0.0555
  176MOL   H26649616   2.729   0.655   7.457  0.5113 -1.4723 -0.5526
  176MOL   H26749617   2.709   0.852   7.599  1.2691  0.0129 -0.5691
  176MOL   C26849618   2.860   0.453   7.360 -0.2631 -0.1074  0.0746
  176MOL   C26949619   2.960   0.480   7.452 -0.5399  0.3544 -0.2589
  176MOL   C27049620   3.067   0.565   7.415 -0.0663  0.4912  0.1613
  176MOL   C27149621   3.071   0.627   7.287  0.1762  0.3022  0.0915
  176MOL   C27249622   3.179   0.719   7.249  0.0713 -0.0207 -0.7635
  176MOL   C27349623   3.304   0.728   7.307  0.2484 -0.1527  0.0975
  176MOL   C27449624   2.971   0.594   7.191 -0.3358  0.3022  0.0780
  176MOL   C27549625   2.866   0.508   7.226  0.3832 -0.4119 -0.1980
  176MOL   H27649626   2.952   0.445   7.553  0.0627 -0.5622 -0.5220
  176MOL   H27749627   3.143   0.575   7.491  2.7909 -1.3583 -2.3414
  176MOL   H27849628   3.165   0.801   7.180 -0.4712 -1.5770 -2.5510
  176MOL   H27949629   3.339   0.666   7.389 -1.1173 -0.5157  0.4400
  176MOL   H28049630   2.970   0.634   7.091  1.2862  0.2466  0.0182
  176MOL   H28149631   2.794   0.470   7.155 -0.1032 -0.9890  0.5893
  176MOL   H28249632   3.374   0.802   7.274 -0.1074 -0.3964 -1.2292
  177MOL     C149633   7.657   5.132   7.155 -0.1256  0.5711  0.0656
  177MOL     C249634   7.567   5.104   7.262 -0.0742 -0.0002 -0.1161
  177MOL     C349635   7.521   4.972   7.292  0.1456 -0.7109 -0.3674
  177MOL     C449636   7.548   4.864   7.199  0.0945  0.0916 -0.2037
  177MOL     C549637   7.512   4.722   7.235  0.1882  0.3176 -0.7359
  177MOL     C649638   7.429   4.694   7.337  0.5478  0.5329 -0.1450
  177MOL     C749639   7.627   4.894   7.084  0.1642  0.0574 -0.6111
  177MOL     C849640   7.685   5.023   7.061  0.1059 -0.3118  0.0772
  177MOL     H949641   7.565   5.197   7.318  0.9995  0.0006 -0.0527
  177MOL    H1049642   7.470   4.956   7.386 -0.1524 -1.4875 -0.6521
  177MOL    H1149643   7.541   4.644   7.166 -0.9106  0.8554 -1.8266
  177MOL    H1249644   7.379   4.770   7.395 -1.5933  0.3647 -1.7103
  177MOL    H1349645   7.647   4.808   7.021 -0.0131 -0.7105  0.3686
  177MOL    H1449646   7.752   5.052   6.981  1.0034  0.1409  0.9838
  177MOL    H1549647   7.705   5.229   7.152 -0.8892  0.9495 -0.0089
  177MOL    C1649648   7.381   4.560   7.362  0.2259 -0.1324 -0.2299
  177MOL    C1749649   7.457   4.442   7.327  0.2632  0.0235 -0.1522
  177MOL    C1849650   7.398   4.312   7.347  0.4308  0.2861 -0.5214
  177MOL    C1949651   7.266   4.296   7.400 -0.4080 -0.0647  0.3300
  177MOL    C2049652   7.202   4.166   7.406  0.3276 -0.0664  0.0999
  177MOL    C2149653   7.244   4.049   7.347 -0.2132 -0.3697  0.3968
  177MOL    C2249654   7.199   4.413   7.451 -0.8180 -0.3195  0.3653
  177MOL    C2349655   7.258   4.538   7.427 -0.6538 -1.0090 -0.8772
  177MOL    H2449656   7.559   4.454   7.294  0.5752 -1.7512  0.1342
  177MOL    H2549657   7.470   4.234   7.323  1.7533  0.9430  1.1992
  177MOL    H2649658   7.109   4.158   7.461 -1.2886 -2.6593 -2.8350
  177MOL    H2749659   7.334   4.041   7.287 -1.1446 -0.6503 -0.9726
  177MOL    H2849660   7.100   4.404   7.494 -1.6026 -0.1808 -1.3388
  177MOL    H2949661   7.197   4.618   7.467 -1.4505 -1.5498 -0.9847
  177MOL    C3049662   7.172   3.920   7.354  0.2862  1.0392  0.2137
  177MOL    C3149663   7.195   3.820   7.256  0.4516  0.0400  0.1016
  177MOL    C3249664   7.116   3.705   7.253  0.5104  0.2606  0.6212
  177MOL    C3349665   7.024   3.680   7.356 -0.0039 -0.1293  0.1202
  177MOL    C3449666   6.939   3.555   7.349 -0.1487 -0.3740  0.3091
  177MOL    C3549667   6.856   3.515   7.449  0.2143  0.4526 -0.2370
  177MOL    C3649668   7.005   3.775   7.460  0.1945 -0.2210 -0.3528
  177MOL    C3749669   7.074   3.898   7.460 -0.0904  0.1781  0.3683
  177MOL    H3849670   7.267   3.837   7.178  0.0699 -0.7027 -0.4211
  177MOL    H3949671   7.140   3.631   7.178 -1.6532  1.7738 -1.6447
  177MOL    H4049672   6.944   3.506   7.253 -1.4471 -0.8915  0.4962
  177MOL    H4149673   6.851   3.568   7.543 -0.7602 -0.0097 -0.0290
  177MOL    H4249674   6.929   3.764   7.537  2.4594 -1.8446  1.7395
  177MOL    H4349675   7.056   3.974   7.535 -0.2231  1.0114 -0.4951
  177MOL    C4449676   6.783   3.389   7.442  0.2172 -0.0802 -0.5248
  177MOL    C4549677   6.733   3.341   7.564  0.2325 -0.4373  0.3001
  177MOL    C4649678   6.660   3.221   7.568  1.2189  0.0256  0.1602
  177MOL    C4749679   6.649   3.141   7.449  0.3705 -0.4652 -0.0346
  177MOL    C4849680   6.574   3.018   7.456  0.3097  0.7912  0.0515
  177MOL    C4949681   6.515   2.960   7.350 -0.8096  0.2580 -0.1912
  177MOL    C5049682   6.699   3.189   7.327 -0.1208 -0.1909  0.1746
  177MOL    C5149683   6.768   3.314   7.323 -0.5787 -0.3150  0.0111
  177MOL    H5249684   6.743   3.405   7.651  0.8811  0.4723 -0.4309
  177MOL    H5349685   6.614   3.188   7.659  0.0617 -0.5562 -0.6227
  177MOL    H5449686   6.559   2.991   7.559  0.0932  0.8031  0.0245
  177MOL    H5549687   6.528   3.007   7.254 -0.8666 -0.7957 -0.7286
  177MOL    H5649688   6.700   3.123   7.241  0.1498  0.1998 -0.1278
  177MOL    H5749689   6.806   3.356   7.231  0.3762 -0.9893  0.0895
  177MOL    C5849690   6.425   2.842   7.353  0.2170  0.0694 -0.4775
  177MOL    C5949691   6.377   2.810   7.227  0.0852 -0.4202 -0.0100
  177MOL    C6049692   6.280   2.711   7.214 -0.0901 -0.0585 -0.2407
  177MOL    C6149693   6.221   2.649   7.329 -0.0614  0.2943  0.3940
  177MOL    C6249694   6.113   2.553   7.313  0.6263  0.5580  0.3283
  177MOL    C6349695   6.028   2.542   7.209  0.1804 -0.0119  0.3087
  177MOL    C6449696   6.271   2.680   7.460  0.2312 -0.1684  0.1945
  177MOL    C6549697   6.373   2.781   7.469 -0.4224  0.8812  0.1448
  177MOL    H6649698   6.418   2.852   7.136 -0.6535 -1.5876 -0.8902
  177MOL    H6749699   6.255   2.682   7.113  2.9803 -0.1393 -1.0212
  177MOL    H6849700   6.093   2.488   7.396 -2.0031 -1.4241 -1.7362
  177MOL    H6949701   6.041   2.607   7.123 -0.1011 -0.5456 -0.1435
  177MOL    H7049702   6.220   2.638   7.545  1.2164  0.5038  1.1284
  177MOL    H7149703   6.405   2.807   7.569 -1.8420 -0.7034  1.0168
  177MOL    C7249704   5.914   2.452   7.188  0.1637  0.4988 -0.2436
  177MOL    C7349705   5.856   2.458   7.062  0.1564 -0.1991  0.2182
  177MOL    C7449706   5.734   2.386   7.039 -0.4351 -0.2665  0.0840
  177MOL    C7549707   5.672   2.314   7.140  0.0786  0.1106 -0.8033
  177MOL    C7649708   5.543   2.246   7.104 -0.1755 -0.3368 -1.2556
  177MOL    C7749709   5.472   2.167   7.190  0.0926 -0.4490 -0.4262
  177MOL    C7849710   5.739   2.299   7.265  0.3957  0.2730 -0.6432
  177MOL    C7949711   5.862   2.365   7.286 -0.3415  0.3750 -0.2991
  177MOL    H8049712   5.895   2.520   6.983 -0.0044 -0.1148  0.2064
  177MOL    H8149713   5.683   2.384   6.944  1.3472 -1.5039 -0.8938
  177MOL    H8249714   5.500   2.254   7.005  1.0016  1.2895 -1.6614
  177MOL    H8349715   5.520   2.143   7.284 -0.0999 -2.6023 -0.8556
  177MOL    H8449716   5.712   2.232   7.345  0.3465  0.4776 -0.4892
  177MOL    H8549717   5.921   2.345   7.374  0.8923  0.1686 -1.1536
  177MOL    C8649718   5.339   2.110   7.160 -0.6317 -0.4435  0.1693
  177MOL    C8749719   5.271   2.118   7.029 -0.1770  0.1159  0.4597
  177MOL    C8849720   5.154   2.044   7.004 -0.1303 -0.2908  0.3039
  177MOL    C8949721   5.085   1.986   7.114 -0.3844  0.0308  0.1950
  177MOL    C9049722   4.955   1.910   7.091 -0.3400  0.3570  0.2137
  177MOL    C9149723   4.900   1.886   6.973  0.3894  0.6504 -0.8282
  177MOL    C9249724   5.144   1.986   7.242 -0.3511  0.0253  0.2773
  177MOL    C9349725   5.263   2.052   7.266  0.0321 -0.1425  0.7428
  177MOL    H9449726   5.308   2.180   6.949  0.9990  1.3758  1.9621
  177MOL    H9549727   5.112   2.053   6.905 -0.6812  1.5010  0.6788
  177MOL    H9649728   4.904   1.877   7.180 -0.5563  0.5132  0.1488
  177MOL    H9749729   4.945   1.932   6.886  2.0675 -1.0820 -0.9177
  177MOL    H9849730   5.093   1.943   7.327 -0.2838 -0.3555  0.1237
  177MOL    H9949731   5.299   2.057   7.368  1.1110  0.9487  0.3233
  177MOL   C10049732   4.777   1.808   6.945 -0.0115  0.2019 -0.1419
  177MOL   C10149733   4.720   1.721   7.035  0.4913  0.5521  0.1451
  177MOL   C10249734   4.594   1.663   7.013  0.6548 -0.3316  0.7327
  177MOL   C10349735   4.531   1.685   6.893 -0.8364  0.1041  0.3638
  177MOL   C10449736   4.408   1.609   6.864  0.6120 -0.6572  0.1892
  177MOL   C10549737   4.332   1.613   6.757 -0.1033 -1.0810  0.5749
  177MOL   C10649738   4.597   1.760   6.790 -0.6721  0.5678  0.6245
  177MOL   C10749739   4.719   1.825   6.824 -0.1139  0.0664  0.3218
  177MOL   H10849740   4.761   1.699   7.132  0.7906  3.0313  0.6174
  177MOL   H10949741   4.544   1.598   7.083  1.6582 -1.7195  0.1708
  177MOL   H11049742   4.376   1.540   6.941  1.0386  0.8141  1.7171
  177MOL   H11149743   4.347   1.691   6.684  0.1260 -3.3608 -1.9114
  177MOL   H11249744   4.559   1.773   6.690  0.9641 -0.1560 -0.1154
  177MOL   H11349745   4.756   1.897   6.753 -0.0458  0.1971  0.4890
  177MOL   C11449746   4.214   1.529   6.727 -0.0603  0.1193  0.0056
  177MOL   C11549747   4.136   1.474   6.830 -0.7895  0.3303 -0.1015
  177MOL   C11649748   4.022   1.395   6.800 -0.5142 -0.6373  0.2138
  177MOL   C11749749   3.979   1.370   6.666  0.7405 -0.3028  0.7038
  177MOL   C11849750   3.865   1.284   6.648 -0.0672  0.3462 -0.0314
  177MOL   C11949751   3.833   1.210   6.541 -0.0651  0.3600 -0.2591
  177MOL   C12049752   4.047   1.434   6.562 -1.1349 -0.6246 -0.5146
  177MOL   C12149753   4.168   1.510   6.589 -0.2678 -0.9638 -0.6668
  177MOL   H12249754   4.163   1.506   6.930  0.0676  2.1414 -0.8995
  177MOL   H12349755   3.965   1.349   6.879 -0.8387 -1.9541 -0.7859
  177MOL   H12449756   3.800   1.275   6.734  0.1969 -2.4306 -0.0701
  177MOL   H12549757   3.891   1.232   6.453 -1.3912  1.7256 -0.8231
  177MOL   H12649758   4.022   1.422   6.458 -0.1541  0.9258 -0.9316
  177MOL   H12749759   4.217   1.556   6.505 -0.2383  1.4907  0.6674
  177MOL   C12849760   3.726   1.105   6.530 -0.5305 -0.9195 -0.4710
  177MOL   C12949761   3.668   1.050   6.645 -0.4184  0.2573 -0.0072
  177MOL   C13049762   3.582   0.938   6.634 -0.4266  0.6140  0.0948
  177MOL   C13149763   3.547   0.891   6.502 -0.2909  0.5096 -0.3819
  177MOL   C13249764   3.464   0.769   6.497 -0.0097  0.3163  0.5588
  177MOL   C13349765   3.412   0.718   6.384 -0.4759  0.1955 -0.3788
  177MOL   C13449766   3.598   0.955   6.389 -0.9692 -0.0987 -0.3265
  177MOL   C13549767   3.687   1.062   6.407 -0.4578 -0.1820 -0.5664
  177MOL   H13649768   3.693   1.073   6.748  2.3745 -2.8192  0.0983
  177MOL   H13749769   3.543   0.894   6.725 -1.8199  3.3330  0.8650
  177MOL   H13849770   3.445   0.727   6.594  0.3557 -0.1507  0.4294
  177MOL   H13949771   3.438   0.763   6.289 -1.1784 -1.3010 -1.2883
  177MOL   H14049772   3.571   0.924   6.289  2.0019 -0.7293 -0.9671
  177MOL   H14149773   3.715   1.116   6.318 -2.2225 -0.9521 -1.6081
  177MOL   C14249774   3.318   0.606   6.374  0.4051 -0.4946  0.0054
  177MOL   C14349775   3.307   0.529   6.256  0.1609  1.0920 -0.7538
  177MOL   C14449776   3.238   0.408   6.262  0.1645  0.0375  0.1527
  177MOL   C14549777   3.194   0.353   6.383  0.0935  0.5580 -0.2546
  177MOL   C14649778   3.121   0.227   6.395 -0.4617  0.3086  0.8632
  177MOL   C14749779   3.073   0.156   6.292  0.3817 -0.1278 -0.2153
  177MOL   C14849780   3.200   0.426   6.500 -0.5429  0.3213 -0.4433
  177MOL   C14949781   3.260   0.555   6.492  0.9306 -0.3770  0.3289
  177MOL   H15049782   3.336   0.563   6.158 -1.9383 -1.6150 -2.4002
  177MOL   H15149783   3.220   0.361   6.166 -1.7932  2.1045 -0.5327
  177MOL   H15249784   3.108   0.184   6.494  0.2175  1.3219  1.4049
  177MOL   H15349785   3.083   0.185   6.188 -0.8558  0.3226 -0.2212
  177MOL   H15449786   3.162   0.388   6.594  2.9369 -0.5077  0.6885
  177MOL   H15549787   3.253   0.615   6.581 -0.0619  0.4423 -0.2938
  177MOL   C15649788   3.005   0.028   6.307 -0.3824  0.0459 -0.0939
  177MOL   C15749789   2.982   8.088   6.200 -0.5946  0.6773  0.0492
  177MOL   C15849790   2.941   7.951   6.214 -0.7421 -0.1352 -0.3199
  177MOL   C15949791   2.926   7.905   6.343  0.1224  0.2658 -0.2098
  177MOL   C16049792   2.911   7.759   6.372 -0.0924 -0.1875 -0.0730
  177MOL   C16149793   2.939   7.659   6.286 -0.4476 -0.1536  0.2611
  177MOL   C16249794   2.931   7.990   6.450 -0.1096  0.2063  0.2016
  177MOL   C16349795   2.963   8.126   6.431  0.0501  0.5001 -0.1188
  177MOL   H16449796   3.014   8.119   6.101 -0.1873  1.5555  0.4546
  177MOL   H16549797   2.937   7.876   6.136  0.1236 -1.0699  0.5226
  177MOL   H16649798   2.880   7.735   6.472 -0.7622 -1.0983 -0.4937
  177MOL   H16749799   2.983   7.686   6.191 -2.0163 -0.0731 -0.4527
  177MOL   H16849800   2.914   7.956   6.551  0.9235  0.1193  0.3525
  177MOL   H16949801   2.959   0.040   6.522 -2.1900  0.2208 -0.0150
  177MOL   C17049802   2.920   7.521   6.314 -0.2732 -0.1648 -0.2962
  177MOL   C17149803   2.873   7.465   6.435 -0.0427 -0.9989  0.0874
  177MOL   C17249804   2.864   7.328   6.454 -0.5026  0.5387 -0.1229
  177MOL   C17349805   2.901   7.239   6.351  0.3408  0.2211 -0.3177
  177MOL   C17449806   2.885   7.096   6.371 -0.2821 -0.0633  0.7632
  177MOL   C17549807   2.905   6.995   6.287 -0.3301 -0.6866  0.0944
  177MOL   C17649808   2.957   7.292   6.232  0.6449  0.6912 -0.5542
  177MOL   C17749809   2.972   7.433   6.216  0.4258  0.3456  0.7565
  177MOL   H17849810   2.827   7.529   6.509 -0.0101  0.3874 -1.0875
  177MOL   H17949811   2.826   7.278   6.542  1.0589  0.2452  0.3927
  177MOL   H18049812   2.865   7.077   6.475 -0.7019 -0.5354  0.5990
  177MOL   H18149813   2.946   7.014   6.189 -0.8343 -2.0089 -0.3878
  177MOL   H18249814   3.001   7.225   6.159  0.7836 -0.2379  0.3646
  177MOL   H18349815   3.029   7.466   6.131  1.0978 -4.0732 -0.6402
  177MOL   C18449816   2.886   6.848   6.313 -0.5935 -0.0827 -0.1610
  177MOL   C18549817   2.824   6.802   6.435  0.0252 -0.8386 -0.1562
  177MOL   C18649818   2.816   6.670   6.464  0.4296  0.1716 -0.0736
  177MOL   C18749819   2.874   6.575   6.375  0.2814 -0.4653 -0.2063
  177MOL   C18849820   2.857   6.430   6.398 -0.9263 -0.4186 -0.0593
  177MOL   C18949821   2.870   6.335   6.308 -0.4038 -0.0370 -0.8722
  177MOL   C19049822   2.943   6.618   6.259  0.3328 -0.0657 -0.5668
  177MOL   C19149823   2.944   6.751   6.223  0.1812 -0.3567 -0.0172
  177MOL   H19249824   2.787   6.880   6.500  0.9134  0.0519 -0.7093
  177MOL   H19349825   2.760   6.635   6.549  0.0293 -0.2890 -0.5246
  177MOL   H19449826   2.836   6.406   6.502 -1.7359 -0.2173 -0.1770
  177MOL   H19549827   2.897   6.353   6.205 -2.2015  0.2191 -1.3181
  177MOL   H19649828   2.999   6.547   6.200  3.4906  1.6613  0.2491
  177MOL   H19749829   2.986   6.781   6.128 -1.3042 -0.4157 -0.7052
  177MOL   C19849830   2.845   6.191   6.339  0.4338 -0.3370  0.2382
  177MOL   C19949831   2.901   6.099   6.250 -0.0891 -0.2322 -0.1643
  177MOL   C20049832   2.884   5.961   6.270 -0.1026  0.2596  0.3284
  177MOL   C20149833   2.808   5.912   6.376 -0.1897  0.6992 -0.3444
  177MOL   C20249834   2.792   5.767   6.392  0.1741 -0.5636  0.1023
  177MOL   C20349835   2.694   5.712   6.466 -0.0836  0.2884  0.5933
  177MOL   C20449836   2.756   6.003   6.469  0.1640  0.6371 -0.0301
  177MOL   C20549837   2.770   6.138   6.446  0.6893  0.4005 -0.0666
  177MOL   H20649838   2.964   6.140   6.172  0.5046  1.7931  1.3432
  177MOL   H20749839   2.922   5.891   6.197  0.6179  2.4514 -1.4469
  177MOL   H20849840   2.866   5.703   6.347 -0.4702  0.7233 -2.8672
  177MOL   H20949841   2.620   5.778   6.509  0.4923  1.8600 -0.8109
  177MOL   H21049842   2.683   5.979   6.545 -0.9097  0.3689 -1.1347
  177MOL   H21149843   2.715   6.204   6.512 -0.5010  0.1195 -0.7594
  177MOL   C21249844   2.676   5.570   6.485  0.2827 -0.8887 -0.4750
  177MOL   C21349845   2.557   5.532   6.538 -0.6783 -0.2640 -0.0568
  177MOL   C21449846   2.533   5.409   6.578 -0.2140 -0.3594 -0.1894
  177MOL   C21549847   2.625   5.307   6.565  0.6703  0.1448  0.3461
  177MOL   C21649848   2.602   5.179   6.632  1.0029  0.9871 -0.3291
  177MOL   C21749849   2.688   5.078   6.647 -0.4458  0.2619  0.2303
  177MOL   C21849850   2.754   5.339   6.510 -0.4900 -0.2241  0.5634
  177MOL   C21949851   2.778   5.473   6.470 -0.1510  0.5876  0.7310
  177MOL   H22049852   2.476   5.603   6.545 -0.8734 -0.4330 -0.6025
  177MOL   H22149853   2.432   5.389   6.611 -0.4807  3.4529  1.5805
  177MOL   H22249854   2.502   5.167   6.670  0.7595 -0.3112 -1.3386
  177MOL   H22349855   2.787   5.099   6.610  0.6883 -2.6064  1.5002
  177MOL   H22449856   2.825   5.262   6.480 -1.3377  0.1489 -2.5750
  177MOL   H22549857   2.875   5.502   6.434 -0.0241  1.7647  2.0238
  177MOL   C22649858   2.668   4.948   6.712 -0.3760 -0.3212 -1.0797
  177MOL   C22749859   2.548   4.915   6.777 -0.6695  0.5339 -0.7789
  177MOL   C22849860   2.537   4.799   6.858  0.0414 -0.4750  0.1913
  177MOL   C22949861   2.641   4.702   6.853  0.2986  1.0251  0.2720
  177MOL   C23049862   2.639   4.573   6.930 -0.4309  0.0352 -0.2946
  177MOL   C23149863   2.533   4.522   6.993 -0.0455  0.0555  0.2663
  177MOL   C23249864   2.753   4.733   6.778 -0.1926 -0.3123 -0.3036
  177MOL   C23349865   2.770   4.858   6.709  0.7733  0.0222 -0.1622
  177MOL   H23449866   2.461   4.978   6.784 -1.3547 -0.6686  2.6182
  177MOL   H23549867   2.442   4.778   6.906  0.3136 -2.0935  0.0402
  177MOL   H23649868   2.735   4.525   6.945 -1.6740 -2.0226  1.1678
  177MOL   H23749869   2.445   4.584   6.984  0.3992  0.5048 -1.1452
  177MOL   H23849870   2.848   4.682   6.775  0.1889  0.4434 -1.2633
  177MOL   H23949871   2.858   4.875   6.649  1.0398 -0.6358  0.0336
  177MOL   C24049872   2.517   4.401   7.080 -0.2443  0.6098  0.2206
  177MOL   C24149873   2.560   4.269   7.052 -0.1572 -0.1206  0.5802
  177MOL   C24249874   2.534   4.164   7.141 -0.3203  0.4489  0.0091
  177MOL   C24349875   2.468   4.189   7.262  0.5665  0.1430  0.1218
  177MOL   C24449876   2.461   4.076   7.363  0.2238 -1.1398  0.5150
  177MOL   C24549877   2.420   4.092   7.492  0.0866 -0.1844 -0.3540
  177MOL   C24649878   2.419   4.319   7.289  1.0732  1.0570 -1.0286
  177MOL   C24749879   2.446   4.423   7.200  0.0846 -0.4337 -0.0107
  177MOL   H24849880   2.601   4.259   6.953  0.1862 -1.1694  0.8204
  177MOL   H24949881   2.547   4.060   7.116 -0.7582 -0.3540  2.9690
  177MOL   H25049882   2.486   3.974   7.338 -1.3587 -1.4125 -0.0128
  177MOL   H25149883   2.397   4.189   7.533 -0.9911 -0.5743 -0.0269
  177MOL   H25249884   2.373   4.350   7.382 -0.3004 -0.5341 -1.1426
  177MOL   H25349885   2.414   4.521   7.235  0.4373 -0.6405  0.9065
  177MOL   C25449886   2.409   3.985   7.593  0.4821 -0.6718 -0.6530
  177MOL   C25549887   2.388   4.028   7.729  0.0983 -0.7355  0.0106
  177MOL   C25649888   2.378   3.925   7.826  0.1490 -0.1686 -0.5393
  177MOL   C25749889   2.384   3.784   7.795  0.5356  0.1205 -0.8034
  177MOL   C25849890   2.358   3.692   7.907  0.7534  0.0498  0.1891
  177MOL   C25949891   2.444   3.619   7.973  0.1506  0.3432 -0.2290
  177MOL   C26049892   2.398   3.744   7.656 -0.2114  0.4265 -0.1671
  177MOL   C26149893   2.411   3.844   7.561 -1.1866  0.2609 -0.3400
  177MOL   H26249894   2.388   4.134   7.750  0.0884 -0.7905  0.2981
  177MOL   H26349895   2.367   3.955   7.929  1.2345 -0.3387 -0.3719
  177MOL   H26449896   2.253   3.689   7.934  0.5360 -0.0094 -0.6656
  177MOL   H26549897   2.418   3.547   8.050  2.0633  0.2581  0.3608
  177MOL   H26649898   2.406   3.640   7.626  0.3152  1.0113 -2.1164
  177MOL   H26749899   2.419   3.814   7.457 -1.2417  0.5598 -0.4321
  177MOL   C26849900   2.587   3.609   7.946  0.4990  0.0612 -0.0953
  177MOL   C26949901   2.676   3.720   7.932  0.8132  0.1044 -1.0040
  177MOL   C27049902   2.814   3.707   7.904 -0.0685  0.7059  0.0999
  177MOL   C27149903   2.868   3.581   7.879  0.1813 -0.5318  0.0204
  177MOL   C27249904   3.009   3.566   7.830  0.7959 -0.3622  0.2499
  177MOL   C27349905   3.076   3.450   7.825 -0.7113  0.0602  0.9057
  177MOL   C27449906   2.785   3.469   7.896  0.3436 -0.3673 -0.2209
  177MOL   C27549907   2.644   3.482   7.931 -1.1774  0.5540 -0.1665
  177MOL   H27649908   2.638   3.821   7.941 -2.8498 -1.2221 -0.4619
  177MOL   H27749909   2.886   3.788   7.903  2.1444 -1.2031  0.1551
  177MOL   H27849910   3.060   3.656   7.797  0.1488 -0.0358  0.1254
  177MOL   H27949911   3.033   3.355   7.855  1.0193 -1.0406 -0.0294
  177MOL   H28049912   2.824   3.368   7.890  2.7005  0.4957 -0.2142
  177MOL   H28149913   2.586   3.391   7.941 -1.7269  1.0060  0.8192
  177MOL   H28249914   3.178   3.450   7.789 -1.7938  0.2350 -2.3229
   8.14435   8.14435   8.14435
