;
; Gromacs include topology (itp) file.
; For Molecular Group XYZ
; Force field scheme: opls2005
; Produced from DL_FIELD v4.11
;


[ moleculetype ]
; name    nrexcl
XYZ    3

[ atoms ]
; nr   type   resnr   residu    atom    cgnr    charge    mass
    1        CT    1  MOL      C1     1  -0.1800000   12.0115
    2      CANI    1  MOL      C2     2   0.0400000   12.0115
    3        CZ    1  MOL      C3     3   0.4600000   12.0115
    4        NZ    1  MOL      N4     4  -0.5600000   14.0067
    5        HC    1  MOL      H5     5   0.0600000    1.0080
    6        HC    1  MOL      H6     6   0.0600000    1.0080
    7      HANI    1  MOL      H7     7   0.0600000    1.0080
    8        HC    1  MOL      H8     8   0.0600000    1.0080
    9        CT    1  MOL      C9     9  -0.1200000   12.0115
   10      CANI    1  MOL     C10    10   0.0400000   12.0115
   11        CZ    1  MOL     C11    11   0.4600000   12.0115
   12        NZ    1  MOL     N12    12  -0.5600000   14.0067
   13        HC    1  MOL     H13    13   0.0600000    1.0080
   14        HC    1  MOL     H14    14   0.0600000    1.0080
   15      HANI    1  MOL     H15    15   0.0600000    1.0080
   16        CT    1  MOL     C16    16  -0.1200000   12.0115
   17      CANI    1  MOL     C17    17   0.0400000   12.0115
   18        CZ    1  MOL     C18    18   0.4600000   12.0115
   19        NZ    1  MOL     N19    19  -0.5600000   14.0067
   20        HC    1  MOL     H20    20   0.0600000    1.0080
   21        HC    1  MOL     H21    21   0.0600000    1.0080
   22      HANI    1  MOL     H22    22   0.0600000    1.0080
   23        CT    1  MOL     C23    23  -0.1200000   12.0115
   24      CANI    1  MOL     C24    24   0.0400000   12.0115
   25        CZ    1  MOL     C25    25   0.4600000   12.0115
   26        NZ    1  MOL     N26    26  -0.5600000   14.0067
   27        HC    1  MOL     H27    27   0.0600000    1.0080
   28        HC    1  MOL     H28    28   0.0600000    1.0080
   29      HANI    1  MOL     H29    29   0.0600000    1.0080
   30        CT    1  MOL     C30    30  -0.1200000   12.0115
   31      CANI    1  MOL     C31    31   0.0400000   12.0115
   32        CZ    1  MOL     C32    32   0.4600000   12.0115
   33        NZ    1  MOL     N33    33  -0.5600000   14.0067
   34        HC    1  MOL     H34    34   0.0600000    1.0080
   35        HC    1  MOL     H35    35   0.0600000    1.0080
   36      HANI    1  MOL     H36    36   0.0600000    1.0080
   37        CT    1  MOL     C37    37  -0.1200000   12.0115
   38      CANI    1  MOL     C38    38   0.0400000   12.0115
   39        CZ    1  MOL     C39    39   0.4600000   12.0115
   40        NZ    1  MOL     N40    40  -0.5600000   14.0067
   41        HC    1  MOL     H41    41   0.0600000    1.0080
   42        HC    1  MOL     H42    42   0.0600000    1.0080
   43      HANI    1  MOL     H43    43   0.0600000    1.0080
   44        CT    1  MOL     C44    44  -0.1200000   12.0115
   45      CANI    1  MOL     C45    45   0.0400000   12.0115
   46        CZ    1  MOL     C46    46   0.4600000   12.0115
   47        NZ    1  MOL     N47    47  -0.5600000   14.0067
   48        HC    1  MOL     H48    48   0.0600000    1.0080
   49        HC    1  MOL     H49    49   0.0600000    1.0080
   50      HANI    1  MOL     H50    50   0.0600000    1.0080
   51        CT    1  MOL     C51    51  -0.1200000   12.0115
   52      CANI    1  MOL     C52    52   0.0400000   12.0115
   53        CZ    1  MOL     C53    53   0.4600000   12.0115
   54        NZ    1  MOL     N54    54  -0.5600000   14.0067
   55        HC    1  MOL     H55    55   0.0600000    1.0080
   56        HC    1  MOL     H56    56   0.0600000    1.0080
   57      HANI    1  MOL     H57    57   0.0600000    1.0080
   58        CT    1  MOL     C58    58  -0.1200000   12.0115
   59      CANI    1  MOL     C59    59   0.0400000   12.0115
   60        CZ    1  MOL     C60    60   0.4600000   12.0115
   61        NZ    1  MOL     N61    61  -0.5600000   14.0067
   62        HC    1  MOL     H62    62   0.0600000    1.0080
   63        HC    1  MOL     H63    63   0.0600000    1.0080
   64      HANI    1  MOL     H64    64   0.0600000    1.0080
   65        CT    1  MOL     C65    65  -0.1200000   12.0115
   66      CANI    1  MOL     C66    66   0.0400000   12.0115
   67        CZ    1  MOL     C67    67   0.4600000   12.0115
   68        NZ    1  MOL     N68    68  -0.5600000   14.0067
   69        HC    1  MOL     H69    69   0.0600000    1.0080
   70        HC    1  MOL     H70    70   0.0600000    1.0080
   71      HANI    1  MOL     H71    71   0.0600000    1.0080
   72        CT    1  MOL     C72    72  -0.1200000   12.0115
   73      CANI    1  MOL     C73    73   0.0400000   12.0115
   74        CZ    1  MOL     C74    74   0.4600000   12.0115
   75        NZ    1  MOL     N75    75  -0.5600000   14.0067
   76        HC    1  MOL     H76    76   0.0600000    1.0080
   77        HC    1  MOL     H77    77   0.0600000    1.0080
   78      HANI    1  MOL     H78    78   0.0600000    1.0080
   79        CT    1  MOL     C79    79  -0.1200000   12.0115
   80      CANI    1  MOL     C80    80   0.0400000   12.0115
   81        CZ    1  MOL     C81    81   0.4600000   12.0115
   82        NZ    1  MOL     N82    82  -0.5600000   14.0067
   83        HC    1  MOL     H83    83   0.0600000    1.0080
   84        HC    1  MOL     H84    84   0.0600000    1.0080
   85      HANI    1  MOL     H85    85   0.0600000    1.0080
   86        CT    1  MOL     C86    86  -0.1200000   12.0115
   87      CANI    1  MOL     C87    87   0.0400000   12.0115
   88        CZ    1  MOL     C88    88   0.4600000   12.0115
   89        NZ    1  MOL     N89    89  -0.5600000   14.0067
   90        HC    1  MOL     H90    90   0.0600000    1.0080
   91        HC    1  MOL     H91    91   0.0600000    1.0080
   92      HANI    1  MOL     H92    92   0.0600000    1.0080
   93        CT    1  MOL     C93    93  -0.1200000   12.0115
   94      CANI    1  MOL     C94    94   0.0400000   12.0115
   95        CZ    1  MOL     C95    95   0.4600000   12.0115
   96        NZ    1  MOL     N96    96  -0.5600000   14.0067
   97        HC    1  MOL     H97    97   0.0600000    1.0080
   98        HC    1  MOL     H98    98   0.0600000    1.0080
   99      HANI    1  MOL     H99    99   0.0600000    1.0080
  100        CT    1  MOL    C100   100  -0.1200000   12.0115
  101      CANI    1  MOL    C101   101   0.0400000   12.0115
  102        CZ    1  MOL    C102   102   0.4600000   12.0115
  103        NZ    1  MOL    N103   103  -0.5600000   14.0067
  104        HC    1  MOL    H104   104   0.0600000    1.0080
  105        HC    1  MOL    H105   105   0.0600000    1.0080
  106      HANI    1  MOL    H106   106   0.0600000    1.0080
  107        CT    1  MOL    C107   107  -0.1200000   12.0115
  108      CANI    1  MOL    C108   108   0.0400000   12.0115
  109        CZ    1  MOL    C109   109   0.4600000   12.0115
  110        NZ    1  MOL    N110   110  -0.5600000   14.0067
  111        HC    1  MOL    H111   111   0.0600000    1.0080
  112        HC    1  MOL    H112   112   0.0600000    1.0080
  113      HANI    1  MOL    H113   113   0.0600000    1.0080
  114        CT    1  MOL    C114   114  -0.1200000   12.0115
  115      CANI    1  MOL    C115   115   0.0400000   12.0115
  116        CZ    1  MOL    C116   116   0.4600000   12.0115
  117        NZ    1  MOL    N117   117  -0.5600000   14.0067
  118        HC    1  MOL    H118   118   0.0600000    1.0080
  119        HC    1  MOL    H119   119   0.0600000    1.0080
  120      HANI    1  MOL    H120   120   0.0600000    1.0080
  121        CT    1  MOL    C121   121  -0.1200000   12.0115
  122      CANI    1  MOL    C122   122   0.0400000   12.0115
  123        CZ    1  MOL    C123   123   0.4600000   12.0115
  124        NZ    1  MOL    N124   124  -0.5600000   14.0067
  125        HC    1  MOL    H125   125   0.0600000    1.0080
  126        HC    1  MOL    H126   126   0.0600000    1.0080
  127      HANI    1  MOL    H127   127   0.0600000    1.0080
  128        CT    1  MOL    C128   128  -0.1200000   12.0115
  129      CANI    1  MOL    C129   129   0.0400000   12.0115
  130        CZ    1  MOL    C130   130   0.4600000   12.0115
  131        NZ    1  MOL    N131   131  -0.5600000   14.0067
  132        HC    1  MOL    H132   132   0.0600000    1.0080
  133        HC    1  MOL    H133   133   0.0600000    1.0080
  134      HANI    1  MOL    H134   134   0.0600000    1.0080
  135        CT    1  MOL    C135   135  -0.1200000   12.0115
  136      CANI    1  MOL    C136   136  -0.0200000   12.0115
  137        CZ    1  MOL    C137   137   0.4600000   12.0115
  138        NZ    1  MOL    N138   138  -0.5600000   14.0067
  139        HC    1  MOL    H139   139   0.0600000    1.0080
  140        HC    1  MOL    H140   140   0.0600000    1.0080
  141      HANI    1  MOL    H141   141   0.0600000    1.0080
  142      HANI    1  MOL    H142   142   0.0600000    1.0080

[ bonds ]
      1      2   1      0.1529 224262.4000
      1      5   1      0.1090 284512.0000
      1      6   1      0.1090 284512.0000
      1      8   1      0.1090 284512.0000
      2      3   1      0.1470 326352.0000
      2      7   1      0.1090 284512.0000
      2      9   1      0.1529 224262.4000
      3      4   1      0.1157 543920.0000
      9     10   1      0.1529 224262.4000
      9     13   1      0.1090 284512.0000
      9     14   1      0.1090 284512.0000
     10     11   1      0.1470 326352.0000
     10     15   1      0.1090 284512.0000
     10     16   1      0.1529 224262.4000
     11     12   1      0.1157 543920.0000
     16     17   1      0.1529 224262.4000
     16     20   1      0.1090 284512.0000
     16     21   1      0.1090 284512.0000
     17     18   1      0.1470 326352.0000
     17     22   1      0.1090 284512.0000
     17     23   1      0.1529 224262.4000
     18     19   1      0.1157 543920.0000
     23     24   1      0.1529 224262.4000
     23     27   1      0.1090 284512.0000
     23     28   1      0.1090 284512.0000
     24     25   1      0.1470 326352.0000
     24     29   1      0.1090 284512.0000
     24     30   1      0.1529 224262.4000
     25     26   1      0.1157 543920.0000
     30     31   1      0.1529 224262.4000
     30     34   1      0.1090 284512.0000
     30     35   1      0.1090 284512.0000
     31     32   1      0.1470 326352.0000
     31     36   1      0.1090 284512.0000
     31     37   1      0.1529 224262.4000
     32     33   1      0.1157 543920.0000
     37     38   1      0.1529 224262.4000
     37     41   1      0.1090 284512.0000
     37     42   1      0.1090 284512.0000
     38     39   1      0.1470 326352.0000
     38     43   1      0.1090 284512.0000
     38     44   1      0.1529 224262.4000
     39     40   1      0.1157 543920.0000
     44     45   1      0.1529 224262.4000
     44     48   1      0.1090 284512.0000
     44     49   1      0.1090 284512.0000
     45     46   1      0.1470 326352.0000
     45     50   1      0.1090 284512.0000
     45     51   1      0.1529 224262.4000
     46     47   1      0.1157 543920.0000
     51     52   1      0.1529 224262.4000
     51     55   1      0.1090 284512.0000
     51     56   1      0.1090 284512.0000
     52     53   1      0.1470 326352.0000
     52     57   1      0.1090 284512.0000
     52     58   1      0.1529 224262.4000
     53     54   1      0.1157 543920.0000
     58     59   1      0.1529 224262.4000
     58     62   1      0.1090 284512.0000
     58     63   1      0.1090 284512.0000
     59     60   1      0.1470 326352.0000
     59     64   1      0.1090 284512.0000
     59     65   1      0.1529 224262.4000
     60     61   1      0.1157 543920.0000
     65     66   1      0.1529 224262.4000
     65     69   1      0.1090 284512.0000
     65     70   1      0.1090 284512.0000
     66     67   1      0.1470 326352.0000
     66     71   1      0.1090 284512.0000
     66     72   1      0.1529 224262.4000
     67     68   1      0.1157 543920.0000
     72     73   1      0.1529 224262.4000
     72     76   1      0.1090 284512.0000
     72     77   1      0.1090 284512.0000
     73     74   1      0.1470 326352.0000
     73     78   1      0.1090 284512.0000
     73     79   1      0.1529 224262.4000
     74     75   1      0.1157 543920.0000
     79     80   1      0.1529 224262.4000
     79     83   1      0.1090 284512.0000
     79     84   1      0.1090 284512.0000
     80     81   1      0.1470 326352.0000
     80     85   1      0.1090 284512.0000
     80     86   1      0.1529 224262.4000
     81     82   1      0.1157 543920.0000
     86     87   1      0.1529 224262.4000
     86     90   1      0.1090 284512.0000
     86     91   1      0.1090 284512.0000
     87     88   1      0.1470 326352.0000
     87     92   1      0.1090 284512.0000
     87     93   1      0.1529 224262.4000
     88     89   1      0.1157 543920.0000
     93     94   1      0.1529 224262.4000
     93     97   1      0.1090 284512.0000
     93     98   1      0.1090 284512.0000
     94     95   1      0.1470 326352.0000
     94     99   1      0.1090 284512.0000
     94    100   1      0.1529 224262.4000
     95     96   1      0.1157 543920.0000
    100    101   1      0.1529 224262.4000
    100    104   1      0.1090 284512.0000
    100    105   1      0.1090 284512.0000
    101    102   1      0.1470 326352.0000
    101    106   1      0.1090 284512.0000
    101    107   1      0.1529 224262.4000
    102    103   1      0.1157 543920.0000
    107    108   1      0.1529 224262.4000
    107    111   1      0.1090 284512.0000
    107    112   1      0.1090 284512.0000
    108    109   1      0.1470 326352.0000
    108    113   1      0.1090 284512.0000
    108    114   1      0.1529 224262.4000
    109    110   1      0.1157 543920.0000
    114    115   1      0.1529 224262.4000
    114    118   1      0.1090 284512.0000
    114    119   1      0.1090 284512.0000
    115    116   1      0.1470 326352.0000
    115    120   1      0.1090 284512.0000
    115    121   1      0.1529 224262.4000
    116    117   1      0.1157 543920.0000
    121    122   1      0.1529 224262.4000
    121    125   1      0.1090 284512.0000
    121    126   1      0.1090 284512.0000
    122    123   1      0.1470 326352.0000
    122    127   1      0.1090 284512.0000
    122    128   1      0.1529 224262.4000
    123    124   1      0.1157 543920.0000
    128    129   1      0.1529 224262.4000
    128    132   1      0.1090 284512.0000
    128    133   1      0.1090 284512.0000
    129    130   1      0.1470 326352.0000
    129    134   1      0.1090 284512.0000
    129    135   1      0.1529 224262.4000
    130    131   1      0.1157 543920.0000
    135    136   1      0.1529 224262.4000
    135    139   1      0.1090 284512.0000
    135    140   1      0.1090 284512.0000
    136    137   1      0.1470 326352.0000
    136    141   1      0.1090 284512.0000
    136    142   1      0.1090 284512.0000
    137    138   1      0.1157 543920.0000

[ pairs ]
; ai   aj   funct   fudge_QQ  charge_i   charge_j   c6    c12
      5      3   2   0.50000     0.0600000    0.4600000   2.090817e-04  1.174027e-07
      5      7   2   0.50000     0.0600000    0.0600000   4.333791e-05  1.058054e-08
      5      9   2   0.50000     0.0600000   -0.1200000   2.494471e-04  1.671101e-07
      6      3   2   0.50000     0.0600000    0.4600000   2.090817e-04  1.174027e-07
      6      7   2   0.50000     0.0600000    0.0600000   4.333791e-05  1.058054e-08
      6      9   2   0.50000     0.0600000   -0.1200000   2.494471e-04  1.671101e-07
      8      3   2   0.50000     0.0600000    0.4600000   2.090817e-04  1.174027e-07
      8      7   2   0.50000     0.0600000    0.0600000   4.333791e-05  1.058054e-08
      8      9   2   0.50000     0.0600000   -0.1200000   2.494471e-04  1.671101e-07
      1      4   2   0.50000    -0.1800000   -0.5600000   1.341046e-03  2.028941e-06
      7      4   2   0.50000     0.0600000   -0.5600000   2.329879e-04  1.284621e-07
      9      4   2   0.50000    -0.1200000   -0.5600000   1.341046e-03  2.028941e-06
      1     10   2   0.50000    -0.1800000    0.0400000   8.509647e-04  1.311165e-06
      1     13   2   0.50000    -0.1800000    0.0600000   2.494471e-04  1.671101e-07
      1     14   2   0.50000    -0.1800000    0.0600000   2.494471e-04  1.671101e-07
      3     10   2   0.50000     0.4600000    0.0400000   7.132623e-04  9.211554e-07
      3     13   2   0.50000     0.4600000    0.0600000   2.090817e-04  1.174027e-07
      3     14   2   0.50000     0.4600000    0.0600000   2.090817e-04  1.174027e-07
      7     10   2   0.50000     0.0600000    0.0400000   1.478431e-04  8.301622e-08
      7     13   2   0.50000     0.0600000    0.0600000   4.333791e-05  1.058054e-08
      7     14   2   0.50000     0.0600000    0.0600000   4.333791e-05  1.058054e-08
      2     11   2   0.50000     0.0400000    0.4600000   7.132623e-04  9.211554e-07
      2     15   2   0.50000     0.0400000    0.0600000   1.478431e-04  8.301622e-08
      2     16   2   0.50000     0.0400000   -0.1200000   8.509647e-04  1.311165e-06
     13     11   2   0.50000     0.0600000    0.4600000   2.090817e-04  1.174027e-07
     13     15   2   0.50000     0.0600000    0.0600000   4.333791e-05  1.058054e-08
     13     16   2   0.50000     0.0600000   -0.1200000   2.494471e-04  1.671101e-07
     14     11   2   0.50000     0.0600000    0.4600000   2.090817e-04  1.174027e-07
     14     15   2   0.50000     0.0600000    0.0600000   4.333791e-05  1.058054e-08
     14     16   2   0.50000     0.0600000   -0.1200000   2.494471e-04  1.671101e-07
      9     12   2   0.50000    -0.1200000   -0.5600000   1.341046e-03  2.028941e-06
     15     12   2   0.50000     0.0600000   -0.5600000   2.329879e-04  1.284621e-07
     16     12   2   0.50000    -0.1200000   -0.5600000   1.341046e-03  2.028941e-06
      9     17   2   0.50000    -0.1200000    0.0400000   8.509647e-04  1.311165e-06
      9     20   2   0.50000    -0.1200000    0.0600000   2.494471e-04  1.671101e-07
      9     21   2   0.50000    -0.1200000    0.0600000   2.494471e-04  1.671101e-07
     11     17   2   0.50000     0.4600000    0.0400000   7.132623e-04  9.211554e-07
     11     20   2   0.50000     0.4600000    0.0600000   2.090817e-04  1.174027e-07
     11     21   2   0.50000     0.4600000    0.0600000   2.090817e-04  1.174027e-07
     15     17   2   0.50000     0.0600000    0.0400000   1.478431e-04  8.301622e-08
     15     20   2   0.50000     0.0600000    0.0600000   4.333791e-05  1.058054e-08
     15     21   2   0.50000     0.0600000    0.0600000   4.333791e-05  1.058054e-08
     10     18   2   0.50000     0.0400000    0.4600000   7.132623e-04  9.211554e-07
     10     22   2   0.50000     0.0400000    0.0600000   1.478431e-04  8.301622e-08
     10     23   2   0.50000     0.0400000   -0.1200000   8.509647e-04  1.311165e-06
     20     18   2   0.50000     0.0600000    0.4600000   2.090817e-04  1.174027e-07
     20     22   2   0.50000     0.0600000    0.0600000   4.333791e-05  1.058054e-08
     20     23   2   0.50000     0.0600000   -0.1200000   2.494471e-04  1.671101e-07
     21     18   2   0.50000     0.0600000    0.4600000   2.090817e-04  1.174027e-07
     21     22   2   0.50000     0.0600000    0.0600000   4.333791e-05  1.058054e-08
     21     23   2   0.50000     0.0600000   -0.1200000   2.494471e-04  1.671101e-07
     16     19   2   0.50000    -0.1200000   -0.5600000   1.341046e-03  2.028941e-06
     22     19   2   0.50000     0.0600000   -0.5600000   2.329879e-04  1.284621e-07
     23     19   2   0.50000    -0.1200000   -0.5600000   1.341046e-03  2.028941e-06
     16     24   2   0.50000    -0.1200000    0.0400000   8.509647e-04  1.311165e-06
     16     27   2   0.50000    -0.1200000    0.0600000   2.494471e-04  1.671101e-07
     16     28   2   0.50000    -0.1200000    0.0600000   2.494471e-04  1.671101e-07
     18     24   2   0.50000     0.4600000    0.0400000   7.132623e-04  9.211554e-07
     18     27   2   0.50000     0.4600000    0.0600000   2.090817e-04  1.174027e-07
     18     28   2   0.50000     0.4600000    0.0600000   2.090817e-04  1.174027e-07
     22     24   2   0.50000     0.0600000    0.0400000   1.478431e-04  8.301622e-08
     22     27   2   0.50000     0.0600000    0.0600000   4.333791e-05  1.058054e-08
     22     28   2   0.50000     0.0600000    0.0600000   4.333791e-05  1.058054e-08
     17     25   2   0.50000     0.0400000    0.4600000   7.132623e-04  9.211554e-07
     17     29   2   0.50000     0.0400000    0.0600000   1.478431e-04  8.301622e-08
     17     30   2   0.50000     0.0400000   -0.1200000   8.509647e-04  1.311165e-06
     27     25   2   0.50000     0.0600000    0.4600000   2.090817e-04  1.174027e-07
     27     29   2   0.50000     0.0600000    0.0600000   4.333791e-05  1.058054e-08
     27     30   2   0.50000     0.0600000   -0.1200000   2.494471e-04  1.671101e-07
     28     25   2   0.50000     0.0600000    0.4600000   2.090817e-04  1.174027e-07
     28     29   2   0.50000     0.0600000    0.0600000   4.333791e-05  1.058054e-08
     28     30   2   0.50000     0.0600000   -0.1200000   2.494471e-04  1.671101e-07
     23     26   2   0.50000    -0.1200000   -0.5600000   1.341046e-03  2.028941e-06
     29     26   2   0.50000     0.0600000   -0.5600000   2.329879e-04  1.284621e-07
     30     26   2   0.50000    -0.1200000   -0.5600000   1.341046e-03  2.028941e-06
     23     31   2   0.50000    -0.1200000    0.0400000   8.509647e-04  1.311165e-06
     23     34   2   0.50000    -0.1200000    0.0600000   2.494471e-04  1.671101e-07
     23     35   2   0.50000    -0.1200000    0.0600000   2.494471e-04  1.671101e-07
     25     31   2   0.50000     0.4600000    0.0400000   7.132623e-04  9.211554e-07
     25     34   2   0.50000     0.4600000    0.0600000   2.090817e-04  1.174027e-07
     25     35   2   0.50000     0.4600000    0.0600000   2.090817e-04  1.174027e-07
     29     31   2   0.50000     0.0600000    0.0400000   1.478431e-04  8.301622e-08
     29     34   2   0.50000     0.0600000    0.0600000   4.333791e-05  1.058054e-08
     29     35   2   0.50000     0.0600000    0.0600000   4.333791e-05  1.058054e-08
     24     32   2   0.50000     0.0400000    0.4600000   7.132623e-04  9.211554e-07
     24     36   2   0.50000     0.0400000    0.0600000   1.478431e-04  8.301622e-08
     24     37   2   0.50000     0.0400000   -0.1200000   8.509647e-04  1.311165e-06
     34     32   2   0.50000     0.0600000    0.4600000   2.090817e-04  1.174027e-07
     34     36   2   0.50000     0.0600000    0.0600000   4.333791e-05  1.058054e-08
     34     37   2   0.50000     0.0600000   -0.1200000   2.494471e-04  1.671101e-07
     35     32   2   0.50000     0.0600000    0.4600000   2.090817e-04  1.174027e-07
     35     36   2   0.50000     0.0600000    0.0600000   4.333791e-05  1.058054e-08
     35     37   2   0.50000     0.0600000   -0.1200000   2.494471e-04  1.671101e-07
     30     33   2   0.50000    -0.1200000   -0.5600000   1.341046e-03  2.028941e-06
     36     33   2   0.50000     0.0600000   -0.5600000   2.329879e-04  1.284621e-07
     37     33   2   0.50000    -0.1200000   -0.5600000   1.341046e-03  2.028941e-06
     30     38   2   0.50000    -0.1200000    0.0400000   8.509647e-04  1.311165e-06
     30     41   2   0.50000    -0.1200000    0.0600000   2.494471e-04  1.671101e-07
     30     42   2   0.50000    -0.1200000    0.0600000   2.494471e-04  1.671101e-07
     32     38   2   0.50000     0.4600000    0.0400000   7.132623e-04  9.211554e-07
     32     41   2   0.50000     0.4600000    0.0600000   2.090817e-04  1.174027e-07
     32     42   2   0.50000     0.4600000    0.0600000   2.090817e-04  1.174027e-07
     36     38   2   0.50000     0.0600000    0.0400000   1.478431e-04  8.301622e-08
     36     41   2   0.50000     0.0600000    0.0600000   4.333791e-05  1.058054e-08
     36     42   2   0.50000     0.0600000    0.0600000   4.333791e-05  1.058054e-08
     31     39   2   0.50000     0.0400000    0.4600000   7.132623e-04  9.211554e-07
     31     43   2   0.50000     0.0400000    0.0600000   1.478431e-04  8.301622e-08
     31     44   2   0.50000     0.0400000   -0.1200000   8.509647e-04  1.311165e-06
     41     39   2   0.50000     0.0600000    0.4600000   2.090817e-04  1.174027e-07
     41     43   2   0.50000     0.0600000    0.0600000   4.333791e-05  1.058054e-08
     41     44   2   0.50000     0.0600000   -0.1200000   2.494471e-04  1.671101e-07
     42     39   2   0.50000     0.0600000    0.4600000   2.090817e-04  1.174027e-07
     42     43   2   0.50000     0.0600000    0.0600000   4.333791e-05  1.058054e-08
     42     44   2   0.50000     0.0600000   -0.1200000   2.494471e-04  1.671101e-07
     37     40   2   0.50000    -0.1200000   -0.5600000   1.341046e-03  2.028941e-06
     43     40   2   0.50000     0.0600000   -0.5600000   2.329879e-04  1.284621e-07
     44     40   2   0.50000    -0.1200000   -0.5600000   1.341046e-03  2.028941e-06
     37     45   2   0.50000    -0.1200000    0.0400000   8.509647e-04  1.311165e-06
     37     48   2   0.50000    -0.1200000    0.0600000   2.494471e-04  1.671101e-07
     37     49   2   0.50000    -0.1200000    0.0600000   2.494471e-04  1.671101e-07
     39     45   2   0.50000     0.4600000    0.0400000   7.132623e-04  9.211554e-07
     39     48   2   0.50000     0.4600000    0.0600000   2.090817e-04  1.174027e-07
     39     49   2   0.50000     0.4600000    0.0600000   2.090817e-04  1.174027e-07
     43     45   2   0.50000     0.0600000    0.0400000   1.478431e-04  8.301622e-08
     43     48   2   0.50000     0.0600000    0.0600000   4.333791e-05  1.058054e-08
     43     49   2   0.50000     0.0600000    0.0600000   4.333791e-05  1.058054e-08
     38     46   2   0.50000     0.0400000    0.4600000   7.132623e-04  9.211554e-07
     38     50   2   0.50000     0.0400000    0.0600000   1.478431e-04  8.301622e-08
     38     51   2   0.50000     0.0400000   -0.1200000   8.509647e-04  1.311165e-06
     48     46   2   0.50000     0.0600000    0.4600000   2.090817e-04  1.174027e-07
     48     50   2   0.50000     0.0600000    0.0600000   4.333791e-05  1.058054e-08
     48     51   2   0.50000     0.0600000   -0.1200000   2.494471e-04  1.671101e-07
     49     46   2   0.50000     0.0600000    0.4600000   2.090817e-04  1.174027e-07
     49     50   2   0.50000     0.0600000    0.0600000   4.333791e-05  1.058054e-08
     49     51   2   0.50000     0.0600000   -0.1200000   2.494471e-04  1.671101e-07
     44     47   2   0.50000    -0.1200000   -0.5600000   1.341046e-03  2.028941e-06
     50     47   2   0.50000     0.0600000   -0.5600000   2.329879e-04  1.284621e-07
     51     47   2   0.50000    -0.1200000   -0.5600000   1.341046e-03  2.028941e-06
     44     52   2   0.50000    -0.1200000    0.0400000   8.509647e-04  1.311165e-06
     44     55   2   0.50000    -0.1200000    0.0600000   2.494471e-04  1.671101e-07
     44     56   2   0.50000    -0.1200000    0.0600000   2.494471e-04  1.671101e-07
     46     52   2   0.50000     0.4600000    0.0400000   7.132623e-04  9.211554e-07
     46     55   2   0.50000     0.4600000    0.0600000   2.090817e-04  1.174027e-07
     46     56   2   0.50000     0.4600000    0.0600000   2.090817e-04  1.174027e-07
     50     52   2   0.50000     0.0600000    0.0400000   1.478431e-04  8.301622e-08
     50     55   2   0.50000     0.0600000    0.0600000   4.333791e-05  1.058054e-08
     50     56   2   0.50000     0.0600000    0.0600000   4.333791e-05  1.058054e-08
     45     53   2   0.50000     0.0400000    0.4600000   7.132623e-04  9.211554e-07
     45     57   2   0.50000     0.0400000    0.0600000   1.478431e-04  8.301622e-08
     45     58   2   0.50000     0.0400000   -0.1200000   8.509647e-04  1.311165e-06
     55     53   2   0.50000     0.0600000    0.4600000   2.090817e-04  1.174027e-07
     55     57   2   0.50000     0.0600000    0.0600000   4.333791e-05  1.058054e-08
     55     58   2   0.50000     0.0600000   -0.1200000   2.494471e-04  1.671101e-07
     56     53   2   0.50000     0.0600000    0.4600000   2.090817e-04  1.174027e-07
     56     57   2   0.50000     0.0600000    0.0600000   4.333791e-05  1.058054e-08
     56     58   2   0.50000     0.0600000   -0.1200000   2.494471e-04  1.671101e-07
     51     54   2   0.50000    -0.1200000   -0.5600000   1.341046e-03  2.028941e-06
     57     54   2   0.50000     0.0600000   -0.5600000   2.329879e-04  1.284621e-07
     58     54   2   0.50000    -0.1200000   -0.5600000   1.341046e-03  2.028941e-06
     51     59   2   0.50000    -0.1200000    0.0400000   8.509647e-04  1.311165e-06
     51     62   2   0.50000    -0.1200000    0.0600000   2.494471e-04  1.671101e-07
     51     63   2   0.50000    -0.1200000    0.0600000   2.494471e-04  1.671101e-07
     53     59   2   0.50000     0.4600000    0.0400000   7.132623e-04  9.211554e-07
     53     62   2   0.50000     0.4600000    0.0600000   2.090817e-04  1.174027e-07
     53     63   2   0.50000     0.4600000    0.0600000   2.090817e-04  1.174027e-07
     57     59   2   0.50000     0.0600000    0.0400000   1.478431e-04  8.301622e-08
     57     62   2   0.50000     0.0600000    0.0600000   4.333791e-05  1.058054e-08
     57     63   2   0.50000     0.0600000    0.0600000   4.333791e-05  1.058054e-08
     52     60   2   0.50000     0.0400000    0.4600000   7.132623e-04  9.211554e-07
     52     64   2   0.50000     0.0400000    0.0600000   1.478431e-04  8.301622e-08
     52     65   2   0.50000     0.0400000   -0.1200000   8.509647e-04  1.311165e-06
     62     60   2   0.50000     0.0600000    0.4600000   2.090817e-04  1.174027e-07
     62     64   2   0.50000     0.0600000    0.0600000   4.333791e-05  1.058054e-08
     62     65   2   0.50000     0.0600000   -0.1200000   2.494471e-04  1.671101e-07
     63     60   2   0.50000     0.0600000    0.4600000   2.090817e-04  1.174027e-07
     63     64   2   0.50000     0.0600000    0.0600000   4.333791e-05  1.058054e-08
     63     65   2   0.50000     0.0600000   -0.1200000   2.494471e-04  1.671101e-07
     58     61   2   0.50000    -0.1200000   -0.5600000   1.341046e-03  2.028941e-06
     64     61   2   0.50000     0.0600000   -0.5600000   2.329879e-04  1.284621e-07
     65     61   2   0.50000    -0.1200000   -0.5600000   1.341046e-03  2.028941e-06
     58     66   2   0.50000    -0.1200000    0.0400000   8.509647e-04  1.311165e-06
     58     69   2   0.50000    -0.1200000    0.0600000   2.494471e-04  1.671101e-07
     58     70   2   0.50000    -0.1200000    0.0600000   2.494471e-04  1.671101e-07
     60     66   2   0.50000     0.4600000    0.0400000   7.132623e-04  9.211554e-07
     60     69   2   0.50000     0.4600000    0.0600000   2.090817e-04  1.174027e-07
     60     70   2   0.50000     0.4600000    0.0600000   2.090817e-04  1.174027e-07
     64     66   2   0.50000     0.0600000    0.0400000   1.478431e-04  8.301622e-08
     64     69   2   0.50000     0.0600000    0.0600000   4.333791e-05  1.058054e-08
     64     70   2   0.50000     0.0600000    0.0600000   4.333791e-05  1.058054e-08
     59     67   2   0.50000     0.0400000    0.4600000   7.132623e-04  9.211554e-07
     59     71   2   0.50000     0.0400000    0.0600000   1.478431e-04  8.301622e-08
     59     72   2   0.50000     0.0400000   -0.1200000   8.509647e-04  1.311165e-06
     69     67   2   0.50000     0.0600000    0.4600000   2.090817e-04  1.174027e-07
     69     71   2   0.50000     0.0600000    0.0600000   4.333791e-05  1.058054e-08
     69     72   2   0.50000     0.0600000   -0.1200000   2.494471e-04  1.671101e-07
     70     67   2   0.50000     0.0600000    0.4600000   2.090817e-04  1.174027e-07
     70     71   2   0.50000     0.0600000    0.0600000   4.333791e-05  1.058054e-08
     70     72   2   0.50000     0.0600000   -0.1200000   2.494471e-04  1.671101e-07
     65     68   2   0.50000    -0.1200000   -0.5600000   1.341046e-03  2.028941e-06
     71     68   2   0.50000     0.0600000   -0.5600000   2.329879e-04  1.284621e-07
     72     68   2   0.50000    -0.1200000   -0.5600000   1.341046e-03  2.028941e-06
     65     73   2   0.50000    -0.1200000    0.0400000   8.509647e-04  1.311165e-06
     65     76   2   0.50000    -0.1200000    0.0600000   2.494471e-04  1.671101e-07
     65     77   2   0.50000    -0.1200000    0.0600000   2.494471e-04  1.671101e-07
     67     73   2   0.50000     0.4600000    0.0400000   7.132623e-04  9.211554e-07
     67     76   2   0.50000     0.4600000    0.0600000   2.090817e-04  1.174027e-07
     67     77   2   0.50000     0.4600000    0.0600000   2.090817e-04  1.174027e-07
     71     73   2   0.50000     0.0600000    0.0400000   1.478431e-04  8.301622e-08
     71     76   2   0.50000     0.0600000    0.0600000   4.333791e-05  1.058054e-08
     71     77   2   0.50000     0.0600000    0.0600000   4.333791e-05  1.058054e-08
     66     74   2   0.50000     0.0400000    0.4600000   7.132623e-04  9.211554e-07
     66     78   2   0.50000     0.0400000    0.0600000   1.478431e-04  8.301622e-08
     66     79   2   0.50000     0.0400000   -0.1200000   8.509647e-04  1.311165e-06
     76     74   2   0.50000     0.0600000    0.4600000   2.090817e-04  1.174027e-07
     76     78   2   0.50000     0.0600000    0.0600000   4.333791e-05  1.058054e-08
     76     79   2   0.50000     0.0600000   -0.1200000   2.494471e-04  1.671101e-07
     77     74   2   0.50000     0.0600000    0.4600000   2.090817e-04  1.174027e-07
     77     78   2   0.50000     0.0600000    0.0600000   4.333791e-05  1.058054e-08
     77     79   2   0.50000     0.0600000   -0.1200000   2.494471e-04  1.671101e-07
     72     75   2   0.50000    -0.1200000   -0.5600000   1.341046e-03  2.028941e-06
     78     75   2   0.50000     0.0600000   -0.5600000   2.329879e-04  1.284621e-07
     79     75   2   0.50000    -0.1200000   -0.5600000   1.341046e-03  2.028941e-06
     72     80   2   0.50000    -0.1200000    0.0400000   8.509647e-04  1.311165e-06
     72     83   2   0.50000    -0.1200000    0.0600000   2.494471e-04  1.671101e-07
     72     84   2   0.50000    -0.1200000    0.0600000   2.494471e-04  1.671101e-07
     74     80   2   0.50000     0.4600000    0.0400000   7.132623e-04  9.211554e-07
     74     83   2   0.50000     0.4600000    0.0600000   2.090817e-04  1.174027e-07
     74     84   2   0.50000     0.4600000    0.0600000   2.090817e-04  1.174027e-07
     78     80   2   0.50000     0.0600000    0.0400000   1.478431e-04  8.301622e-08
     78     83   2   0.50000     0.0600000    0.0600000   4.333791e-05  1.058054e-08
     78     84   2   0.50000     0.0600000    0.0600000   4.333791e-05  1.058054e-08
     73     81   2   0.50000     0.0400000    0.4600000   7.132623e-04  9.211554e-07
     73     85   2   0.50000     0.0400000    0.0600000   1.478431e-04  8.301622e-08
     73     86   2   0.50000     0.0400000   -0.1200000   8.509647e-04  1.311165e-06
     83     81   2   0.50000     0.0600000    0.4600000   2.090817e-04  1.174027e-07
     83     85   2   0.50000     0.0600000    0.0600000   4.333791e-05  1.058054e-08
     83     86   2   0.50000     0.0600000   -0.1200000   2.494471e-04  1.671101e-07
     84     81   2   0.50000     0.0600000    0.4600000   2.090817e-04  1.174027e-07
     84     85   2   0.50000     0.0600000    0.0600000   4.333791e-05  1.058054e-08
     84     86   2   0.50000     0.0600000   -0.1200000   2.494471e-04  1.671101e-07
     79     82   2   0.50000    -0.1200000   -0.5600000   1.341046e-03  2.028941e-06
     85     82   2   0.50000     0.0600000   -0.5600000   2.329879e-04  1.284621e-07
     86     82   2   0.50000    -0.1200000   -0.5600000   1.341046e-03  2.028941e-06
     79     87   2   0.50000    -0.1200000    0.0400000   8.509647e-04  1.311165e-06
     79     90   2   0.50000    -0.1200000    0.0600000   2.494471e-04  1.671101e-07
     79     91   2   0.50000    -0.1200000    0.0600000   2.494471e-04  1.671101e-07
     81     87   2   0.50000     0.4600000    0.0400000   7.132623e-04  9.211554e-07
     81     90   2   0.50000     0.4600000    0.0600000   2.090817e-04  1.174027e-07
     81     91   2   0.50000     0.4600000    0.0600000   2.090817e-04  1.174027e-07
     85     87   2   0.50000     0.0600000    0.0400000   1.478431e-04  8.301622e-08
     85     90   2   0.50000     0.0600000    0.0600000   4.333791e-05  1.058054e-08
     85     91   2   0.50000     0.0600000    0.0600000   4.333791e-05  1.058054e-08
     80     88   2   0.50000     0.0400000    0.4600000   7.132623e-04  9.211554e-07
     80     92   2   0.50000     0.0400000    0.0600000   1.478431e-04  8.301622e-08
     80     93   2   0.50000     0.0400000   -0.1200000   8.509647e-04  1.311165e-06
     90     88   2   0.50000     0.0600000    0.4600000   2.090817e-04  1.174027e-07
     90     92   2   0.50000     0.0600000    0.0600000   4.333791e-05  1.058054e-08
     90     93   2   0.50000     0.0600000   -0.1200000   2.494471e-04  1.671101e-07
     91     88   2   0.50000     0.0600000    0.4600000   2.090817e-04  1.174027e-07
     91     92   2   0.50000     0.0600000    0.0600000   4.333791e-05  1.058054e-08
     91     93   2   0.50000     0.0600000   -0.1200000   2.494471e-04  1.671101e-07
     86     89   2   0.50000    -0.1200000   -0.5600000   1.341046e-03  2.028941e-06
     92     89   2   0.50000     0.0600000   -0.5600000   2.329879e-04  1.284621e-07
     93     89   2   0.50000    -0.1200000   -0.5600000   1.341046e-03  2.028941e-06
     86     94   2   0.50000    -0.1200000    0.0400000   8.509647e-04  1.311165e-06
     86     97   2   0.50000    -0.1200000    0.0600000   2.494471e-04  1.671101e-07
     86     98   2   0.50000    -0.1200000    0.0600000   2.494471e-04  1.671101e-07
     88     94   2   0.50000     0.4600000    0.0400000   7.132623e-04  9.211554e-07
     88     97   2   0.50000     0.4600000    0.0600000   2.090817e-04  1.174027e-07
     88     98   2   0.50000     0.4600000    0.0600000   2.090817e-04  1.174027e-07
     92     94   2   0.50000     0.0600000    0.0400000   1.478431e-04  8.301622e-08
     92     97   2   0.50000     0.0600000    0.0600000   4.333791e-05  1.058054e-08
     92     98   2   0.50000     0.0600000    0.0600000   4.333791e-05  1.058054e-08
     87     95   2   0.50000     0.0400000    0.4600000   7.132623e-04  9.211554e-07
     87     99   2   0.50000     0.0400000    0.0600000   1.478431e-04  8.301622e-08
     87    100   2   0.50000     0.0400000   -0.1200000   8.509647e-04  1.311165e-06
     97     95   2   0.50000     0.0600000    0.4600000   2.090817e-04  1.174027e-07
     97     99   2   0.50000     0.0600000    0.0600000   4.333791e-05  1.058054e-08
     97    100   2   0.50000     0.0600000   -0.1200000   2.494471e-04  1.671101e-07
     98     95   2   0.50000     0.0600000    0.4600000   2.090817e-04  1.174027e-07
     98     99   2   0.50000     0.0600000    0.0600000   4.333791e-05  1.058054e-08
     98    100   2   0.50000     0.0600000   -0.1200000   2.494471e-04  1.671101e-07
     93     96   2   0.50000    -0.1200000   -0.5600000   1.341046e-03  2.028941e-06
     99     96   2   0.50000     0.0600000   -0.5600000   2.329879e-04  1.284621e-07
    100     96   2   0.50000    -0.1200000   -0.5600000   1.341046e-03  2.028941e-06
     93    101   2   0.50000    -0.1200000    0.0400000   8.509647e-04  1.311165e-06
     93    104   2   0.50000    -0.1200000    0.0600000   2.494471e-04  1.671101e-07
     93    105   2   0.50000    -0.1200000    0.0600000   2.494471e-04  1.671101e-07
     95    101   2   0.50000     0.4600000    0.0400000   7.132623e-04  9.211554e-07
     95    104   2   0.50000     0.4600000    0.0600000   2.090817e-04  1.174027e-07
     95    105   2   0.50000     0.4600000    0.0600000   2.090817e-04  1.174027e-07
     99    101   2   0.50000     0.0600000    0.0400000   1.478431e-04  8.301622e-08
     99    104   2   0.50000     0.0600000    0.0600000   4.333791e-05  1.058054e-08
     99    105   2   0.50000     0.0600000    0.0600000   4.333791e-05  1.058054e-08
     94    102   2   0.50000     0.0400000    0.4600000   7.132623e-04  9.211554e-07
     94    106   2   0.50000     0.0400000    0.0600000   1.478431e-04  8.301622e-08
     94    107   2   0.50000     0.0400000   -0.1200000   8.509647e-04  1.311165e-06
    104    102   2   0.50000     0.0600000    0.4600000   2.090817e-04  1.174027e-07
    104    106   2   0.50000     0.0600000    0.0600000   4.333791e-05  1.058054e-08
    104    107   2   0.50000     0.0600000   -0.1200000   2.494471e-04  1.671101e-07
    105    102   2   0.50000     0.0600000    0.4600000   2.090817e-04  1.174027e-07
    105    106   2   0.50000     0.0600000    0.0600000   4.333791e-05  1.058054e-08
    105    107   2   0.50000     0.0600000   -0.1200000   2.494471e-04  1.671101e-07
    100    103   2   0.50000    -0.1200000   -0.5600000   1.341046e-03  2.028941e-06
    106    103   2   0.50000     0.0600000   -0.5600000   2.329879e-04  1.284621e-07
    107    103   2   0.50000    -0.1200000   -0.5600000   1.341046e-03  2.028941e-06
    100    108   2   0.50000    -0.1200000    0.0400000   8.509647e-04  1.311165e-06
    100    111   2   0.50000    -0.1200000    0.0600000   2.494471e-04  1.671101e-07
    100    112   2   0.50000    -0.1200000    0.0600000   2.494471e-04  1.671101e-07
    102    108   2   0.50000     0.4600000    0.0400000   7.132623e-04  9.211554e-07
    102    111   2   0.50000     0.4600000    0.0600000   2.090817e-04  1.174027e-07
    102    112   2   0.50000     0.4600000    0.0600000   2.090817e-04  1.174027e-07
    106    108   2   0.50000     0.0600000    0.0400000   1.478431e-04  8.301622e-08
    106    111   2   0.50000     0.0600000    0.0600000   4.333791e-05  1.058054e-08
    106    112   2   0.50000     0.0600000    0.0600000   4.333791e-05  1.058054e-08
    101    109   2   0.50000     0.0400000    0.4600000   7.132623e-04  9.211554e-07
    101    113   2   0.50000     0.0400000    0.0600000   1.478431e-04  8.301622e-08
    101    114   2   0.50000     0.0400000   -0.1200000   8.509647e-04  1.311165e-06
    111    109   2   0.50000     0.0600000    0.4600000   2.090817e-04  1.174027e-07
    111    113   2   0.50000     0.0600000    0.0600000   4.333791e-05  1.058054e-08
    111    114   2   0.50000     0.0600000   -0.1200000   2.494471e-04  1.671101e-07
    112    109   2   0.50000     0.0600000    0.4600000   2.090817e-04  1.174027e-07
    112    113   2   0.50000     0.0600000    0.0600000   4.333791e-05  1.058054e-08
    112    114   2   0.50000     0.0600000   -0.1200000   2.494471e-04  1.671101e-07
    107    110   2   0.50000    -0.1200000   -0.5600000   1.341046e-03  2.028941e-06
    113    110   2   0.50000     0.0600000   -0.5600000   2.329879e-04  1.284621e-07
    114    110   2   0.50000    -0.1200000   -0.5600000   1.341046e-03  2.028941e-06
    107    115   2   0.50000    -0.1200000    0.0400000   8.509647e-04  1.311165e-06
    107    118   2   0.50000    -0.1200000    0.0600000   2.494471e-04  1.671101e-07
    107    119   2   0.50000    -0.1200000    0.0600000   2.494471e-04  1.671101e-07
    109    115   2   0.50000     0.4600000    0.0400000   7.132623e-04  9.211554e-07
    109    118   2   0.50000     0.4600000    0.0600000   2.090817e-04  1.174027e-07
    109    119   2   0.50000     0.4600000    0.0600000   2.090817e-04  1.174027e-07
    113    115   2   0.50000     0.0600000    0.0400000   1.478431e-04  8.301622e-08
    113    118   2   0.50000     0.0600000    0.0600000   4.333791e-05  1.058054e-08
    113    119   2   0.50000     0.0600000    0.0600000   4.333791e-05  1.058054e-08
    108    116   2   0.50000     0.0400000    0.4600000   7.132623e-04  9.211554e-07
    108    120   2   0.50000     0.0400000    0.0600000   1.478431e-04  8.301622e-08
    108    121   2   0.50000     0.0400000   -0.1200000   8.509647e-04  1.311165e-06
    118    116   2   0.50000     0.0600000    0.4600000   2.090817e-04  1.174027e-07
    118    120   2   0.50000     0.0600000    0.0600000   4.333791e-05  1.058054e-08
    118    121   2   0.50000     0.0600000   -0.1200000   2.494471e-04  1.671101e-07
    119    116   2   0.50000     0.0600000    0.4600000   2.090817e-04  1.174027e-07
    119    120   2   0.50000     0.0600000    0.0600000   4.333791e-05  1.058054e-08
    119    121   2   0.50000     0.0600000   -0.1200000   2.494471e-04  1.671101e-07
    114    117   2   0.50000    -0.1200000   -0.5600000   1.341046e-03  2.028941e-06
    120    117   2   0.50000     0.0600000   -0.5600000   2.329879e-04  1.284621e-07
    121    117   2   0.50000    -0.1200000   -0.5600000   1.341046e-03  2.028941e-06
    114    122   2   0.50000    -0.1200000    0.0400000   8.509647e-04  1.311165e-06
    114    125   2   0.50000    -0.1200000    0.0600000   2.494471e-04  1.671101e-07
    114    126   2   0.50000    -0.1200000    0.0600000   2.494471e-04  1.671101e-07
    116    122   2   0.50000     0.4600000    0.0400000   7.132623e-04  9.211554e-07
    116    125   2   0.50000     0.4600000    0.0600000   2.090817e-04  1.174027e-07
    116    126   2   0.50000     0.4600000    0.0600000   2.090817e-04  1.174027e-07
    120    122   2   0.50000     0.0600000    0.0400000   1.478431e-04  8.301622e-08
    120    125   2   0.50000     0.0600000    0.0600000   4.333791e-05  1.058054e-08
    120    126   2   0.50000     0.0600000    0.0600000   4.333791e-05  1.058054e-08
    115    123   2   0.50000     0.0400000    0.4600000   7.132623e-04  9.211554e-07
    115    127   2   0.50000     0.0400000    0.0600000   1.478431e-04  8.301622e-08
    115    128   2   0.50000     0.0400000   -0.1200000   8.509647e-04  1.311165e-06
    125    123   2   0.50000     0.0600000    0.4600000   2.090817e-04  1.174027e-07
    125    127   2   0.50000     0.0600000    0.0600000   4.333791e-05  1.058054e-08
    125    128   2   0.50000     0.0600000   -0.1200000   2.494471e-04  1.671101e-07
    126    123   2   0.50000     0.0600000    0.4600000   2.090817e-04  1.174027e-07
    126    127   2   0.50000     0.0600000    0.0600000   4.333791e-05  1.058054e-08
    126    128   2   0.50000     0.0600000   -0.1200000   2.494471e-04  1.671101e-07
    121    124   2   0.50000    -0.1200000   -0.5600000   1.341046e-03  2.028941e-06
    127    124   2   0.50000     0.0600000   -0.5600000   2.329879e-04  1.284621e-07
    128    124   2   0.50000    -0.1200000   -0.5600000   1.341046e-03  2.028941e-06
    121    129   2   0.50000    -0.1200000    0.0400000   8.509647e-04  1.311165e-06
    121    132   2   0.50000    -0.1200000    0.0600000   2.494471e-04  1.671101e-07
    121    133   2   0.50000    -0.1200000    0.0600000   2.494471e-04  1.671101e-07
    123    129   2   0.50000     0.4600000    0.0400000   7.132623e-04  9.211554e-07
    123    132   2   0.50000     0.4600000    0.0600000   2.090817e-04  1.174027e-07
    123    133   2   0.50000     0.4600000    0.0600000   2.090817e-04  1.174027e-07
    127    129   2   0.50000     0.0600000    0.0400000   1.478431e-04  8.301622e-08
    127    132   2   0.50000     0.0600000    0.0600000   4.333791e-05  1.058054e-08
    127    133   2   0.50000     0.0600000    0.0600000   4.333791e-05  1.058054e-08
    122    130   2   0.50000     0.0400000    0.4600000   7.132623e-04  9.211554e-07
    122    134   2   0.50000     0.0400000    0.0600000   1.478431e-04  8.301622e-08
    122    135   2   0.50000     0.0400000   -0.1200000   8.509647e-04  1.311165e-06
    132    130   2   0.50000     0.0600000    0.4600000   2.090817e-04  1.174027e-07
    132    134   2   0.50000     0.0600000    0.0600000   4.333791e-05  1.058054e-08
    132    135   2   0.50000     0.0600000   -0.1200000   2.494471e-04  1.671101e-07
    133    130   2   0.50000     0.0600000    0.4600000   2.090817e-04  1.174027e-07
    133    134   2   0.50000     0.0600000    0.0600000   4.333791e-05  1.058054e-08
    133    135   2   0.50000     0.0600000   -0.1200000   2.494471e-04  1.671101e-07
    128    131   2   0.50000    -0.1200000   -0.5600000   1.341046e-03  2.028941e-06
    134    131   2   0.50000     0.0600000   -0.5600000   2.329879e-04  1.284621e-07
    135    131   2   0.50000    -0.1200000   -0.5600000   1.341046e-03  2.028941e-06
    128    136   2   0.50000    -0.1200000   -0.0200000   8.509647e-04  1.311165e-06
    128    139   2   0.50000    -0.1200000    0.0600000   2.494471e-04  1.671101e-07
    128    140   2   0.50000    -0.1200000    0.0600000   2.494471e-04  1.671101e-07
    130    136   2   0.50000     0.4600000   -0.0200000   7.132623e-04  9.211554e-07
    130    139   2   0.50000     0.4600000    0.0600000   2.090817e-04  1.174027e-07
    130    140   2   0.50000     0.4600000    0.0600000   2.090817e-04  1.174027e-07
    134    136   2   0.50000     0.0600000   -0.0200000   1.478431e-04  8.301622e-08
    134    139   2   0.50000     0.0600000    0.0600000   4.333791e-05  1.058054e-08
    134    140   2   0.50000     0.0600000    0.0600000   4.333791e-05  1.058054e-08
    129    137   2   0.50000     0.0400000    0.4600000   7.132623e-04  9.211554e-07
    129    141   2   0.50000     0.0400000    0.0600000   1.478431e-04  8.301622e-08
    129    142   2   0.50000     0.0400000    0.0600000   1.478431e-04  8.301622e-08
    139    137   2   0.50000     0.0600000    0.4600000   2.090817e-04  1.174027e-07
    139    141   2   0.50000     0.0600000    0.0600000   4.333791e-05  1.058054e-08
    139    142   2   0.50000     0.0600000    0.0600000   4.333791e-05  1.058054e-08
    140    137   2   0.50000     0.0600000    0.4600000   2.090817e-04  1.174027e-07
    140    141   2   0.50000     0.0600000    0.0600000   4.333791e-05  1.058054e-08
    140    142   2   0.50000     0.0600000    0.0600000   4.333791e-05  1.058054e-08
    135    138   2   0.50000    -0.1200000   -0.5600000   1.341046e-03  2.028941e-06
    141    138   2   0.50000     0.0600000   -0.5600000   2.329879e-04  1.284621e-07
    142    138   2   0.50000     0.0600000   -0.5600000   2.329879e-04  1.284621e-07

[ angles ]
; ai  aj  ak
      2      1      5   1    110.7000    313.8000
      2      1      6   1    110.7000    313.8000
      2      1      8   1    110.7000    313.8000
      5      1      6   1    107.8000    276.1440
      5      1      8   1    107.8000    276.1440
      6      1      8   1    107.8000    276.1440
      1      2      3   1    112.7000    488.2728
      1      2      7   1    110.7000    313.8000
      1      2      9   1    112.7000    488.2728
      3      2      7   1    108.5000    292.8800
      3      2      9   1    112.7000    488.2728
      7      2      9   1    110.7000    313.8000
      2      3      4   1    180.0000   1255.2000
      2      9     10   1    112.7000    488.2728
      2      9     13   1    110.7000    313.8000
      2      9     14   1    110.7000    313.8000
     10      9     13   1    110.7000    313.8000
     10      9     14   1    110.7000    313.8000
     13      9     14   1    107.8000    276.1440
      9     10     11   1    112.7000    488.2728
      9     10     15   1    110.7000    313.8000
      9     10     16   1    112.7000    488.2728
     11     10     15   1    108.5000    292.8800
     11     10     16   1    112.7000    488.2728
     15     10     16   1    110.7000    313.8000
     10     11     12   1    180.0000   1255.2000
     10     16     17   1    112.7000    488.2728
     10     16     20   1    110.7000    313.8000
     10     16     21   1    110.7000    313.8000
     17     16     20   1    110.7000    313.8000
     17     16     21   1    110.7000    313.8000
     20     16     21   1    107.8000    276.1440
     16     17     18   1    112.7000    488.2728
     16     17     22   1    110.7000    313.8000
     16     17     23   1    112.7000    488.2728
     18     17     22   1    108.5000    292.8800
     18     17     23   1    112.7000    488.2728
     22     17     23   1    110.7000    313.8000
     17     18     19   1    180.0000   1255.2000
     17     23     24   1    112.7000    488.2728
     17     23     27   1    110.7000    313.8000
     17     23     28   1    110.7000    313.8000
     24     23     27   1    110.7000    313.8000
     24     23     28   1    110.7000    313.8000
     27     23     28   1    107.8000    276.1440
     23     24     25   1    112.7000    488.2728
     23     24     29   1    110.7000    313.8000
     23     24     30   1    112.7000    488.2728
     25     24     29   1    108.5000    292.8800
     25     24     30   1    112.7000    488.2728
     29     24     30   1    110.7000    313.8000
     24     25     26   1    180.0000   1255.2000
     24     30     31   1    112.7000    488.2728
     24     30     34   1    110.7000    313.8000
     24     30     35   1    110.7000    313.8000
     31     30     34   1    110.7000    313.8000
     31     30     35   1    110.7000    313.8000
     34     30     35   1    107.8000    276.1440
     30     31     32   1    112.7000    488.2728
     30     31     36   1    110.7000    313.8000
     30     31     37   1    112.7000    488.2728
     32     31     36   1    108.5000    292.8800
     32     31     37   1    112.7000    488.2728
     36     31     37   1    110.7000    313.8000
     31     32     33   1    180.0000   1255.2000
     31     37     38   1    112.7000    488.2728
     31     37     41   1    110.7000    313.8000
     31     37     42   1    110.7000    313.8000
     38     37     41   1    110.7000    313.8000
     38     37     42   1    110.7000    313.8000
     41     37     42   1    107.8000    276.1440
     37     38     39   1    112.7000    488.2728
     37     38     43   1    110.7000    313.8000
     37     38     44   1    112.7000    488.2728
     39     38     43   1    108.5000    292.8800
     39     38     44   1    112.7000    488.2728
     43     38     44   1    110.7000    313.8000
     38     39     40   1    180.0000   1255.2000
     38     44     45   1    112.7000    488.2728
     38     44     48   1    110.7000    313.8000
     38     44     49   1    110.7000    313.8000
     45     44     48   1    110.7000    313.8000
     45     44     49   1    110.7000    313.8000
     48     44     49   1    107.8000    276.1440
     44     45     46   1    112.7000    488.2728
     44     45     50   1    110.7000    313.8000
     44     45     51   1    112.7000    488.2728
     46     45     50   1    108.5000    292.8800
     46     45     51   1    112.7000    488.2728
     50     45     51   1    110.7000    313.8000
     45     46     47   1    180.0000   1255.2000
     45     51     52   1    112.7000    488.2728
     45     51     55   1    110.7000    313.8000
     45     51     56   1    110.7000    313.8000
     52     51     55   1    110.7000    313.8000
     52     51     56   1    110.7000    313.8000
     55     51     56   1    107.8000    276.1440
     51     52     53   1    112.7000    488.2728
     51     52     57   1    110.7000    313.8000
     51     52     58   1    112.7000    488.2728
     53     52     57   1    108.5000    292.8800
     53     52     58   1    112.7000    488.2728
     57     52     58   1    110.7000    313.8000
     52     53     54   1    180.0000   1255.2000
     52     58     59   1    112.7000    488.2728
     52     58     62   1    110.7000    313.8000
     52     58     63   1    110.7000    313.8000
     59     58     62   1    110.7000    313.8000
     59     58     63   1    110.7000    313.8000
     62     58     63   1    107.8000    276.1440
     58     59     60   1    112.7000    488.2728
     58     59     64   1    110.7000    313.8000
     58     59     65   1    112.7000    488.2728
     60     59     64   1    108.5000    292.8800
     60     59     65   1    112.7000    488.2728
     64     59     65   1    110.7000    313.8000
     59     60     61   1    180.0000   1255.2000
     59     65     66   1    112.7000    488.2728
     59     65     69   1    110.7000    313.8000
     59     65     70   1    110.7000    313.8000
     66     65     69   1    110.7000    313.8000
     66     65     70   1    110.7000    313.8000
     69     65     70   1    107.8000    276.1440
     65     66     67   1    112.7000    488.2728
     65     66     71   1    110.7000    313.8000
     65     66     72   1    112.7000    488.2728
     67     66     71   1    108.5000    292.8800
     67     66     72   1    112.7000    488.2728
     71     66     72   1    110.7000    313.8000
     66     67     68   1    180.0000   1255.2000
     66     72     73   1    112.7000    488.2728
     66     72     76   1    110.7000    313.8000
     66     72     77   1    110.7000    313.8000
     73     72     76   1    110.7000    313.8000
     73     72     77   1    110.7000    313.8000
     76     72     77   1    107.8000    276.1440
     72     73     74   1    112.7000    488.2728
     72     73     78   1    110.7000    313.8000
     72     73     79   1    112.7000    488.2728
     74     73     78   1    108.5000    292.8800
     74     73     79   1    112.7000    488.2728
     78     73     79   1    110.7000    313.8000
     73     74     75   1    180.0000   1255.2000
     73     79     80   1    112.7000    488.2728
     73     79     83   1    110.7000    313.8000
     73     79     84   1    110.7000    313.8000
     80     79     83   1    110.7000    313.8000
     80     79     84   1    110.7000    313.8000
     83     79     84   1    107.8000    276.1440
     79     80     81   1    112.7000    488.2728
     79     80     85   1    110.7000    313.8000
     79     80     86   1    112.7000    488.2728
     81     80     85   1    108.5000    292.8800
     81     80     86   1    112.7000    488.2728
     85     80     86   1    110.7000    313.8000
     80     81     82   1    180.0000   1255.2000
     80     86     87   1    112.7000    488.2728
     80     86     90   1    110.7000    313.8000
     80     86     91   1    110.7000    313.8000
     87     86     90   1    110.7000    313.8000
     87     86     91   1    110.7000    313.8000
     90     86     91   1    107.8000    276.1440
     86     87     88   1    112.7000    488.2728
     86     87     92   1    110.7000    313.8000
     86     87     93   1    112.7000    488.2728
     88     87     92   1    108.5000    292.8800
     88     87     93   1    112.7000    488.2728
     92     87     93   1    110.7000    313.8000
     87     88     89   1    180.0000   1255.2000
     87     93     94   1    112.7000    488.2728
     87     93     97   1    110.7000    313.8000
     87     93     98   1    110.7000    313.8000
     94     93     97   1    110.7000    313.8000
     94     93     98   1    110.7000    313.8000
     97     93     98   1    107.8000    276.1440
     93     94     95   1    112.7000    488.2728
     93     94     99   1    110.7000    313.8000
     93     94    100   1    112.7000    488.2728
     95     94     99   1    108.5000    292.8800
     95     94    100   1    112.7000    488.2728
     99     94    100   1    110.7000    313.8000
     94     95     96   1    180.0000   1255.2000
     94    100    101   1    112.7000    488.2728
     94    100    104   1    110.7000    313.8000
     94    100    105   1    110.7000    313.8000
    101    100    104   1    110.7000    313.8000
    101    100    105   1    110.7000    313.8000
    104    100    105   1    107.8000    276.1440
    100    101    102   1    112.7000    488.2728
    100    101    106   1    110.7000    313.8000
    100    101    107   1    112.7000    488.2728
    102    101    106   1    108.5000    292.8800
    102    101    107   1    112.7000    488.2728
    106    101    107   1    110.7000    313.8000
    101    102    103   1    180.0000   1255.2000
    101    107    108   1    112.7000    488.2728
    101    107    111   1    110.7000    313.8000
    101    107    112   1    110.7000    313.8000
    108    107    111   1    110.7000    313.8000
    108    107    112   1    110.7000    313.8000
    111    107    112   1    107.8000    276.1440
    107    108    109   1    112.7000    488.2728
    107    108    113   1    110.7000    313.8000
    107    108    114   1    112.7000    488.2728
    109    108    113   1    108.5000    292.8800
    109    108    114   1    112.7000    488.2728
    113    108    114   1    110.7000    313.8000
    108    109    110   1    180.0000   1255.2000
    108    114    115   1    112.7000    488.2728
    108    114    118   1    110.7000    313.8000
    108    114    119   1    110.7000    313.8000
    115    114    118   1    110.7000    313.8000
    115    114    119   1    110.7000    313.8000
    118    114    119   1    107.8000    276.1440
    114    115    116   1    112.7000    488.2728
    114    115    120   1    110.7000    313.8000
    114    115    121   1    112.7000    488.2728
    116    115    120   1    108.5000    292.8800
    116    115    121   1    112.7000    488.2728
    120    115    121   1    110.7000    313.8000
    115    116    117   1    180.0000   1255.2000
    115    121    122   1    112.7000    488.2728
    115    121    125   1    110.7000    313.8000
    115    121    126   1    110.7000    313.8000
    122    121    125   1    110.7000    313.8000
    122    121    126   1    110.7000    313.8000
    125    121    126   1    107.8000    276.1440
    121    122    123   1    112.7000    488.2728
    121    122    127   1    110.7000    313.8000
    121    122    128   1    112.7000    488.2728
    123    122    127   1    108.5000    292.8800
    123    122    128   1    112.7000    488.2728
    127    122    128   1    110.7000    313.8000
    122    123    124   1    180.0000   1255.2000
    122    128    129   1    112.7000    488.2728
    122    128    132   1    110.7000    313.8000
    122    128    133   1    110.7000    313.8000
    129    128    132   1    110.7000    313.8000
    129    128    133   1    110.7000    313.8000
    132    128    133   1    107.8000    276.1440
    128    129    130   1    112.7000    488.2728
    128    129    134   1    110.7000    313.8000
    128    129    135   1    112.7000    488.2728
    130    129    134   1    108.5000    292.8800
    130    129    135   1    112.7000    488.2728
    134    129    135   1    110.7000    313.8000
    129    130    131   1    180.0000   1255.2000
    129    135    136   1    112.7000    488.2728
    129    135    139   1    110.7000    313.8000
    129    135    140   1    110.7000    313.8000
    136    135    139   1    110.7000    313.8000
    136    135    140   1    110.7000    313.8000
    139    135    140   1    107.8000    276.1440
    135    136    137   1    112.7000    488.2728
    135    136    141   1    110.7000    313.8000
    135    136    142   1    110.7000    313.8000
    137    136    141   1    108.5000    292.8800
    137    136    142   1    108.5000    292.8800
    141    136    142   1    107.8000    276.1440
    136    137    138   1    180.0000   1255.2000

[ dihedrals ]
; Proper dihedrals
      5      1      2      3   5     0.00000     0.00000     1.25520  0.0
      5      1      2      7   5     0.00000     0.00000     1.25520  0.0
      5      1      2      9   5     0.00000     0.00000     1.25520  0.0
      6      1      2      3   5     0.00000     0.00000     1.25520  0.0
      6      1      2      7   5     0.00000     0.00000     1.25520  0.0
      6      1      2      9   5     0.00000     0.00000     1.25520  0.0
      8      1      2      3   5     0.00000     0.00000     1.25520  0.0
      8      1      2      7   5     0.00000     0.00000     1.25520  0.0
      8      1      2      9   5     0.00000     0.00000     1.25520  0.0
      1      2      3      4   5     0.00000     0.00000     0.00000  0.0
      7      2      3      4   5     0.00000     0.00000     0.00000  0.0
      9      2      3      4   5     0.00000     0.00000     0.00000  0.0
      1      2      9     10   5     4.74884    -0.63178     1.67360  0.0
      1      2      9     13   5     0.00000     0.00000     1.25520  0.0
      1      2      9     14   5     0.00000     0.00000     1.25520  0.0
      3      2      9     10   5    -6.19232     2.01250     2.06271  0.0
      3      2      9     13   5     0.00000     0.00000     1.25520  0.0
      3      2      9     14   5     0.00000     0.00000     1.25520  0.0
      7      2      9     10   5     0.00000     0.00000     1.25520  0.0
      7      2      9     13   5     0.00000     0.00000     1.25520  0.0
      7      2      9     14   5     0.00000     0.00000     1.25520  0.0
      2      9     10     11   5    -6.19232     2.01250     2.06271  0.0
      2      9     10     15   5     0.00000     0.00000     1.25520  0.0
      2      9     10     16   5     4.74884    -0.63178     1.67360  0.0
     13      9     10     11   5     0.00000     0.00000     1.25520  0.0
     13      9     10     15   5     0.00000     0.00000     1.25520  0.0
     13      9     10     16   5     0.00000     0.00000     1.25520  0.0
     14      9     10     11   5     0.00000     0.00000     1.25520  0.0
     14      9     10     15   5     0.00000     0.00000     1.25520  0.0
     14      9     10     16   5     0.00000     0.00000     1.25520  0.0
      9     10     11     12   5     0.00000     0.00000     0.00000  0.0
     15     10     11     12   5     0.00000     0.00000     0.00000  0.0
     16     10     11     12   5     0.00000     0.00000     0.00000  0.0
      9     10     16     17   5     4.74884    -0.63178     1.67360  0.0
      9     10     16     20   5     0.00000     0.00000     1.25520  0.0
      9     10     16     21   5     0.00000     0.00000     1.25520  0.0
     11     10     16     17   5    -6.19232     2.01250     2.06271  0.0
     11     10     16     20   5     0.00000     0.00000     1.25520  0.0
     11     10     16     21   5     0.00000     0.00000     1.25520  0.0
     15     10     16     17   5     0.00000     0.00000     1.25520  0.0
     15     10     16     20   5     0.00000     0.00000     1.25520  0.0
     15     10     16     21   5     0.00000     0.00000     1.25520  0.0
     10     16     17     18   5    -6.19232     2.01250     2.06271  0.0
     10     16     17     22   5     0.00000     0.00000     1.25520  0.0
     10     16     17     23   5     4.74884    -0.63178     1.67360  0.0
     20     16     17     18   5     0.00000     0.00000     1.25520  0.0
     20     16     17     22   5     0.00000     0.00000     1.25520  0.0
     20     16     17     23   5     0.00000     0.00000     1.25520  0.0
     21     16     17     18   5     0.00000     0.00000     1.25520  0.0
     21     16     17     22   5     0.00000     0.00000     1.25520  0.0
     21     16     17     23   5     0.00000     0.00000     1.25520  0.0
     16     17     18     19   5     0.00000     0.00000     0.00000  0.0
     22     17     18     19   5     0.00000     0.00000     0.00000  0.0
     23     17     18     19   5     0.00000     0.00000     0.00000  0.0
     16     17     23     24   5     4.74884    -0.63178     1.67360  0.0
     16     17     23     27   5     0.00000     0.00000     1.25520  0.0
     16     17     23     28   5     0.00000     0.00000     1.25520  0.0
     18     17     23     24   5    -6.19232     2.01250     2.06271  0.0
     18     17     23     27   5     0.00000     0.00000     1.25520  0.0
     18     17     23     28   5     0.00000     0.00000     1.25520  0.0
     22     17     23     24   5     0.00000     0.00000     1.25520  0.0
     22     17     23     27   5     0.00000     0.00000     1.25520  0.0
     22     17     23     28   5     0.00000     0.00000     1.25520  0.0
     17     23     24     25   5    -6.19232     2.01250     2.06271  0.0
     17     23     24     29   5     0.00000     0.00000     1.25520  0.0
     17     23     24     30   5     4.74884    -0.63178     1.67360  0.0
     27     23     24     25   5     0.00000     0.00000     1.25520  0.0
     27     23     24     29   5     0.00000     0.00000     1.25520  0.0
     27     23     24     30   5     0.00000     0.00000     1.25520  0.0
     28     23     24     25   5     0.00000     0.00000     1.25520  0.0
     28     23     24     29   5     0.00000     0.00000     1.25520  0.0
     28     23     24     30   5     0.00000     0.00000     1.25520  0.0
     23     24     25     26   5     0.00000     0.00000     0.00000  0.0
     29     24     25     26   5     0.00000     0.00000     0.00000  0.0
     30     24     25     26   5     0.00000     0.00000     0.00000  0.0
     23     24     30     31   5     4.74884    -0.63178     1.67360  0.0
     23     24     30     34   5     0.00000     0.00000     1.25520  0.0
     23     24     30     35   5     0.00000     0.00000     1.25520  0.0
     25     24     30     31   5    -6.19232     2.01250     2.06271  0.0
     25     24     30     34   5     0.00000     0.00000     1.25520  0.0
     25     24     30     35   5     0.00000     0.00000     1.25520  0.0
     29     24     30     31   5     0.00000     0.00000     1.25520  0.0
     29     24     30     34   5     0.00000     0.00000     1.25520  0.0
     29     24     30     35   5     0.00000     0.00000     1.25520  0.0
     24     30     31     32   5    -6.19232     2.01250     2.06271  0.0
     24     30     31     36   5     0.00000     0.00000     1.25520  0.0
     24     30     31     37   5     4.74884    -0.63178     1.67360  0.0
     34     30     31     32   5     0.00000     0.00000     1.25520  0.0
     34     30     31     36   5     0.00000     0.00000     1.25520  0.0
     34     30     31     37   5     0.00000     0.00000     1.25520  0.0
     35     30     31     32   5     0.00000     0.00000     1.25520  0.0
     35     30     31     36   5     0.00000     0.00000     1.25520  0.0
     35     30     31     37   5     0.00000     0.00000     1.25520  0.0
     30     31     32     33   5     0.00000     0.00000     0.00000  0.0
     36     31     32     33   5     0.00000     0.00000     0.00000  0.0
     37     31     32     33   5     0.00000     0.00000     0.00000  0.0
     30     31     37     38   5     4.74884    -0.63178     1.67360  0.0
     30     31     37     41   5     0.00000     0.00000     1.25520  0.0
     30     31     37     42   5     0.00000     0.00000     1.25520  0.0
     32     31     37     38   5    -6.19232     2.01250     2.06271  0.0
     32     31     37     41   5     0.00000     0.00000     1.25520  0.0
     32     31     37     42   5     0.00000     0.00000     1.25520  0.0
     36     31     37     38   5     0.00000     0.00000     1.25520  0.0
     36     31     37     41   5     0.00000     0.00000     1.25520  0.0
     36     31     37     42   5     0.00000     0.00000     1.25520  0.0
     31     37     38     39   5    -6.19232     2.01250     2.06271  0.0
     31     37     38     43   5     0.00000     0.00000     1.25520  0.0
     31     37     38     44   5     4.74884    -0.63178     1.67360  0.0
     41     37     38     39   5     0.00000     0.00000     1.25520  0.0
     41     37     38     43   5     0.00000     0.00000     1.25520  0.0
     41     37     38     44   5     0.00000     0.00000     1.25520  0.0
     42     37     38     39   5     0.00000     0.00000     1.25520  0.0
     42     37     38     43   5     0.00000     0.00000     1.25520  0.0
     42     37     38     44   5     0.00000     0.00000     1.25520  0.0
     37     38     39     40   5     0.00000     0.00000     0.00000  0.0
     43     38     39     40   5     0.00000     0.00000     0.00000  0.0
     44     38     39     40   5     0.00000     0.00000     0.00000  0.0
     37     38     44     45   5     4.74884    -0.63178     1.67360  0.0
     37     38     44     48   5     0.00000     0.00000     1.25520  0.0
     37     38     44     49   5     0.00000     0.00000     1.25520  0.0
     39     38     44     45   5    -6.19232     2.01250     2.06271  0.0
     39     38     44     48   5     0.00000     0.00000     1.25520  0.0
     39     38     44     49   5     0.00000     0.00000     1.25520  0.0
     43     38     44     45   5     0.00000     0.00000     1.25520  0.0
     43     38     44     48   5     0.00000     0.00000     1.25520  0.0
     43     38     44     49   5     0.00000     0.00000     1.25520  0.0
     38     44     45     46   5    -6.19232     2.01250     2.06271  0.0
     38     44     45     50   5     0.00000     0.00000     1.25520  0.0
     38     44     45     51   5     4.74884    -0.63178     1.67360  0.0
     48     44     45     46   5     0.00000     0.00000     1.25520  0.0
     48     44     45     50   5     0.00000     0.00000     1.25520  0.0
     48     44     45     51   5     0.00000     0.00000     1.25520  0.0
     49     44     45     46   5     0.00000     0.00000     1.25520  0.0
     49     44     45     50   5     0.00000     0.00000     1.25520  0.0
     49     44     45     51   5     0.00000     0.00000     1.25520  0.0
     44     45     46     47   5     0.00000     0.00000     0.00000  0.0
     50     45     46     47   5     0.00000     0.00000     0.00000  0.0
     51     45     46     47   5     0.00000     0.00000     0.00000  0.0
     44     45     51     52   5     4.74884    -0.63178     1.67360  0.0
     44     45     51     55   5     0.00000     0.00000     1.25520  0.0
     44     45     51     56   5     0.00000     0.00000     1.25520  0.0
     46     45     51     52   5    -6.19232     2.01250     2.06271  0.0
     46     45     51     55   5     0.00000     0.00000     1.25520  0.0
     46     45     51     56   5     0.00000     0.00000     1.25520  0.0
     50     45     51     52   5     0.00000     0.00000     1.25520  0.0
     50     45     51     55   5     0.00000     0.00000     1.25520  0.0
     50     45     51     56   5     0.00000     0.00000     1.25520  0.0
     45     51     52     53   5    -6.19232     2.01250     2.06271  0.0
     45     51     52     57   5     0.00000     0.00000     1.25520  0.0
     45     51     52     58   5     4.74884    -0.63178     1.67360  0.0
     55     51     52     53   5     0.00000     0.00000     1.25520  0.0
     55     51     52     57   5     0.00000     0.00000     1.25520  0.0
     55     51     52     58   5     0.00000     0.00000     1.25520  0.0
     56     51     52     53   5     0.00000     0.00000     1.25520  0.0
     56     51     52     57   5     0.00000     0.00000     1.25520  0.0
     56     51     52     58   5     0.00000     0.00000     1.25520  0.0
     51     52     53     54   5     0.00000     0.00000     0.00000  0.0
     57     52     53     54   5     0.00000     0.00000     0.00000  0.0
     58     52     53     54   5     0.00000     0.00000     0.00000  0.0
     51     52     58     59   5     4.74884    -0.63178     1.67360  0.0
     51     52     58     62   5     0.00000     0.00000     1.25520  0.0
     51     52     58     63   5     0.00000     0.00000     1.25520  0.0
     53     52     58     59   5    -6.19232     2.01250     2.06271  0.0
     53     52     58     62   5     0.00000     0.00000     1.25520  0.0
     53     52     58     63   5     0.00000     0.00000     1.25520  0.0
     57     52     58     59   5     0.00000     0.00000     1.25520  0.0
     57     52     58     62   5     0.00000     0.00000     1.25520  0.0
     57     52     58     63   5     0.00000     0.00000     1.25520  0.0
     52     58     59     60   5    -6.19232     2.01250     2.06271  0.0
     52     58     59     64   5     0.00000     0.00000     1.25520  0.0
     52     58     59     65   5     4.74884    -0.63178     1.67360  0.0
     62     58     59     60   5     0.00000     0.00000     1.25520  0.0
     62     58     59     64   5     0.00000     0.00000     1.25520  0.0
     62     58     59     65   5     0.00000     0.00000     1.25520  0.0
     63     58     59     60   5     0.00000     0.00000     1.25520  0.0
     63     58     59     64   5     0.00000     0.00000     1.25520  0.0
     63     58     59     65   5     0.00000     0.00000     1.25520  0.0
     58     59     60     61   5     0.00000     0.00000     0.00000  0.0
     64     59     60     61   5     0.00000     0.00000     0.00000  0.0
     65     59     60     61   5     0.00000     0.00000     0.00000  0.0
     58     59     65     66   5     4.74884    -0.63178     1.67360  0.0
     58     59     65     69   5     0.00000     0.00000     1.25520  0.0
     58     59     65     70   5     0.00000     0.00000     1.25520  0.0
     60     59     65     66   5    -6.19232     2.01250     2.06271  0.0
     60     59     65     69   5     0.00000     0.00000     1.25520  0.0
     60     59     65     70   5     0.00000     0.00000     1.25520  0.0
     64     59     65     66   5     0.00000     0.00000     1.25520  0.0
     64     59     65     69   5     0.00000     0.00000     1.25520  0.0
     64     59     65     70   5     0.00000     0.00000     1.25520  0.0
     59     65     66     67   5    -6.19232     2.01250     2.06271  0.0
     59     65     66     71   5     0.00000     0.00000     1.25520  0.0
     59     65     66     72   5     4.74884    -0.63178     1.67360  0.0
     69     65     66     67   5     0.00000     0.00000     1.25520  0.0
     69     65     66     71   5     0.00000     0.00000     1.25520  0.0
     69     65     66     72   5     0.00000     0.00000     1.25520  0.0
     70     65     66     67   5     0.00000     0.00000     1.25520  0.0
     70     65     66     71   5     0.00000     0.00000     1.25520  0.0
     70     65     66     72   5     0.00000     0.00000     1.25520  0.0
     65     66     67     68   5     0.00000     0.00000     0.00000  0.0
     71     66     67     68   5     0.00000     0.00000     0.00000  0.0
     72     66     67     68   5     0.00000     0.00000     0.00000  0.0
     65     66     72     73   5     4.74884    -0.63178     1.67360  0.0
     65     66     72     76   5     0.00000     0.00000     1.25520  0.0
     65     66     72     77   5     0.00000     0.00000     1.25520  0.0
     67     66     72     73   5    -6.19232     2.01250     2.06271  0.0
     67     66     72     76   5     0.00000     0.00000     1.25520  0.0
     67     66     72     77   5     0.00000     0.00000     1.25520  0.0
     71     66     72     73   5     0.00000     0.00000     1.25520  0.0
     71     66     72     76   5     0.00000     0.00000     1.25520  0.0
     71     66     72     77   5     0.00000     0.00000     1.25520  0.0
     66     72     73     74   5    -6.19232     2.01250     2.06271  0.0
     66     72     73     78   5     0.00000     0.00000     1.25520  0.0
     66     72     73     79   5     4.74884    -0.63178     1.67360  0.0
     76     72     73     74   5     0.00000     0.00000     1.25520  0.0
     76     72     73     78   5     0.00000     0.00000     1.25520  0.0
     76     72     73     79   5     0.00000     0.00000     1.25520  0.0
     77     72     73     74   5     0.00000     0.00000     1.25520  0.0
     77     72     73     78   5     0.00000     0.00000     1.25520  0.0
     77     72     73     79   5     0.00000     0.00000     1.25520  0.0
     72     73     74     75   5     0.00000     0.00000     0.00000  0.0
     78     73     74     75   5     0.00000     0.00000     0.00000  0.0
     79     73     74     75   5     0.00000     0.00000     0.00000  0.0
     72     73     79     80   5     4.74884    -0.63178     1.67360  0.0
     72     73     79     83   5     0.00000     0.00000     1.25520  0.0
     72     73     79     84   5     0.00000     0.00000     1.25520  0.0
     74     73     79     80   5    -6.19232     2.01250     2.06271  0.0
     74     73     79     83   5     0.00000     0.00000     1.25520  0.0
     74     73     79     84   5     0.00000     0.00000     1.25520  0.0
     78     73     79     80   5     0.00000     0.00000     1.25520  0.0
     78     73     79     83   5     0.00000     0.00000     1.25520  0.0
     78     73     79     84   5     0.00000     0.00000     1.25520  0.0
     73     79     80     81   5    -6.19232     2.01250     2.06271  0.0
     73     79     80     85   5     0.00000     0.00000     1.25520  0.0
     73     79     80     86   5     4.74884    -0.63178     1.67360  0.0
     83     79     80     81   5     0.00000     0.00000     1.25520  0.0
     83     79     80     85   5     0.00000     0.00000     1.25520  0.0
     83     79     80     86   5     0.00000     0.00000     1.25520  0.0
     84     79     80     81   5     0.00000     0.00000     1.25520  0.0
     84     79     80     85   5     0.00000     0.00000     1.25520  0.0
     84     79     80     86   5     0.00000     0.00000     1.25520  0.0
     79     80     81     82   5     0.00000     0.00000     0.00000  0.0
     85     80     81     82   5     0.00000     0.00000     0.00000  0.0
     86     80     81     82   5     0.00000     0.00000     0.00000  0.0
     79     80     86     87   5     4.74884    -0.63178     1.67360  0.0
     79     80     86     90   5     0.00000     0.00000     1.25520  0.0
     79     80     86     91   5     0.00000     0.00000     1.25520  0.0
     81     80     86     87   5    -6.19232     2.01250     2.06271  0.0
     81     80     86     90   5     0.00000     0.00000     1.25520  0.0
     81     80     86     91   5     0.00000     0.00000     1.25520  0.0
     85     80     86     87   5     0.00000     0.00000     1.25520  0.0
     85     80     86     90   5     0.00000     0.00000     1.25520  0.0
     85     80     86     91   5     0.00000     0.00000     1.25520  0.0
     80     86     87     88   5    -6.19232     2.01250     2.06271  0.0
     80     86     87     92   5     0.00000     0.00000     1.25520  0.0
     80     86     87     93   5     4.74884    -0.63178     1.67360  0.0
     90     86     87     88   5     0.00000     0.00000     1.25520  0.0
     90     86     87     92   5     0.00000     0.00000     1.25520  0.0
     90     86     87     93   5     0.00000     0.00000     1.25520  0.0
     91     86     87     88   5     0.00000     0.00000     1.25520  0.0
     91     86     87     92   5     0.00000     0.00000     1.25520  0.0
     91     86     87     93   5     0.00000     0.00000     1.25520  0.0
     86     87     88     89   5     0.00000     0.00000     0.00000  0.0
     92     87     88     89   5     0.00000     0.00000     0.00000  0.0
     93     87     88     89   5     0.00000     0.00000     0.00000  0.0
     86     87     93     94   5     4.74884    -0.63178     1.67360  0.0
     86     87     93     97   5     0.00000     0.00000     1.25520  0.0
     86     87     93     98   5     0.00000     0.00000     1.25520  0.0
     88     87     93     94   5    -6.19232     2.01250     2.06271  0.0
     88     87     93     97   5     0.00000     0.00000     1.25520  0.0
     88     87     93     98   5     0.00000     0.00000     1.25520  0.0
     92     87     93     94   5     0.00000     0.00000     1.25520  0.0
     92     87     93     97   5     0.00000     0.00000     1.25520  0.0
     92     87     93     98   5     0.00000     0.00000     1.25520  0.0
     87     93     94     95   5    -6.19232     2.01250     2.06271  0.0
     87     93     94     99   5     0.00000     0.00000     1.25520  0.0
     87     93     94    100   5     4.74884    -0.63178     1.67360  0.0
     97     93     94     95   5     0.00000     0.00000     1.25520  0.0
     97     93     94     99   5     0.00000     0.00000     1.25520  0.0
     97     93     94    100   5     0.00000     0.00000     1.25520  0.0
     98     93     94     95   5     0.00000     0.00000     1.25520  0.0
     98     93     94     99   5     0.00000     0.00000     1.25520  0.0
     98     93     94    100   5     0.00000     0.00000     1.25520  0.0
     93     94     95     96   5     0.00000     0.00000     0.00000  0.0
     99     94     95     96   5     0.00000     0.00000     0.00000  0.0
    100     94     95     96   5     0.00000     0.00000     0.00000  0.0
     93     94    100    101   5     4.74884    -0.63178     1.67360  0.0
     93     94    100    104   5     0.00000     0.00000     1.25520  0.0
     93     94    100    105   5     0.00000     0.00000     1.25520  0.0
     95     94    100    101   5    -6.19232     2.01250     2.06271  0.0
     95     94    100    104   5     0.00000     0.00000     1.25520  0.0
     95     94    100    105   5     0.00000     0.00000     1.25520  0.0
     99     94    100    101   5     0.00000     0.00000     1.25520  0.0
     99     94    100    104   5     0.00000     0.00000     1.25520  0.0
     99     94    100    105   5     0.00000     0.00000     1.25520  0.0
     94    100    101    102   5    -6.19232     2.01250     2.06271  0.0
     94    100    101    106   5     0.00000     0.00000     1.25520  0.0
     94    100    101    107   5     4.74884    -0.63178     1.67360  0.0
    104    100    101    102   5     0.00000     0.00000     1.25520  0.0
    104    100    101    106   5     0.00000     0.00000     1.25520  0.0
    104    100    101    107   5     0.00000     0.00000     1.25520  0.0
    105    100    101    102   5     0.00000     0.00000     1.25520  0.0
    105    100    101    106   5     0.00000     0.00000     1.25520  0.0
    105    100    101    107   5     0.00000     0.00000     1.25520  0.0
    100    101    102    103   5     0.00000     0.00000     0.00000  0.0
    106    101    102    103   5     0.00000     0.00000     0.00000  0.0
    107    101    102    103   5     0.00000     0.00000     0.00000  0.0
    100    101    107    108   5     4.74884    -0.63178     1.67360  0.0
    100    101    107    111   5     0.00000     0.00000     1.25520  0.0
    100    101    107    112   5     0.00000     0.00000     1.25520  0.0
    102    101    107    108   5    -6.19232     2.01250     2.06271  0.0
    102    101    107    111   5     0.00000     0.00000     1.25520  0.0
    102    101    107    112   5     0.00000     0.00000     1.25520  0.0
    106    101    107    108   5     0.00000     0.00000     1.25520  0.0
    106    101    107    111   5     0.00000     0.00000     1.25520  0.0
    106    101    107    112   5     0.00000     0.00000     1.25520  0.0
    101    107    108    109   5    -6.19232     2.01250     2.06271  0.0
    101    107    108    113   5     0.00000     0.00000     1.25520  0.0
    101    107    108    114   5     4.74884    -0.63178     1.67360  0.0
    111    107    108    109   5     0.00000     0.00000     1.25520  0.0
    111    107    108    113   5     0.00000     0.00000     1.25520  0.0
    111    107    108    114   5     0.00000     0.00000     1.25520  0.0
    112    107    108    109   5     0.00000     0.00000     1.25520  0.0
    112    107    108    113   5     0.00000     0.00000     1.25520  0.0
    112    107    108    114   5     0.00000     0.00000     1.25520  0.0
    107    108    109    110   5     0.00000     0.00000     0.00000  0.0
    113    108    109    110   5     0.00000     0.00000     0.00000  0.0
    114    108    109    110   5     0.00000     0.00000     0.00000  0.0
    107    108    114    115   5     4.74884    -0.63178     1.67360  0.0
    107    108    114    118   5     0.00000     0.00000     1.25520  0.0
    107    108    114    119   5     0.00000     0.00000     1.25520  0.0
    109    108    114    115   5    -6.19232     2.01250     2.06271  0.0
    109    108    114    118   5     0.00000     0.00000     1.25520  0.0
    109    108    114    119   5     0.00000     0.00000     1.25520  0.0
    113    108    114    115   5     0.00000     0.00000     1.25520  0.0
    113    108    114    118   5     0.00000     0.00000     1.25520  0.0
    113    108    114    119   5     0.00000     0.00000     1.25520  0.0
    108    114    115    116   5    -6.19232     2.01250     2.06271  0.0
    108    114    115    120   5     0.00000     0.00000     1.25520  0.0
    108    114    115    121   5     4.74884    -0.63178     1.67360  0.0
    118    114    115    116   5     0.00000     0.00000     1.25520  0.0
    118    114    115    120   5     0.00000     0.00000     1.25520  0.0
    118    114    115    121   5     0.00000     0.00000     1.25520  0.0
    119    114    115    116   5     0.00000     0.00000     1.25520  0.0
    119    114    115    120   5     0.00000     0.00000     1.25520  0.0
    119    114    115    121   5     0.00000     0.00000     1.25520  0.0
    114    115    116    117   5     0.00000     0.00000     0.00000  0.0
    120    115    116    117   5     0.00000     0.00000     0.00000  0.0
    121    115    116    117   5     0.00000     0.00000     0.00000  0.0
    114    115    121    122   5     4.74884    -0.63178     1.67360  0.0
    114    115    121    125   5     0.00000     0.00000     1.25520  0.0
    114    115    121    126   5     0.00000     0.00000     1.25520  0.0
    116    115    121    122   5    -6.19232     2.01250     2.06271  0.0
    116    115    121    125   5     0.00000     0.00000     1.25520  0.0
    116    115    121    126   5     0.00000     0.00000     1.25520  0.0
    120    115    121    122   5     0.00000     0.00000     1.25520  0.0
    120    115    121    125   5     0.00000     0.00000     1.25520  0.0
    120    115    121    126   5     0.00000     0.00000     1.25520  0.0
    115    121    122    123   5    -6.19232     2.01250     2.06271  0.0
    115    121    122    127   5     0.00000     0.00000     1.25520  0.0
    115    121    122    128   5     4.74884    -0.63178     1.67360  0.0
    125    121    122    123   5     0.00000     0.00000     1.25520  0.0
    125    121    122    127   5     0.00000     0.00000     1.25520  0.0
    125    121    122    128   5     0.00000     0.00000     1.25520  0.0
    126    121    122    123   5     0.00000     0.00000     1.25520  0.0
    126    121    122    127   5     0.00000     0.00000     1.25520  0.0
    126    121    122    128   5     0.00000     0.00000     1.25520  0.0
    121    122    123    124   5     0.00000     0.00000     0.00000  0.0
    127    122    123    124   5     0.00000     0.00000     0.00000  0.0
    128    122    123    124   5     0.00000     0.00000     0.00000  0.0
    121    122    128    129   5     4.74884    -0.63178     1.67360  0.0
    121    122    128    132   5     0.00000     0.00000     1.25520  0.0
    121    122    128    133   5     0.00000     0.00000     1.25520  0.0
    123    122    128    129   5    -6.19232     2.01250     2.06271  0.0
    123    122    128    132   5     0.00000     0.00000     1.25520  0.0
    123    122    128    133   5     0.00000     0.00000     1.25520  0.0
    127    122    128    129   5     0.00000     0.00000     1.25520  0.0
    127    122    128    132   5     0.00000     0.00000     1.25520  0.0
    127    122    128    133   5     0.00000     0.00000     1.25520  0.0
    122    128    129    130   5    -6.19232     2.01250     2.06271  0.0
    122    128    129    134   5     0.00000     0.00000     1.25520  0.0
    122    128    129    135   5     4.74884    -0.63178     1.67360  0.0
    132    128    129    130   5     0.00000     0.00000     1.25520  0.0
    132    128    129    134   5     0.00000     0.00000     1.25520  0.0
    132    128    129    135   5     0.00000     0.00000     1.25520  0.0
    133    128    129    130   5     0.00000     0.00000     1.25520  0.0
    133    128    129    134   5     0.00000     0.00000     1.25520  0.0
    133    128    129    135   5     0.00000     0.00000     1.25520  0.0
    128    129    130    131   5     0.00000     0.00000     0.00000  0.0
    134    129    130    131   5     0.00000     0.00000     0.00000  0.0
    135    129    130    131   5     0.00000     0.00000     0.00000  0.0
    128    129    135    136   5     4.74884    -0.63178     1.67360  0.0
    128    129    135    139   5     0.00000     0.00000     1.25520  0.0
    128    129    135    140   5     0.00000     0.00000     1.25520  0.0
    130    129    135    136   5    -6.19232     2.01250     2.06271  0.0
    130    129    135    139   5     0.00000     0.00000     1.25520  0.0
    130    129    135    140   5     0.00000     0.00000     1.25520  0.0
    134    129    135    136   5     0.00000     0.00000     1.25520  0.0
    134    129    135    139   5     0.00000     0.00000     1.25520  0.0
    134    129    135    140   5     0.00000     0.00000     1.25520  0.0
    129    135    136    137   5    -6.19232     2.01250     2.06271  0.0
    129    135    136    141   5     0.00000     0.00000     1.25520  0.0
    129    135    136    142   5     0.00000     0.00000     1.25520  0.0
    139    135    136    137   5     0.00000     0.00000     1.25520  0.0
    139    135    136    141   5     0.00000     0.00000     1.25520  0.0
    139    135    136    142   5     0.00000     0.00000     1.25520  0.0
    140    135    136    137   5     0.00000     0.00000     1.25520  0.0
    140    135    136    141   5     0.00000     0.00000     1.25520  0.0
    140    135    136    142   5     0.00000     0.00000     1.25520  0.0
    135    136    137    138   5     0.00000     0.00000     0.00000  0.0
    141    136    137    138   5     0.00000     0.00000     0.00000  0.0
    142    136    137    138   5     0.00000     0.00000     0.00000  0.0
