;
; Gromacs system topology (top) file.
; Produced from DL_FIELD v4.11
;

[ defaults ]
; nbfunc   comb-rule   gen-pairs   fudgeLJ fudgeQQ
1       1           no          0.500000      0.500000

[ atomtypes ]
; atom_type  at.num   mass   charge   ptype   c6   c12
CT           6  12.01150     0.000   A  2.030504e-03  3.732606e-06
CANI         6  12.01150     0.000   A  1.426525e-03  1.842311e-06
CZ           6  12.01150     0.000   A  1.426525e-03  1.842311e-06
NZ           7  14.00670     0.000   A  3.542776e-03  4.411504e-06
HC           1   1.00797     0.000   A  1.225781e-04  2.992630e-08
HANI         1   1.00797     0.000   A  6.128906e-05  1.496315e-08

#include "gromacs1.itp"

[ system ]
; Title
Control file title. For DL_FIELD 4.10 

; System composition
[ molecules ]
; Molecular_group   species #
XYZ	352
